%VERSION  VERSION_STAMP = V0001.000  DATE = 01/31/26  21:39:16                  
%FLAG TITLE                                                                     
%FORMAT(20a4)                                                                   
default_name                                                                    
%FLAG POINTERS                                                                  
%FORMAT(10I8)                                                                   
   18432       5    9216   10656   21024   15552   36288   26496       0       0
  102816     288   10656   15552   26496      15      29      23       9       0
       0       0       0       0       0       0       0       0      64       0
       0
%FLAG ATOM_NAME                                                                 
%FORMAT(20a4)                                                                   
S1  C2  C3  C4  C5  C6  S7  C8  C9  H10 C11 C12 C13 C14 C15 H16 C17 C18 H19 H20 
C21 H22 H23 C24 H25 H26 C27 H28 H29 C30 C31 H32 H33 C34 C35 C36 H37 H38 C39 H40 
C41 H42 C43 H44 H45 C46 H47 H48 C49 H50 H51 H52 H53 H54 C55 C56 H57 H58 H59 C60 
H61 H62 H63 H64 S1  C2  C3  C4  C5  C6  S7  C8  C9  H10 C11 C12 C13 C14 C15 H16 
C17 C18 H19 H20 C21 H22 H23 C24 H25 H26 C27 H28 H29 C30 C31 H32 H33 C34 C35 C36 
H37 H38 C39 H40 C41 H42 C43 H44 H45 C46 H47 H48 C49 H50 H51 H52 H53 H54 C55 C56 
H57 H58 H59 C60 H61 H62 H63 H64 S1  C2  C3  C4  C5  C6  S7  C8  C9  H10 C11 C12 
C13 C14 C15 H16 C17 C18 H19 H20 C21 H22 H23 C24 H25 H26 C27 H28 H29 C30 C31 H32 
H33 C34 C35 C36 H37 H38 C39 H40 C41 H42 C43 H44 H45 C46 H47 H48 C49 H50 H51 H52 
H53 H54 C55 C56 H57 H58 H59 C60 H61 H62 H63 H64 S1  C2  C3  C4  C5  C6  S7  C8  
C9  H10 C11 C12 C13 C14 C15 H16 C17 C18 H19 H20 C21 H22 H23 C24 H25 H26 C27 H28 
H29 C30 C31 H32 H33 C34 C35 C36 H37 H38 C39 H40 C41 H42 C43 H44 H45 C46 H47 H48 
C49 H50 H51 H52 H53 H54 C55 C56 H57 H58 H59 C60 H61 H62 H63 H64 S1  C2  C3  C4  
C5  C6  S7  C8  C9  H10 C11 C12 C13 C14 C15 H16 C17 C18 H19 H20 C21 H22 H23 C24 
H25 H26 C27 H28 H29 C30 C31 H32 H33 C34 C35 C36 H37 H38 C39 H40 C41 H42 C43 H44 
H45 C46 H47 H48 C49 H50 H51 H52 H53 H54 C55 C56 H57 H58 H59 C60 H61 H62 H63 H64 
S1  C2  C3  C4  C5  C6  S7  C8  C9  H10 C11 C12 C13 C14 C15 H16 C17 C18 H19 H20 
C21 H22 H23 C24 H25 H26 C27 H28 H29 C30 C31 H32 H33 C34 C35 C36 H37 H38 C39 H40 
C41 H42 C43 H44 H45 C46 H47 H48 C49 H50 H51 H52 H53 H54 C55 C56 H57 H58 H59 C60 
H61 H62 H63 H64 S1  C2  C3  C4  C5  C6  S7  C8  C9  H10 C11 C12 C13 C14 C15 H16 
C17 C18 H19 H20 C21 H22 H23 C24 H25 H26 C27 H28 H29 C30 C31 H32 H33 C34 C35 C36 
H37 H38 C39 H40 C41 H42 C43 H44 H45 C46 H47 H48 C49 H50 H51 H52 H53 H54 C55 C56 
H57 H58 H59 C60 H61 H62 H63 H64 S1  C2  C3  C4  C5  C6  S7  C8  C9  H10 C11 C12 
C13 C14 C15 H16 C17 C18 H19 H20 C21 H22 H23 C24 H25 H26 C27 H28 H29 C30 C31 H32 
H33 C34 C35 C36 H37 H38 C39 H40 C41 H42 C43 H44 H45 C46 H47 H48 C49 H50 H51 H52 
H53 H54 C55 C56 H57 H58 H59 C60 H61 H62 H63 H64 S1  C2  C3  C4  C5  C6  S7  C8  
C9  H10 C11 C12 C13 C14 C15 H16 C17 C18 H19 H20 C21 H22 H23 C24 H25 H26 C27 H28 
H29 C30 C31 H32 H33 C34 C35 C36 H37 H38 C39 H40 C41 H42 C43 H44 H45 C46 H47 H48 
C49 H50 H51 H52 H53 H54 C55 C56 H57 H58 H59 C60 H61 H62 H63 H64 S1  C2  C3  C4  
C5  C6  S7  C8  C9  H10 C11 C12 C13 C14 C15 H16 C17 C18 H19 H20 C21 H22 H23 C24 
H25 H26 C27 H28 H29 C30 C31 H32 H33 C34 C35 C36 H37 H38 C39 H40 C41 H42 C43 H44 
H45 C46 H47 H48 C49 H50 H51 H52 H53 H54 C55 C56 H57 H58 H59 C60 H61 H62 H63 H64 
S1  C2  C3  C4  C5  C6  S7  C8  C9  H10 C11 C12 C13 C14 C15 H16 C17 C18 H19 H20 
C21 H22 H23 C24 H25 H26 C27 H28 H29 C30 C31 H32 H33 C34 C35 C36 H37 H38 C39 H40 
C41 H42 C43 H44 H45 C46 H47 H48 C49 H50 H51 H52 H53 H54 C55 C56 H57 H58 H59 C60 
H61 H62 H63 H64 S1  C2  C3  C4  C5  C6  S7  C8  C9  H10 C11 C12 C13 C14 C15 H16 
C17 C18 H19 H20 C21 H22 H23 C24 H25 H26 C27 H28 H29 C30 C31 H32 H33 C34 C35 C36 
H37 H38 C39 H40 C41 H42 C43 H44 H45 C46 H47 H48 C49 H50 H51 H52 H53 H54 C55 C56 
H57 H58 H59 C60 H61 H62 H63 H64 S1  C2  C3  C4  C5  C6  S7  C8  C9  H10 C11 C12 
C13 C14 C15 H16 C17 C18 H19 H20 C21 H22 H23 C24 H25 H26 C27 H28 H29 C30 C31 H32 
H33 C34 C35 C36 H37 H38 C39 H40 C41 H42 C43 H44 H45 C46 H47 H48 C49 H50 H51 H52 
H53 H54 C55 C56 H57 H58 H59 C60 H61 H62 H63 H64 S1  C2  C3  C4  C5  C6  S7  C8  
C9  H10 C11 C12 C13 C14 C15 H16 C17 C18 H19 H20 C21 H22 H23 C24 H25 H26 C27 H28 
H29 C30 C31 H32 H33 C34 C35 C36 H37 H38 C39 H40 C41 H42 C43 H44 H45 C46 H47 H48 
C49 H50 H51 H52 H53 H54 C55 C56 H57 H58 H59 C60 H61 H62 H63 H64 S1  C2  C3  C4  
C5  C6  S7  C8  C9  H10 C11 C12 C13 C14 C15 H16 C17 C18 H19 H20 C21 H22 H23 C24 
H25 H26 C27 H28 H29 C30 C31 H32 H33 C34 C35 C36 H37 H38 C39 H40 C41 H42 C43 H44 
H45 C46 H47 H48 C49 H50 H51 H52 H53 H54 C55 C56 H57 H58 H59 C60 H61 H62 H63 H64 
S1  C2  C3  C4  C5  C6  S7  C8  C9  H10 C11 C12 C13 C14 C15 H16 C17 C18 H19 H20 
C21 H22 H23 C24 H25 H26 C27 H28 H29 C30 C31 H32 H33 C34 C35 C36 H37 H38 C39 H40 
C41 H42 C43 H44 H45 C46 H47 H48 C49 H50 H51 H52 H53 H54 C55 C56 H57 H58 H59 C60 
H61 H62 H63 H64 S1  C2  C3  C4  C5  C6  S7  C8  C9  H10 C11 C12 C13 C14 C15 H16 
C17 C18 H19 H20 C21 H22 H23 C24 H25 H26 C27 H28 H29 C30 C31 H32 H33 C34 C35 C36 
H37 H38 C39 H40 C41 H42 C43 H44 H45 C46 H47 H48 C49 H50 H51 H52 H53 H54 C55 C56 
H57 H58 H59 C60 H61 H62 H63 H64 S1  C2  C3  C4  C5  C6  S7  C8  C9  H10 C11 C12 
C13 C14 C15 H16 C17 C18 H19 H20 C21 H22 H23 C24 H25 H26 C27 H28 H29 C30 C31 H32 
H33 C34 C35 C36 H37 H38 C39 H40 C41 H42 C43 H44 H45 C46 H47 H48 C49 H50 H51 H52 
H53 H54 C55 C56 H57 H58 H59 C60 H61 H62 H63 H64 S1  C2  C3  C4  C5  C6  S7  C8  
C9  H10 C11 C12 C13 C14 C15 H16 C17 C18 H19 H20 C21 H22 H23 C24 H25 H26 C27 H28 
H29 C30 C31 H32 H33 C34 C35 C36 H37 H38 C39 H40 C41 H42 C43 H44 H45 C46 H47 H48 
C49 H50 H51 H52 H53 H54 C55 C56 H57 H58 H59 C60 H61 H62 H63 H64 S1  C2  C3  C4  
C5  C6  S7  C8  C9  H10 C11 C12 C13 C14 C15 H16 C17 C18 H19 H20 C21 H22 H23 C24 
H25 H26 C27 H28 H29 C30 C31 H32 H33 C34 C35 C36 H37 H38 C39 H40 C41 H42 C43 H44 
H45 C46 H47 H48 C49 H50 H51 H52 H53 H54 C55 C56 H57 H58 H59 C60 H61 H62 H63 H64 
S1  C2  C3  C4  C5  C6  S7  C8  C9  H10 C11 C12 C13 C14 C15 H16 C17 C18 H19 H20 
C21 H22 H23 C24 H25 H26 C27 H28 H29 C30 C31 H32 H33 C34 C35 C36 H37 H38 C39 H40 
C41 H42 C43 H44 H45 C46 H47 H48 C49 H50 H51 H52 H53 H54 C55 C56 H57 H58 H59 C60 
H61 H62 H63 H64 S1  C2  C3  C4  C5  C6  S7  C8  C9  H10 C11 C12 C13 C14 C15 H16 
C17 C18 H19 H20 C21 H22 H23 C24 H25 H26 C27 H28 H29 C30 C31 H32 H33 C34 C35 C36 
H37 H38 C39 H40 C41 H42 C43 H44 H45 C46 H47 H48 C49 H50 H51 H52 H53 H54 C55 C56 
H57 H58 H59 C60 H61 H62 H63 H64 S1  C2  C3  C4  C5  C6  S7  C8  C9  H10 C11 C12 
C13 C14 C15 H16 C17 C18 H19 H20 C21 H22 H23 C24 H25 H26 C27 H28 H29 C30 C31 H32 
H33 C34 C35 C36 H37 H38 C39 H40 C41 H42 C43 H44 H45 C46 H47 H48 C49 H50 H51 H52 
H53 H54 C55 C56 H57 H58 H59 C60 H61 H62 H63 H64 S1  C2  C3  C4  C5  C6  S7  C8  
C9  H10 C11 C12 C13 C14 C15 H16 C17 C18 H19 H20 C21 H22 H23 C24 H25 H26 C27 H28 
H29 C30 C31 H32 H33 C34 C35 C36 H37 H38 C39 H40 C41 H42 C43 H44 H45 C46 H47 H48 
C49 H50 H51 H52 H53 H54 C55 C56 H57 H58 H59 C60 H61 H62 H63 H64 S1  C2  C3  C4  
C5  C6  S7  C8  C9  H10 C11 C12 C13 C14 C15 H16 C17 C18 H19 H20 C21 H22 H23 C24 
H25 H26 C27 H28 H29 C30 C31 H32 H33 C34 C35 C36 H37 H38 C39 H40 C41 H42 C43 H44 
H45 C46 H47 H48 C49 H50 H51 H52 H53 H54 C55 C56 H57 H58 H59 C60 H61 H62 H63 H64 
S1  C2  C3  C4  C5  C6  S7  C8  C9  H10 C11 C12 C13 C14 C15 H16 C17 C18 H19 H20 
C21 H22 H23 C24 H25 H26 C27 H28 H29 C30 C31 H32 H33 C34 C35 C36 H37 H38 C39 H40 
C41 H42 C43 H44 H45 C46 H47 H48 C49 H50 H51 H52 H53 H54 C55 C56 H57 H58 H59 C60 
H61 H62 H63 H64 S1  C2  C3  C4  C5  C6  S7  C8  C9  H10 C11 C12 C13 C14 C15 H16 
C17 C18 H19 H20 C21 H22 H23 C24 H25 H26 C27 H28 H29 C30 C31 H32 H33 C34 C35 C36 
H37 H38 C39 H40 C41 H42 C43 H44 H45 C46 H47 H48 C49 H50 H51 H52 H53 H54 C55 C56 
H57 H58 H59 C60 H61 H62 H63 H64 S1  C2  C3  C4  C5  C6  S7  C8  C9  H10 C11 C12 
C13 C14 C15 H16 C17 C18 H19 H20 C21 H22 H23 C24 H25 H26 C27 H28 H29 C30 C31 H32 
H33 C34 C35 C36 H37 H38 C39 H40 C41 H42 C43 H44 H45 C46 H47 H48 C49 H50 H51 H52 
H53 H54 C55 C56 H57 H58 H59 C60 H61 H62 H63 H64 S1  C2  C3  C4  C5  C6  S7  C8  
C9  H10 C11 C12 C13 C14 C15 H16 C17 C18 H19 H20 C21 H22 H23 C24 H25 H26 C27 H28 
H29 C30 C31 H32 H33 C34 C35 C36 H37 H38 C39 H40 C41 H42 C43 H44 H45 C46 H47 H48 
C49 H50 H51 H52 H53 H54 C55 C56 H57 H58 H59 C60 H61 H62 H63 H64 S1  C2  C3  C4  
C5  C6  S7  C8  C9  H10 C11 C12 C13 C14 C15 H16 C17 C18 H19 H20 C21 H22 H23 C24 
H25 H26 C27 H28 H29 C30 C31 H32 H33 C34 C35 C36 H37 H38 C39 H40 C41 H42 C43 H44 
H45 C46 H47 H48 C49 H50 H51 H52 H53 H54 C55 C56 H57 H58 H59 C60 H61 H62 H63 H64 
S1  C2  C3  C4  C5  C6  S7  C8  C9  H10 C11 C12 C13 C14 C15 H16 C17 C18 H19 H20 
C21 H22 H23 C24 H25 H26 C27 H28 H29 C30 C31 H32 H33 C34 C35 C36 H37 H38 C39 H40 
C41 H42 C43 H44 H45 C46 H47 H48 C49 H50 H51 H52 H53 H54 C55 C56 H57 H58 H59 C60 
H61 H62 H63 H64 S1  C2  C3  C4  C5  C6  S7  C8  C9  H10 C11 C12 C13 C14 C15 H16 
C17 C18 H19 H20 C21 H22 H23 C24 H25 H26 C27 H28 H29 C30 C31 H32 H33 C34 C35 C36 
H37 H38 C39 H40 C41 H42 C43 H44 H45 C46 H47 H48 C49 H50 H51 H52 H53 H54 C55 C56 
H57 H58 H59 C60 H61 H62 H63 H64 S1  C2  C3  C4  C5  C6  S7  C8  C9  H10 C11 C12 
C13 C14 C15 H16 C17 C18 H19 H20 C21 H22 H23 C24 H25 H26 C27 H28 H29 C30 C31 H32 
H33 C34 C35 C36 H37 H38 C39 H40 C41 H42 C43 H44 H45 C46 H47 H48 C49 H50 H51 H52 
H53 H54 C55 C56 H57 H58 H59 C60 H61 H62 H63 H64 S1  C2  C3  C4  C5  C6  S7  C8  
C9  H10 C11 C12 C13 C14 C15 H16 C17 C18 H19 H20 C21 H22 H23 C24 H25 H26 C27 H28 
H29 C30 C31 H32 H33 C34 C35 C36 H37 H38 C39 H40 C41 H42 C43 H44 H45 C46 H47 H48 
C49 H50 H51 H52 H53 H54 C55 C56 H57 H58 H59 C60 H61 H62 H63 H64 S1  C2  C3  C4  
C5  C6  S7  C8  C9  H10 C11 C12 C13 C14 C15 H16 C17 C18 H19 H20 C21 H22 H23 C24 
H25 H26 C27 H28 H29 C30 C31 H32 H33 C34 C35 C36 H37 H38 C39 H40 C41 H42 C43 H44 
H45 C46 H47 H48 C49 H50 H51 H52 H53 H54 C55 C56 H57 H58 H59 C60 H61 H62 H63 H64 
S1  C2  C3  C4  C5  C6  S7  C8  C9  H10 C11 C12 C13 C14 C15 H16 C17 C18 H19 H20 
C21 H22 H23 C24 H25 H26 C27 H28 H29 C30 C31 H32 H33 C34 C35 C36 H37 H38 C39 H40 
C41 H42 C43 H44 H45 C46 H47 H48 C49 H50 H51 H52 H53 H54 C55 C56 H57 H58 H59 C60 
H61 H62 H63 H64 S1  C2  C3  C4  C5  C6  S7  C8  C9  H10 C11 C12 C13 C14 C15 H16 
C17 C18 H19 H20 C21 H22 H23 C24 H25 H26 C27 H28 H29 C30 C31 H32 H33 C34 C35 C36 
H37 H38 C39 H40 C41 H42 C43 H44 H45 C46 H47 H48 C49 H50 H51 H52 H53 H54 C55 C56 
H57 H58 H59 C60 H61 H62 H63 H64 S1  C2  C3  C4  C5  C6  S7  C8  C9  H10 C11 C12 
C13 C14 C15 H16 C17 C18 H19 H20 C21 H22 H23 C24 H25 H26 C27 H28 H29 C30 C31 H32 
H33 C34 C35 C36 H37 H38 C39 H40 C41 H42 C43 H44 H45 C46 H47 H48 C49 H50 H51 H52 
H53 H54 C55 C56 H57 H58 H59 C60 H61 H62 H63 H64 S1  C2  C3  C4  C5  C6  S7  C8  
C9  H10 C11 C12 C13 C14 C15 H16 C17 C18 H19 H20 C21 H22 H23 C24 H25 H26 C27 H28 
H29 C30 C31 H32 H33 C34 C35 C36 H37 H38 C39 H40 C41 H42 C43 H44 H45 C46 H47 H48 
C49 H50 H51 H52 H53 H54 C55 C56 H57 H58 H59 C60 H61 H62 H63 H64 S1  C2  C3  C4  
C5  C6  S7  C8  C9  H10 C11 C12 C13 C14 C15 H16 C17 C18 H19 H20 C21 H22 H23 C24 
H25 H26 C27 H28 H29 C30 C31 H32 H33 C34 C35 C36 H37 H38 C39 H40 C41 H42 C43 H44 
H45 C46 H47 H48 C49 H50 H51 H52 H53 H54 C55 C56 H57 H58 H59 C60 H61 H62 H63 H64 
S1  C2  C3  C4  C5  C6  S7  C8  C9  H10 C11 C12 C13 C14 C15 H16 C17 C18 H19 H20 
C21 H22 H23 C24 H25 H26 C27 H28 H29 C30 C31 H32 H33 C34 C35 C36 H37 H38 C39 H40 
C41 H42 C43 H44 H45 C46 H47 H48 C49 H50 H51 H52 H53 H54 C55 C56 H57 H58 H59 C60 
H61 H62 H63 H64 S1  C2  C3  C4  C5  C6  S7  C8  C9  H10 C11 C12 C13 C14 C15 H16 
C17 C18 H19 H20 C21 H22 H23 C24 H25 H26 C27 H28 H29 C30 C31 H32 H33 C34 C35 C36 
H37 H38 C39 H40 C41 H42 C43 H44 H45 C46 H47 H48 C49 H50 H51 H52 H53 H54 C55 C56 
H57 H58 H59 C60 H61 H62 H63 H64 S1  C2  C3  C4  C5  C6  S7  C8  C9  H10 C11 C12 
C13 C14 C15 H16 C17 C18 H19 H20 C21 H22 H23 C24 H25 H26 C27 H28 H29 C30 C31 H32 
H33 C34 C35 C36 H37 H38 C39 H40 C41 H42 C43 H44 H45 C46 H47 H48 C49 H50 H51 H52 
H53 H54 C55 C56 H57 H58 H59 C60 H61 H62 H63 H64 S1  C2  C3  C4  C5  C6  S7  C8  
C9  H10 C11 C12 C13 C14 C15 H16 C17 C18 H19 H20 C21 H22 H23 C24 H25 H26 C27 H28 
H29 C30 C31 H32 H33 C34 C35 C36 H37 H38 C39 H40 C41 H42 C43 H44 H45 C46 H47 H48 
C49 H50 H51 H52 H53 H54 C55 C56 H57 H58 H59 C60 H61 H62 H63 H64 S1  C2  C3  C4  
C5  C6  S7  C8  C9  H10 C11 C12 C13 C14 C15 H16 C17 C18 H19 H20 C21 H22 H23 C24 
H25 H26 C27 H28 H29 C30 C31 H32 H33 C34 C35 C36 H37 H38 C39 H40 C41 H42 C43 H44 
H45 C46 H47 H48 C49 H50 H51 H52 H53 H54 C55 C56 H57 H58 H59 C60 H61 H62 H63 H64 
S1  C2  C3  C4  C5  C6  S7  C8  C9  H10 C11 C12 C13 C14 C15 H16 C17 C18 H19 H20 
C21 H22 H23 C24 H25 H26 C27 H28 H29 C30 C31 H32 H33 C34 C35 C36 H37 H38 C39 H40 
C41 H42 C43 H44 H45 C46 H47 H48 C49 H50 H51 H52 H53 H54 C55 C56 H57 H58 H59 C60 
H61 H62 H63 H64 S1  C2  C3  C4  C5  C6  S7  C8  C9  H10 C11 C12 C13 C14 C15 H16 
C17 C18 H19 H20 C21 H22 H23 C24 H25 H26 C27 H28 H29 C30 C31 H32 H33 C34 C35 C36 
H37 H38 C39 H40 C41 H42 C43 H44 H45 C46 H47 H48 C49 H50 H51 H52 H53 H54 C55 C56 
H57 H58 H59 C60 H61 H62 H63 H64 S1  C2  C3  C4  C5  C6  S7  C8  C9  H10 C11 C12 
C13 C14 C15 H16 C17 C18 H19 H20 C21 H22 H23 C24 H25 H26 C27 H28 H29 C30 C31 H32 
H33 C34 C35 C36 H37 H38 C39 H40 C41 H42 C43 H44 H45 C46 H47 H48 C49 H50 H51 H52 
H53 H54 C55 C56 H57 H58 H59 C60 H61 H62 H63 H64 S1  C2  C3  C4  C5  C6  S7  C8  
C9  H10 C11 C12 C13 C14 C15 H16 C17 C18 H19 H20 C21 H22 H23 C24 H25 H26 C27 H28 
H29 C30 C31 H32 H33 C34 C35 C36 H37 H38 C39 H40 C41 H42 C43 H44 H45 C46 H47 H48 
C49 H50 H51 H52 H53 H54 C55 C56 H57 H58 H59 C60 H61 H62 H63 H64 S1  C2  C3  C4  
C5  C6  S7  C8  C9  H10 C11 C12 C13 C14 C15 H16 C17 C18 H19 H20 C21 H22 H23 C24 
H25 H26 C27 H28 H29 C30 C31 H32 H33 C34 C35 C36 H37 H38 C39 H40 C41 H42 C43 H44 
H45 C46 H47 H48 C49 H50 H51 H52 H53 H54 C55 C56 H57 H58 H59 C60 H61 H62 H63 H64 
S1  C2  C3  C4  C5  C6  S7  C8  C9  H10 C11 C12 C13 C14 C15 H16 C17 C18 H19 H20 
C21 H22 H23 C24 H25 H26 C27 H28 H29 C30 C31 H32 H33 C34 C35 C36 H37 H38 C39 H40 
C41 H42 C43 H44 H45 C46 H47 H48 C49 H50 H51 H52 H53 H54 C55 C56 H57 H58 H59 C60 
H61 H62 H63 H64 S1  C2  C3  C4  C5  C6  S7  C8  C9  H10 C11 C12 C13 C14 C15 H16 
C17 C18 H19 H20 C21 H22 H23 C24 H25 H26 C27 H28 H29 C30 C31 H32 H33 C34 C35 C36 
H37 H38 C39 H40 C41 H42 C43 H44 H45 C46 H47 H48 C49 H50 H51 H52 H53 H54 C55 C56 
H57 H58 H59 C60 H61 H62 H63 H64 S1  C2  C3  C4  C5  C6  S7  C8  C9  H10 C11 C12 
C13 C14 C15 H16 C17 C18 H19 H20 C21 H22 H23 C24 H25 H26 C27 H28 H29 C30 C31 H32 
H33 C34 C35 C36 H37 H38 C39 H40 C41 H42 C43 H44 H45 C46 H47 H48 C49 H50 H51 H52 
H53 H54 C55 C56 H57 H58 H59 C60 H61 H62 H63 H64 S1  C2  C3  C4  C5  C6  S7  C8  
C9  H10 C11 C12 C13 C14 C15 H16 C17 C18 H19 H20 C21 H22 H23 C24 H25 H26 C27 H28 
H29 C30 C31 H32 H33 C34 C35 C36 H37 H38 C39 H40 C41 H42 C43 H44 H45 C46 H47 H48 
C49 H50 H51 H52 H53 H54 C55 C56 H57 H58 H59 C60 H61 H62 H63 H64 S1  C2  C3  C4  
C5  C6  S7  C8  C9  H10 C11 C12 C13 C14 C15 H16 C17 C18 H19 H20 C21 H22 H23 C24 
H25 H26 C27 H28 H29 C30 C31 H32 H33 C34 C35 C36 H37 H38 C39 H40 C41 H42 C43 H44 
H45 C46 H47 H48 C49 H50 H51 H52 H53 H54 C55 C56 H57 H58 H59 C60 H61 H62 H63 H64 
S1  C2  C3  C4  C5  C6  S7  C8  C9  H10 C11 C12 C13 C14 C15 H16 C17 C18 H19 H20 
C21 H22 H23 C24 H25 H26 C27 H28 H29 C30 C31 H32 H33 C34 C35 C36 H37 H38 C39 H40 
C41 H42 C43 H44 H45 C46 H47 H48 C49 H50 H51 H52 H53 H54 C55 C56 H57 H58 H59 C60 
H61 H62 H63 H64 S1  C2  C3  C4  C5  C6  S7  C8  C9  H10 C11 C12 C13 C14 C15 H16 
C17 C18 H19 H20 C21 H22 H23 C24 H25 H26 C27 H28 H29 C30 C31 H32 H33 C34 C35 C36 
H37 H38 C39 H40 C41 H42 C43 H44 H45 C46 H47 H48 C49 H50 H51 H52 H53 H54 C55 C56 
H57 H58 H59 C60 H61 H62 H63 H64 S1  C2  C3  C4  C5  C6  S7  C8  C9  H10 C11 C12 
C13 C14 C15 H16 C17 C18 H19 H20 C21 H22 H23 C24 H25 H26 C27 H28 H29 C30 C31 H32 
H33 C34 C35 C36 H37 H38 C39 H40 C41 H42 C43 H44 H45 C46 H47 H48 C49 H50 H51 H52 
H53 H54 C55 C56 H57 H58 H59 C60 H61 H62 H63 H64 S1  C2  C3  C4  C5  C6  S7  C8  
C9  H10 C11 C12 C13 C14 C15 H16 C17 C18 H19 H20 C21 H22 H23 C24 H25 H26 C27 H28 
H29 C30 C31 H32 H33 C34 C35 C36 H37 H38 C39 H40 C41 H42 C43 H44 H45 C46 H47 H48 
C49 H50 H51 H52 H53 H54 C55 C56 H57 H58 H59 C60 H61 H62 H63 H64 S1  C2  C3  C4  
C5  C6  S7  C8  C9  H10 C11 C12 C13 C14 C15 H16 C17 C18 H19 H20 C21 H22 H23 C24 
H25 H26 C27 H28 H29 C30 C31 H32 H33 C34 C35 C36 H37 H38 C39 H40 C41 H42 C43 H44 
H45 C46 H47 H48 C49 H50 H51 H52 H53 H54 C55 C56 H57 H58 H59 C60 H61 H62 H63 H64 
S1  C2  C3  C4  C5  C6  S7  C8  C9  H10 C11 C12 C13 C14 C15 H16 C17 C18 H19 H20 
C21 H22 H23 C24 H25 H26 C27 H28 H29 C30 C31 H32 H33 C34 C35 C36 H37 H38 C39 H40 
C41 H42 C43 H44 H45 C46 H47 H48 C49 H50 H51 H52 H53 H54 C55 C56 H57 H58 H59 C60 
H61 H62 H63 H64 S1  C2  C3  C4  C5  C6  S7  C8  C9  H10 C11 C12 C13 C14 C15 H16 
C17 C18 H19 H20 C21 H22 H23 C24 H25 H26 C27 H28 H29 C30 C31 H32 H33 C34 C35 C36 
H37 H38 C39 H40 C41 H42 C43 H44 H45 C46 H47 H48 C49 H50 H51 H52 H53 H54 C55 C56 
H57 H58 H59 C60 H61 H62 H63 H64 S1  C2  C3  C4  C5  C6  S7  C8  C9  H10 C11 C12 
C13 C14 C15 H16 C17 C18 H19 H20 C21 H22 H23 C24 H25 H26 C27 H28 H29 C30 C31 H32 
H33 C34 C35 C36 H37 H38 C39 H40 C41 H42 C43 H44 H45 C46 H47 H48 C49 H50 H51 H52 
H53 H54 C55 C56 H57 H58 H59 C60 H61 H62 H63 H64 S1  C2  C3  C4  C5  C6  S7  C8  
C9  H10 C11 C12 C13 C14 C15 H16 C17 C18 H19 H20 C21 H22 H23 C24 H25 H26 C27 H28 
H29 C30 C31 H32 H33 C34 C35 C36 H37 H38 C39 H40 C41 H42 C43 H44 H45 C46 H47 H48 
C49 H50 H51 H52 H53 H54 C55 C56 H57 H58 H59 C60 H61 H62 H63 H64 S1  C2  C3  C4  
C5  C6  S7  C8  C9  H10 C11 C12 C13 C14 C15 H16 C17 C18 H19 H20 C21 H22 H23 C24 
H25 H26 C27 H28 H29 C30 C31 H32 H33 C34 C35 C36 H37 H38 C39 H40 C41 H42 C43 H44 
H45 C46 H47 H48 C49 H50 H51 H52 H53 H54 C55 C56 H57 H58 H59 C60 H61 H62 H63 H64 
S1  C2  C3  C4  C5  C6  S7  C8  C9  H10 C11 C12 C13 C14 C15 H16 C17 C18 H19 H20 
C21 H22 H23 C24 H25 H26 C27 H28 H29 C30 C31 H32 H33 C34 C35 C36 H37 H38 C39 H40 
C41 H42 C43 H44 H45 C46 H47 H48 C49 H50 H51 H52 H53 H54 C55 C56 H57 H58 H59 C60 
H61 H62 H63 H64 S1  C2  C3  C4  C5  C6  S7  C8  C9  H10 C11 C12 C13 C14 C15 H16 
C17 C18 H19 H20 C21 H22 H23 C24 H25 H26 C27 H28 H29 C30 C31 H32 H33 C34 C35 C36 
H37 H38 C39 H40 C41 H42 C43 H44 H45 C46 H47 H48 C49 H50 H51 H52 H53 H54 C55 C56 
H57 H58 H59 C60 H61 H62 H63 H64 S1  C2  C3  C4  C5  C6  S7  C8  C9  H10 C11 C12 
C13 C14 C15 H16 C17 C18 H19 H20 C21 H22 H23 C24 H25 H26 C27 H28 H29 C30 C31 H32 
H33 C34 C35 C36 H37 H38 C39 H40 C41 H42 C43 H44 H45 C46 H47 H48 C49 H50 H51 H52 
H53 H54 C55 C56 H57 H58 H59 C60 H61 H62 H63 H64 S1  C2  C3  C4  C5  C6  S7  C8  
C9  H10 C11 C12 C13 C14 C15 H16 C17 C18 H19 H20 C21 H22 H23 C24 H25 H26 C27 H28 
H29 C30 C31 H32 H33 C34 C35 C36 H37 H38 C39 H40 C41 H42 C43 H44 H45 C46 H47 H48 
C49 H50 H51 H52 H53 H54 C55 C56 H57 H58 H59 C60 H61 H62 H63 H64 S1  C2  C3  C4  
C5  C6  S7  C8  C9  H10 C11 C12 C13 C14 C15 H16 C17 C18 H19 H20 C21 H22 H23 C24 
H25 H26 C27 H28 H29 C30 C31 H32 H33 C34 C35 C36 H37 H38 C39 H40 C41 H42 C43 H44 
H45 C46 H47 H48 C49 H50 H51 H52 H53 H54 C55 C56 H57 H58 H59 C60 H61 H62 H63 H64 
S1  C2  C3  C4  C5  C6  S7  C8  C9  H10 C11 C12 C13 C14 C15 H16 C17 C18 H19 H20 
C21 H22 H23 C24 H25 H26 C27 H28 H29 C30 C31 H32 H33 C34 C35 C36 H37 H38 C39 H40 
C41 H42 C43 H44 H45 C46 H47 H48 C49 H50 H51 H52 H53 H54 C55 C56 H57 H58 H59 C60 
H61 H62 H63 H64 S1  C2  C3  C4  C5  C6  S7  C8  C9  H10 C11 C12 C13 C14 C15 H16 
C17 C18 H19 H20 C21 H22 H23 C24 H25 H26 C27 H28 H29 C30 C31 H32 H33 C34 C35 C36 
H37 H38 C39 H40 C41 H42 C43 H44 H45 C46 H47 H48 C49 H50 H51 H52 H53 H54 C55 C56 
H57 H58 H59 C60 H61 H62 H63 H64 S1  C2  C3  C4  C5  C6  S7  C8  C9  H10 C11 C12 
C13 C14 C15 H16 C17 C18 H19 H20 C21 H22 H23 C24 H25 H26 C27 H28 H29 C30 C31 H32 
H33 C34 C35 C36 H37 H38 C39 H40 C41 H42 C43 H44 H45 C46 H47 H48 C49 H50 H51 H52 
H53 H54 C55 C56 H57 H58 H59 C60 H61 H62 H63 H64 S1  C2  C3  C4  C5  C6  S7  C8  
C9  H10 C11 C12 C13 C14 C15 H16 C17 C18 H19 H20 C21 H22 H23 C24 H25 H26 C27 H28 
H29 C30 C31 H32 H33 C34 C35 C36 H37 H38 C39 H40 C41 H42 C43 H44 H45 C46 H47 H48 
C49 H50 H51 H52 H53 H54 C55 C56 H57 H58 H59 C60 H61 H62 H63 H64 S1  C2  C3  C4  
C5  C6  S7  C8  C9  H10 C11 C12 C13 C14 C15 H16 C17 C18 H19 H20 C21 H22 H23 C24 
H25 H26 C27 H28 H29 C30 C31 H32 H33 C34 C35 C36 H37 H38 C39 H40 C41 H42 C43 H44 
H45 C46 H47 H48 C49 H50 H51 H52 H53 H54 C55 C56 H57 H58 H59 C60 H61 H62 H63 H64 
S1  C2  C3  C4  C5  C6  S7  C8  C9  H10 C11 C12 C13 C14 C15 H16 C17 C18 H19 H20 
C21 H22 H23 C24 H25 H26 C27 H28 H29 C30 C31 H32 H33 C34 C35 C36 H37 H38 C39 H40 
C41 H42 C43 H44 H45 C46 H47 H48 C49 H50 H51 H52 H53 H54 C55 C56 H57 H58 H59 C60 
H61 H62 H63 H64 S1  C2  C3  C4  C5  C6  S7  C8  C9  H10 C11 C12 C13 C14 C15 H16 
C17 C18 H19 H20 C21 H22 H23 C24 H25 H26 C27 H28 H29 C30 C31 H32 H33 C34 C35 C36 
H37 H38 C39 H40 C41 H42 C43 H44 H45 C46 H47 H48 C49 H50 H51 H52 H53 H54 C55 C56 
H57 H58 H59 C60 H61 H62 H63 H64 S1  C2  C3  C4  C5  C6  S7  C8  C9  H10 C11 C12 
C13 C14 C15 H16 C17 C18 H19 H20 C21 H22 H23 C24 H25 H26 C27 H28 H29 C30 C31 H32 
H33 C34 C35 C36 H37 H38 C39 H40 C41 H42 C43 H44 H45 C46 H47 H48 C49 H50 H51 H52 
H53 H54 C55 C56 H57 H58 H59 C60 H61 H62 H63 H64 S1  C2  C3  C4  C5  C6  S7  C8  
C9  H10 C11 C12 C13 C14 C15 H16 C17 C18 H19 H20 C21 H22 H23 C24 H25 H26 C27 H28 
H29 C30 C31 H32 H33 C34 C35 C36 H37 H38 C39 H40 C41 H42 C43 H44 H45 C46 H47 H48 
C49 H50 H51 H52 H53 H54 C55 C56 H57 H58 H59 C60 H61 H62 H63 H64 S1  C2  C3  C4  
C5  C6  S7  C8  C9  H10 C11 C12 C13 C14 C15 H16 C17 C18 H19 H20 C21 H22 H23 C24 
H25 H26 C27 H28 H29 C30 C31 H32 H33 C34 C35 C36 H37 H38 C39 H40 C41 H42 C43 H44 
H45 C46 H47 H48 C49 H50 H51 H52 H53 H54 C55 C56 H57 H58 H59 C60 H61 H62 H63 H64 
S1  C2  C3  C4  C5  C6  S7  C8  C9  H10 C11 C12 C13 C14 C15 H16 C17 C18 H19 H20 
C21 H22 H23 C24 H25 H26 C27 H28 H29 C30 C31 H32 H33 C34 C35 C36 H37 H38 C39 H40 
C41 H42 C43 H44 H45 C46 H47 H48 C49 H50 H51 H52 H53 H54 C55 C56 H57 H58 H59 C60 
H61 H62 H63 H64 S1  C2  C3  C4  C5  C6  S7  C8  C9  H10 C11 C12 C13 C14 C15 H16 
C17 C18 H19 H20 C21 H22 H23 C24 H25 H26 C27 H28 H29 C30 C31 H32 H33 C34 C35 C36 
H37 H38 C39 H40 C41 H42 C43 H44 H45 C46 H47 H48 C49 H50 H51 H52 H53 H54 C55 C56 
H57 H58 H59 C60 H61 H62 H63 H64 S1  C2  C3  C4  C5  C6  S7  C8  C9  H10 C11 C12 
C13 C14 C15 H16 C17 C18 H19 H20 C21 H22 H23 C24 H25 H26 C27 H28 H29 C30 C31 H32 
H33 C34 C35 C36 H37 H38 C39 H40 C41 H42 C43 H44 H45 C46 H47 H48 C49 H50 H51 H52 
H53 H54 C55 C56 H57 H58 H59 C60 H61 H62 H63 H64 S1  C2  C3  C4  C5  C6  S7  C8  
C9  H10 C11 C12 C13 C14 C15 H16 C17 C18 H19 H20 C21 H22 H23 C24 H25 H26 C27 H28 
H29 C30 C31 H32 H33 C34 C35 C36 H37 H38 C39 H40 C41 H42 C43 H44 H45 C46 H47 H48 
C49 H50 H51 H52 H53 H54 C55 C56 H57 H58 H59 C60 H61 H62 H63 H64 S1  C2  C3  C4  
C5  C6  S7  C8  C9  H10 C11 C12 C13 C14 C15 H16 C17 C18 H19 H20 C21 H22 H23 C24 
H25 H26 C27 H28 H29 C30 C31 H32 H33 C34 C35 C36 H37 H38 C39 H40 C41 H42 C43 H44 
H45 C46 H47 H48 C49 H50 H51 H52 H53 H54 C55 C56 H57 H58 H59 C60 H61 H62 H63 H64 
S1  C2  C3  C4  C5  C6  S7  C8  C9  H10 C11 C12 C13 C14 C15 H16 C17 C18 H19 H20 
C21 H22 H23 C24 H25 H26 C27 H28 H29 C30 C31 H32 H33 C34 C35 C36 H37 H38 C39 H40 
C41 H42 C43 H44 H45 C46 H47 H48 C49 H50 H51 H52 H53 H54 C55 C56 H57 H58 H59 C60 
H61 H62 H63 H64 S1  C2  C3  C4  C5  C6  S7  C8  C9  H10 C11 C12 C13 C14 C15 H16 
C17 C18 H19 H20 C21 H22 H23 C24 H25 H26 C27 H28 H29 C30 C31 H32 H33 C34 C35 C36 
H37 H38 C39 H40 C41 H42 C43 H44 H45 C46 H47 H48 C49 H50 H51 H52 H53 H54 C55 C56 
H57 H58 H59 C60 H61 H62 H63 H64 S1  C2  C3  C4  C5  C6  S7  C8  C9  H10 C11 C12 
C13 C14 C15 H16 C17 C18 H19 H20 C21 H22 H23 C24 H25 H26 C27 H28 H29 C30 C31 H32 
H33 C34 C35 C36 H37 H38 C39 H40 C41 H42 C43 H44 H45 C46 H47 H48 C49 H50 H51 H52 
H53 H54 C55 C56 H57 H58 H59 C60 H61 H62 H63 H64 S1  C2  C3  C4  C5  C6  S7  C8  
C9  H10 C11 C12 C13 C14 C15 H16 C17 C18 H19 H20 C21 H22 H23 C24 H25 H26 C27 H28 
H29 C30 C31 H32 H33 C34 C35 C36 H37 H38 C39 H40 C41 H42 C43 H44 H45 C46 H47 H48 
C49 H50 H51 H52 H53 H54 C55 C56 H57 H58 H59 C60 H61 H62 H63 H64 S1  C2  C3  C4  
C5  C6  S7  C8  C9  H10 C11 C12 C13 C14 C15 H16 C17 C18 H19 H20 C21 H22 H23 C24 
H25 H26 C27 H28 H29 C30 C31 H32 H33 C34 C35 C36 H37 H38 C39 H40 C41 H42 C43 H44 
H45 C46 H47 H48 C49 H50 H51 H52 H53 H54 C55 C56 H57 H58 H59 C60 H61 H62 H63 H64 
S1  C2  C3  C4  C5  C6  S7  C8  C9  H10 C11 C12 C13 C14 C15 H16 C17 C18 H19 H20 
C21 H22 H23 C24 H25 H26 C27 H28 H29 C30 C31 H32 H33 C34 C35 C36 H37 H38 C39 H40 
C41 H42 C43 H44 H45 C46 H47 H48 C49 H50 H51 H52 H53 H54 C55 C56 H57 H58 H59 C60 
H61 H62 H63 H64 S1  C2  C3  C4  C5  C6  S7  C8  C9  H10 C11 C12 C13 C14 C15 H16 
C17 C18 H19 H20 C21 H22 H23 C24 H25 H26 C27 H28 H29 C30 C31 H32 H33 C34 C35 C36 
H37 H38 C39 H40 C41 H42 C43 H44 H45 C46 H47 H48 C49 H50 H51 H52 H53 H54 C55 C56 
H57 H58 H59 C60 H61 H62 H63 H64 S1  C2  C3  C4  C5  C6  S7  C8  C9  H10 C11 C12 
C13 C14 C15 H16 C17 C18 H19 H20 C21 H22 H23 C24 H25 H26 C27 H28 H29 C30 C31 H32 
H33 C34 C35 C36 H37 H38 C39 H40 C41 H42 C43 H44 H45 C46 H47 H48 C49 H50 H51 H52 
H53 H54 C55 C56 H57 H58 H59 C60 H61 H62 H63 H64 S1  C2  C3  C4  C5  C6  S7  C8  
C9  H10 C11 C12 C13 C14 C15 H16 C17 C18 H19 H20 C21 H22 H23 C24 H25 H26 C27 H28 
H29 C30 C31 H32 H33 C34 C35 C36 H37 H38 C39 H40 C41 H42 C43 H44 H45 C46 H47 H48 
C49 H50 H51 H52 H53 H54 C55 C56 H57 H58 H59 C60 H61 H62 H63 H64 S1  C2  C3  C4  
C5  C6  S7  C8  C9  H10 C11 C12 C13 C14 C15 H16 C17 C18 H19 H20 C21 H22 H23 C24 
H25 H26 C27 H28 H29 C30 C31 H32 H33 C34 C35 C36 H37 H38 C39 H40 C41 H42 C43 H44 
H45 C46 H47 H48 C49 H50 H51 H52 H53 H54 C55 C56 H57 H58 H59 C60 H61 H62 H63 H64 
S1  C2  C3  C4  C5  C6  S7  C8  C9  H10 C11 C12 C13 C14 C15 H16 C17 C18 H19 H20 
C21 H22 H23 C24 H25 H26 C27 H28 H29 C30 C31 H32 H33 C34 C35 C36 H37 H38 C39 H40 
C41 H42 C43 H44 H45 C46 H47 H48 C49 H50 H51 H52 H53 H54 C55 C56 H57 H58 H59 C60 
H61 H62 H63 H64 S1  C2  C3  C4  C5  C6  S7  C8  C9  H10 C11 C12 C13 C14 C15 H16 
C17 C18 H19 H20 C21 H22 H23 C24 H25 H26 C27 H28 H29 C30 C31 H32 H33 C34 C35 C36 
H37 H38 C39 H40 C41 H42 C43 H44 H45 C46 H47 H48 C49 H50 H51 H52 H53 H54 C55 C56 
H57 H58 H59 C60 H61 H62 H63 H64 S1  C2  C3  C4  C5  C6  S7  C8  C9  H10 C11 C12 
C13 C14 C15 H16 C17 C18 H19 H20 C21 H22 H23 C24 H25 H26 C27 H28 H29 C30 C31 H32 
H33 C34 C35 C36 H37 H38 C39 H40 C41 H42 C43 H44 H45 C46 H47 H48 C49 H50 H51 H52 
H53 H54 C55 C56 H57 H58 H59 C60 H61 H62 H63 H64 S1  C2  C3  C4  C5  C6  S7  C8  
C9  H10 C11 C12 C13 C14 C15 H16 C17 C18 H19 H20 C21 H22 H23 C24 H25 H26 C27 H28 
H29 C30 C31 H32 H33 C34 C35 C36 H37 H38 C39 H40 C41 H42 C43 H44 H45 C46 H47 H48 
C49 H50 H51 H52 H53 H54 C55 C56 H57 H58 H59 C60 H61 H62 H63 H64 S1  C2  C3  C4  
C5  C6  S7  C8  C9  H10 C11 C12 C13 C14 C15 H16 C17 C18 H19 H20 C21 H22 H23 C24 
H25 H26 C27 H28 H29 C30 C31 H32 H33 C34 C35 C36 H37 H38 C39 H40 C41 H42 C43 H44 
H45 C46 H47 H48 C49 H50 H51 H52 H53 H54 C55 C56 H57 H58 H59 C60 H61 H62 H63 H64 
S1  C2  C3  C4  C5  C6  S7  C8  C9  H10 C11 C12 C13 C14 C15 H16 C17 C18 H19 H20 
C21 H22 H23 C24 H25 H26 C27 H28 H29 C30 C31 H32 H33 C34 C35 C36 H37 H38 C39 H40 
C41 H42 C43 H44 H45 C46 H47 H48 C49 H50 H51 H52 H53 H54 C55 C56 H57 H58 H59 C60 
H61 H62 H63 H64 S1  C2  C3  C4  C5  C6  S7  C8  C9  H10 C11 C12 C13 C14 C15 H16 
C17 C18 H19 H20 C21 H22 H23 C24 H25 H26 C27 H28 H29 C30 C31 H32 H33 C34 C35 C36 
H37 H38 C39 H40 C41 H42 C43 H44 H45 C46 H47 H48 C49 H50 H51 H52 H53 H54 C55 C56 
H57 H58 H59 C60 H61 H62 H63 H64 S1  C2  C3  C4  C5  C6  S7  C8  C9  H10 C11 C12 
C13 C14 C15 H16 C17 C18 H19 H20 C21 H22 H23 C24 H25 H26 C27 H28 H29 C30 C31 H32 
H33 C34 C35 C36 H37 H38 C39 H40 C41 H42 C43 H44 H45 C46 H47 H48 C49 H50 H51 H52 
H53 H54 C55 C56 H57 H58 H59 C60 H61 H62 H63 H64 S1  C2  C3  C4  C5  C6  S7  C8  
C9  H10 C11 C12 C13 C14 C15 H16 C17 C18 H19 H20 C21 H22 H23 C24 H25 H26 C27 H28 
H29 C30 C31 H32 H33 C34 C35 C36 H37 H38 C39 H40 C41 H42 C43 H44 H45 C46 H47 H48 
C49 H50 H51 H52 H53 H54 C55 C56 H57 H58 H59 C60 H61 H62 H63 H64 S1  C2  C3  C4  
C5  C6  S7  C8  C9  H10 C11 C12 C13 C14 C15 H16 C17 C18 H19 H20 C21 H22 H23 C24 
H25 H26 C27 H28 H29 C30 C31 H32 H33 C34 C35 C36 H37 H38 C39 H40 C41 H42 C43 H44 
H45 C46 H47 H48 C49 H50 H51 H52 H53 H54 C55 C56 H57 H58 H59 C60 H61 H62 H63 H64 
S1  C2  C3  C4  C5  C6  S7  C8  C9  H10 C11 C12 C13 C14 C15 H16 C17 C18 H19 H20 
C21 H22 H23 C24 H25 H26 C27 H28 H29 C30 C31 H32 H33 C34 C35 C36 H37 H38 C39 H40 
C41 H42 C43 H44 H45 C46 H47 H48 C49 H50 H51 H52 H53 H54 C55 C56 H57 H58 H59 C60 
H61 H62 H63 H64 S1  C2  C3  C4  C5  C6  S7  C8  C9  H10 C11 C12 C13 C14 C15 H16 
C17 C18 H19 H20 C21 H22 H23 C24 H25 H26 C27 H28 H29 C30 C31 H32 H33 C34 C35 C36 
H37 H38 C39 H40 C41 H42 C43 H44 H45 C46 H47 H48 C49 H50 H51 H52 H53 H54 C55 C56 
H57 H58 H59 C60 H61 H62 H63 H64 S1  C2  C3  C4  C5  C6  S7  C8  C9  H10 C11 C12 
C13 C14 C15 H16 C17 C18 H19 H20 C21 H22 H23 C24 H25 H26 C27 H28 H29 C30 C31 H32 
H33 C34 C35 C36 H37 H38 C39 H40 C41 H42 C43 H44 H45 C46 H47 H48 C49 H50 H51 H52 
H53 H54 C55 C56 H57 H58 H59 C60 H61 H62 H63 H64 S1  C2  C3  C4  C5  C6  S7  C8  
C9  H10 C11 C12 C13 C14 C15 H16 C17 C18 H19 H20 C21 H22 H23 C24 H25 H26 C27 H28 
H29 C30 C31 H32 H33 C34 C35 C36 H37 H38 C39 H40 C41 H42 C43 H44 H45 C46 H47 H48 
C49 H50 H51 H52 H53 H54 C55 C56 H57 H58 H59 C60 H61 H62 H63 H64 S1  C2  C3  C4  
C5  C6  S7  C8  C9  H10 C11 C12 C13 C14 C15 H16 C17 C18 H19 H20 C21 H22 H23 C24 
H25 H26 C27 H28 H29 C30 C31 H32 H33 C34 C35 C36 H37 H38 C39 H40 C41 H42 C43 H44 
H45 C46 H47 H48 C49 H50 H51 H52 H53 H54 C55 C56 H57 H58 H59 C60 H61 H62 H63 H64 
S1  C2  C3  C4  C5  C6  S7  C8  C9  H10 C11 C12 C13 C14 C15 H16 C17 C18 H19 H20 
C21 H22 H23 C24 H25 H26 C27 H28 H29 C30 C31 H32 H33 C34 C35 C36 H37 H38 C39 H40 
C41 H42 C43 H44 H45 C46 H47 H48 C49 H50 H51 H52 H53 H54 C55 C56 H57 H58 H59 C60 
H61 H62 H63 H64 S1  C2  C3  C4  C5  C6  S7  C8  C9  H10 C11 C12 C13 C14 C15 H16 
C17 C18 H19 H20 C21 H22 H23 C24 H25 H26 C27 H28 H29 C30 C31 H32 H33 C34 C35 C36 
H37 H38 C39 H40 C41 H42 C43 H44 H45 C46 H47 H48 C49 H50 H51 H52 H53 H54 C55 C56 
H57 H58 H59 C60 H61 H62 H63 H64 S1  C2  C3  C4  C5  C6  S7  C8  C9  H10 C11 C12 
C13 C14 C15 H16 C17 C18 H19 H20 C21 H22 H23 C24 H25 H26 C27 H28 H29 C30 C31 H32 
H33 C34 C35 C36 H37 H38 C39 H40 C41 H42 C43 H44 H45 C46 H47 H48 C49 H50 H51 H52 
H53 H54 C55 C56 H57 H58 H59 C60 H61 H62 H63 H64 S1  C2  C3  C4  C5  C6  S7  C8  
C9  H10 C11 C12 C13 C14 C15 H16 C17 C18 H19 H20 C21 H22 H23 C24 H25 H26 C27 H28 
H29 C30 C31 H32 H33 C34 C35 C36 H37 H38 C39 H40 C41 H42 C43 H44 H45 C46 H47 H48 
C49 H50 H51 H52 H53 H54 C55 C56 H57 H58 H59 C60 H61 H62 H63 H64 S1  C2  C3  C4  
C5  C6  S7  C8  C9  H10 C11 C12 C13 C14 C15 H16 C17 C18 H19 H20 C21 H22 H23 C24 
H25 H26 C27 H28 H29 C30 C31 H32 H33 C34 C35 C36 H37 H38 C39 H40 C41 H42 C43 H44 
H45 C46 H47 H48 C49 H50 H51 H52 H53 H54 C55 C56 H57 H58 H59 C60 H61 H62 H63 H64 
S1  C2  C3  C4  C5  C6  S7  C8  C9  H10 C11 C12 C13 C14 C15 H16 C17 C18 H19 H20 
C21 H22 H23 C24 H25 H26 C27 H28 H29 C30 C31 H32 H33 C34 C35 C36 H37 H38 C39 H40 
C41 H42 C43 H44 H45 C46 H47 H48 C49 H50 H51 H52 H53 H54 C55 C56 H57 H58 H59 C60 
H61 H62 H63 H64 S1  C2  C3  C4  C5  C6  S7  C8  C9  H10 C11 C12 C13 C14 C15 H16 
C17 C18 H19 H20 C21 H22 H23 C24 H25 H26 C27 H28 H29 C30 C31 H32 H33 C34 C35 C36 
H37 H38 C39 H40 C41 H42 C43 H44 H45 C46 H47 H48 C49 H50 H51 H52 H53 H54 C55 C56 
H57 H58 H59 C60 H61 H62 H63 H64 S1  C2  C3  C4  C5  C6  S7  C8  C9  H10 C11 C12 
C13 C14 C15 H16 C17 C18 H19 H20 C21 H22 H23 C24 H25 H26 C27 H28 H29 C30 C31 H32 
H33 C34 C35 C36 H37 H38 C39 H40 C41 H42 C43 H44 H45 C46 H47 H48 C49 H50 H51 H52 
H53 H54 C55 C56 H57 H58 H59 C60 H61 H62 H63 H64 S1  C2  C3  C4  C5  C6  S7  C8  
C9  H10 C11 C12 C13 C14 C15 H16 C17 C18 H19 H20 C21 H22 H23 C24 H25 H26 C27 H28 
H29 C30 C31 H32 H33 C34 C35 C36 H37 H38 C39 H40 C41 H42 C43 H44 H45 C46 H47 H48 
C49 H50 H51 H52 H53 H54 C55 C56 H57 H58 H59 C60 H61 H62 H63 H64 S1  C2  C3  C4  
C5  C6  S7  C8  C9  H10 C11 C12 C13 C14 C15 H16 C17 C18 H19 H20 C21 H22 H23 C24 
H25 H26 C27 H28 H29 C30 C31 H32 H33 C34 C35 C36 H37 H38 C39 H40 C41 H42 C43 H44 
H45 C46 H47 H48 C49 H50 H51 H52 H53 H54 C55 C56 H57 H58 H59 C60 H61 H62 H63 H64 
S1  C2  C3  C4  C5  C6  S7  C8  C9  H10 C11 C12 C13 C14 C15 H16 C17 C18 H19 H20 
C21 H22 H23 C24 H25 H26 C27 H28 H29 C30 C31 H32 H33 C34 C35 C36 H37 H38 C39 H40 
C41 H42 C43 H44 H45 C46 H47 H48 C49 H50 H51 H52 H53 H54 C55 C56 H57 H58 H59 C60 
H61 H62 H63 H64 S1  C2  C3  C4  C5  C6  S7  C8  C9  H10 C11 C12 C13 C14 C15 H16 
C17 C18 H19 H20 C21 H22 H23 C24 H25 H26 C27 H28 H29 C30 C31 H32 H33 C34 C35 C36 
H37 H38 C39 H40 C41 H42 C43 H44 H45 C46 H47 H48 C49 H50 H51 H52 H53 H54 C55 C56 
H57 H58 H59 C60 H61 H62 H63 H64 S1  C2  C3  C4  C5  C6  S7  C8  C9  H10 C11 C12 
C13 C14 C15 H16 C17 C18 H19 H20 C21 H22 H23 C24 H25 H26 C27 H28 H29 C30 C31 H32 
H33 C34 C35 C36 H37 H38 C39 H40 C41 H42 C43 H44 H45 C46 H47 H48 C49 H50 H51 H52 
H53 H54 C55 C56 H57 H58 H59 C60 H61 H62 H63 H64 S1  C2  C3  C4  C5  C6  S7  C8  
C9  H10 C11 C12 C13 C14 C15 H16 C17 C18 H19 H20 C21 H22 H23 C24 H25 H26 C27 H28 
H29 C30 C31 H32 H33 C34 C35 C36 H37 H38 C39 H40 C41 H42 C43 H44 H45 C46 H47 H48 
C49 H50 H51 H52 H53 H54 C55 C56 H57 H58 H59 C60 H61 H62 H63 H64 S1  C2  C3  C4  
C5  C6  S7  C8  C9  H10 C11 C12 C13 C14 C15 H16 C17 C18 H19 H20 C21 H22 H23 C24 
H25 H26 C27 H28 H29 C30 C31 H32 H33 C34 C35 C36 H37 H38 C39 H40 C41 H42 C43 H44 
H45 C46 H47 H48 C49 H50 H51 H52 H53 H54 C55 C56 H57 H58 H59 C60 H61 H62 H63 H64 
S1  C2  C3  C4  C5  C6  S7  C8  C9  H10 C11 C12 C13 C14 C15 H16 C17 C18 H19 H20 
C21 H22 H23 C24 H25 H26 C27 H28 H29 C30 C31 H32 H33 C34 C35 C36 H37 H38 C39 H40 
C41 H42 C43 H44 H45 C46 H47 H48 C49 H50 H51 H52 H53 H54 C55 C56 H57 H58 H59 C60 
H61 H62 H63 H64 S1  C2  C3  C4  C5  C6  S7  C8  C9  H10 C11 C12 C13 C14 C15 H16 
C17 C18 H19 H20 C21 H22 H23 C24 H25 H26 C27 H28 H29 C30 C31 H32 H33 C34 C35 C36 
H37 H38 C39 H40 C41 H42 C43 H44 H45 C46 H47 H48 C49 H50 H51 H52 H53 H54 C55 C56 
H57 H58 H59 C60 H61 H62 H63 H64 S1  C2  C3  C4  C5  C6  S7  C8  C9  H10 C11 C12 
C13 C14 C15 H16 C17 C18 H19 H20 C21 H22 H23 C24 H25 H26 C27 H28 H29 C30 C31 H32 
H33 C34 C35 C36 H37 H38 C39 H40 C41 H42 C43 H44 H45 C46 H47 H48 C49 H50 H51 H52 
H53 H54 C55 C56 H57 H58 H59 C60 H61 H62 H63 H64 S1  C2  C3  C4  C5  C6  S7  C8  
C9  H10 C11 C12 C13 C14 C15 H16 C17 C18 H19 H20 C21 H22 H23 C24 H25 H26 C27 H28 
H29 C30 C31 H32 H33 C34 C35 C36 H37 H38 C39 H40 C41 H42 C43 H44 H45 C46 H47 H48 
C49 H50 H51 H52 H53 H54 C55 C56 H57 H58 H59 C60 H61 H62 H63 H64 S1  C2  C3  C4  
C5  C6  S7  C8  C9  H10 C11 C12 C13 C14 C15 H16 C17 C18 H19 H20 C21 H22 H23 C24 
H25 H26 C27 H28 H29 C30 C31 H32 H33 C34 C35 C36 H37 H38 C39 H40 C41 H42 C43 H44 
H45 C46 H47 H48 C49 H50 H51 H52 H53 H54 C55 C56 H57 H58 H59 C60 H61 H62 H63 H64 
S1  C2  C3  C4  C5  C6  S7  C8  C9  H10 C11 C12 C13 C14 C15 H16 C17 C18 H19 H20 
C21 H22 H23 C24 H25 H26 C27 H28 H29 C30 C31 H32 H33 C34 C35 C36 H37 H38 C39 H40 
C41 H42 C43 H44 H45 C46 H47 H48 C49 H50 H51 H52 H53 H54 C55 C56 H57 H58 H59 C60 
H61 H62 H63 H64 S1  C2  C3  C4  C5  C6  S7  C8  C9  H10 C11 C12 C13 C14 C15 H16 
C17 C18 H19 H20 C21 H22 H23 C24 H25 H26 C27 H28 H29 C30 C31 H32 H33 C34 C35 C36 
H37 H38 C39 H40 C41 H42 C43 H44 H45 C46 H47 H48 C49 H50 H51 H52 H53 H54 C55 C56 
H57 H58 H59 C60 H61 H62 H63 H64 S1  C2  C3  C4  C5  C6  S7  C8  C9  H10 C11 C12 
C13 C14 C15 H16 C17 C18 H19 H20 C21 H22 H23 C24 H25 H26 C27 H28 H29 C30 C31 H32 
H33 C34 C35 C36 H37 H38 C39 H40 C41 H42 C43 H44 H45 C46 H47 H48 C49 H50 H51 H52 
H53 H54 C55 C56 H57 H58 H59 C60 H61 H62 H63 H64 S1  C2  C3  C4  C5  C6  S7  C8  
C9  H10 C11 C12 C13 C14 C15 H16 C17 C18 H19 H20 C21 H22 H23 C24 H25 H26 C27 H28 
H29 C30 C31 H32 H33 C34 C35 C36 H37 H38 C39 H40 C41 H42 C43 H44 H45 C46 H47 H48 
C49 H50 H51 H52 H53 H54 C55 C56 H57 H58 H59 C60 H61 H62 H63 H64 S1  C2  C3  C4  
C5  C6  S7  C8  C9  H10 C11 C12 C13 C14 C15 H16 C17 C18 H19 H20 C21 H22 H23 C24 
H25 H26 C27 H28 H29 C30 C31 H32 H33 C34 C35 C36 H37 H38 C39 H40 C41 H42 C43 H44 
H45 C46 H47 H48 C49 H50 H51 H52 H53 H54 C55 C56 H57 H58 H59 C60 H61 H62 H63 H64 
S1  C2  C3  C4  C5  C6  S7  C8  C9  H10 C11 C12 C13 C14 C15 H16 C17 C18 H19 H20 
C21 H22 H23 C24 H25 H26 C27 H28 H29 C30 C31 H32 H33 C34 C35 C36 H37 H38 C39 H40 
C41 H42 C43 H44 H45 C46 H47 H48 C49 H50 H51 H52 H53 H54 C55 C56 H57 H58 H59 C60 
H61 H62 H63 H64 S1  C2  C3  C4  C5  C6  S7  C8  C9  H10 C11 C12 C13 C14 C15 H16 
C17 C18 H19 H20 C21 H22 H23 C24 H25 H26 C27 H28 H29 C30 C31 H32 H33 C34 C35 C36 
H37 H38 C39 H40 C41 H42 C43 H44 H45 C46 H47 H48 C49 H50 H51 H52 H53 H54 C55 C56 
H57 H58 H59 C60 H61 H62 H63 H64 S1  C2  C3  C4  C5  C6  S7  C8  C9  H10 C11 C12 
C13 C14 C15 H16 C17 C18 H19 H20 C21 H22 H23 C24 H25 H26 C27 H28 H29 C30 C31 H32 
H33 C34 C35 C36 H37 H38 C39 H40 C41 H42 C43 H44 H45 C46 H47 H48 C49 H50 H51 H52 
H53 H54 C55 C56 H57 H58 H59 C60 H61 H62 H63 H64 S1  C2  C3  C4  C5  C6  S7  C8  
C9  H10 C11 C12 C13 C14 C15 H16 C17 C18 H19 H20 C21 H22 H23 C24 H25 H26 C27 H28 
H29 C30 C31 H32 H33 C34 C35 C36 H37 H38 C39 H40 C41 H42 C43 H44 H45 C46 H47 H48 
C49 H50 H51 H52 H53 H54 C55 C56 H57 H58 H59 C60 H61 H62 H63 H64 S1  C2  C3  C4  
C5  C6  S7  C8  C9  H10 C11 C12 C13 C14 C15 H16 C17 C18 H19 H20 C21 H22 H23 C24 
H25 H26 C27 H28 H29 C30 C31 H32 H33 C34 C35 C36 H37 H38 C39 H40 C41 H42 C43 H44 
H45 C46 H47 H48 C49 H50 H51 H52 H53 H54 C55 C56 H57 H58 H59 C60 H61 H62 H63 H64 
S1  C2  C3  C4  C5  C6  S7  C8  C9  H10 C11 C12 C13 C14 C15 H16 C17 C18 H19 H20 
C21 H22 H23 C24 H25 H26 C27 H28 H29 C30 C31 H32 H33 C34 C35 C36 H37 H38 C39 H40 
C41 H42 C43 H44 H45 C46 H47 H48 C49 H50 H51 H52 H53 H54 C55 C56 H57 H58 H59 C60 
H61 H62 H63 H64 S1  C2  C3  C4  C5  C6  S7  C8  C9  H10 C11 C12 C13 C14 C15 H16 
C17 C18 H19 H20 C21 H22 H23 C24 H25 H26 C27 H28 H29 C30 C31 H32 H33 C34 C35 C36 
H37 H38 C39 H40 C41 H42 C43 H44 H45 C46 H47 H48 C49 H50 H51 H52 H53 H54 C55 C56 
H57 H58 H59 C60 H61 H62 H63 H64 S1  C2  C3  C4  C5  C6  S7  C8  C9  H10 C11 C12 
C13 C14 C15 H16 C17 C18 H19 H20 C21 H22 H23 C24 H25 H26 C27 H28 H29 C30 C31 H32 
H33 C34 C35 C36 H37 H38 C39 H40 C41 H42 C43 H44 H45 C46 H47 H48 C49 H50 H51 H52 
H53 H54 C55 C56 H57 H58 H59 C60 H61 H62 H63 H64 S1  C2  C3  C4  C5  C6  S7  C8  
C9  H10 C11 C12 C13 C14 C15 H16 C17 C18 H19 H20 C21 H22 H23 C24 H25 H26 C27 H28 
H29 C30 C31 H32 H33 C34 C35 C36 H37 H38 C39 H40 C41 H42 C43 H44 H45 C46 H47 H48 
C49 H50 H51 H52 H53 H54 C55 C56 H57 H58 H59 C60 H61 H62 H63 H64 S1  C2  C3  C4  
C5  C6  S7  C8  C9  H10 C11 C12 C13 C14 C15 H16 C17 C18 H19 H20 C21 H22 H23 C24 
H25 H26 C27 H28 H29 C30 C31 H32 H33 C34 C35 C36 H37 H38 C39 H40 C41 H42 C43 H44 
H45 C46 H47 H48 C49 H50 H51 H52 H53 H54 C55 C56 H57 H58 H59 C60 H61 H62 H63 H64 
S1  C2  C3  C4  C5  C6  S7  C8  C9  H10 C11 C12 C13 C14 C15 H16 C17 C18 H19 H20 
C21 H22 H23 C24 H25 H26 C27 H28 H29 C30 C31 H32 H33 C34 C35 C36 H37 H38 C39 H40 
C41 H42 C43 H44 H45 C46 H47 H48 C49 H50 H51 H52 H53 H54 C55 C56 H57 H58 H59 C60 
H61 H62 H63 H64 S1  C2  C3  C4  C5  C6  S7  C8  C9  H10 C11 C12 C13 C14 C15 H16 
C17 C18 H19 H20 C21 H22 H23 C24 H25 H26 C27 H28 H29 C30 C31 H32 H33 C34 C35 C36 
H37 H38 C39 H40 C41 H42 C43 H44 H45 C46 H47 H48 C49 H50 H51 H52 H53 H54 C55 C56 
H57 H58 H59 C60 H61 H62 H63 H64 S1  C2  C3  C4  C5  C6  S7  C8  C9  H10 C11 C12 
C13 C14 C15 H16 C17 C18 H19 H20 C21 H22 H23 C24 H25 H26 C27 H28 H29 C30 C31 H32 
H33 C34 C35 C36 H37 H38 C39 H40 C41 H42 C43 H44 H45 C46 H47 H48 C49 H50 H51 H52 
H53 H54 C55 C56 H57 H58 H59 C60 H61 H62 H63 H64 S1  C2  C3  C4  C5  C6  S7  C8  
C9  H10 C11 C12 C13 C14 C15 H16 C17 C18 H19 H20 C21 H22 H23 C24 H25 H26 C27 H28 
H29 C30 C31 H32 H33 C34 C35 C36 H37 H38 C39 H40 C41 H42 C43 H44 H45 C46 H47 H48 
C49 H50 H51 H52 H53 H54 C55 C56 H57 H58 H59 C60 H61 H62 H63 H64 S1  C2  C3  C4  
C5  C6  S7  C8  C9  H10 C11 C12 C13 C14 C15 H16 C17 C18 H19 H20 C21 H22 H23 C24 
H25 H26 C27 H28 H29 C30 C31 H32 H33 C34 C35 C36 H37 H38 C39 H40 C41 H42 C43 H44 
H45 C46 H47 H48 C49 H50 H51 H52 H53 H54 C55 C56 H57 H58 H59 C60 H61 H62 H63 H64 
S1  C2  C3  C4  C5  C6  S7  C8  C9  H10 C11 C12 C13 C14 C15 H16 C17 C18 H19 H20 
C21 H22 H23 C24 H25 H26 C27 H28 H29 C30 C31 H32 H33 C34 C35 C36 H37 H38 C39 H40 
C41 H42 C43 H44 H45 C46 H47 H48 C49 H50 H51 H52 H53 H54 C55 C56 H57 H58 H59 C60 
H61 H62 H63 H64 S1  C2  C3  C4  C5  C6  S7  C8  C9  H10 C11 C12 C13 C14 C15 H16 
C17 C18 H19 H20 C21 H22 H23 C24 H25 H26 C27 H28 H29 C30 C31 H32 H33 C34 C35 C36 
H37 H38 C39 H40 C41 H42 C43 H44 H45 C46 H47 H48 C49 H50 H51 H52 H53 H54 C55 C56 
H57 H58 H59 C60 H61 H62 H63 H64 S1  C2  C3  C4  C5  C6  S7  C8  C9  H10 C11 C12 
C13 C14 C15 H16 C17 C18 H19 H20 C21 H22 H23 C24 H25 H26 C27 H28 H29 C30 C31 H32 
H33 C34 C35 C36 H37 H38 C39 H40 C41 H42 C43 H44 H45 C46 H47 H48 C49 H50 H51 H52 
H53 H54 C55 C56 H57 H58 H59 C60 H61 H62 H63 H64 S1  C2  C3  C4  C5  C6  S7  C8  
C9  H10 C11 C12 C13 C14 C15 H16 C17 C18 H19 H20 C21 H22 H23 C24 H25 H26 C27 H28 
H29 C30 C31 H32 H33 C34 C35 C36 H37 H38 C39 H40 C41 H42 C43 H44 H45 C46 H47 H48 
C49 H50 H51 H52 H53 H54 C55 C56 H57 H58 H59 C60 H61 H62 H63 H64 S1  C2  C3  C4  
C5  C6  S7  C8  C9  H10 C11 C12 C13 C14 C15 H16 C17 C18 H19 H20 C21 H22 H23 C24 
H25 H26 C27 H28 H29 C30 C31 H32 H33 C34 C35 C36 H37 H38 C39 H40 C41 H42 C43 H44 
H45 C46 H47 H48 C49 H50 H51 H52 H53 H54 C55 C56 H57 H58 H59 C60 H61 H62 H63 H64 
S1  C2  C3  C4  C5  C6  S7  C8  C9  H10 C11 C12 C13 C14 C15 H16 C17 C18 H19 H20 
C21 H22 H23 C24 H25 H26 C27 H28 H29 C30 C31 H32 H33 C34 C35 C36 H37 H38 C39 H40 
C41 H42 C43 H44 H45 C46 H47 H48 C49 H50 H51 H52 H53 H54 C55 C56 H57 H58 H59 C60 
H61 H62 H63 H64 S1  C2  C3  C4  C5  C6  S7  C8  C9  H10 C11 C12 C13 C14 C15 H16 
C17 C18 H19 H20 C21 H22 H23 C24 H25 H26 C27 H28 H29 C30 C31 H32 H33 C34 C35 C36 
H37 H38 C39 H40 C41 H42 C43 H44 H45 C46 H47 H48 C49 H50 H51 H52 H53 H54 C55 C56 
H57 H58 H59 C60 H61 H62 H63 H64 S1  C2  C3  C4  C5  C6  S7  C8  C9  H10 C11 C12 
C13 C14 C15 H16 C17 C18 H19 H20 C21 H22 H23 C24 H25 H26 C27 H28 H29 C30 C31 H32 
H33 C34 C35 C36 H37 H38 C39 H40 C41 H42 C43 H44 H45 C46 H47 H48 C49 H50 H51 H52 
H53 H54 C55 C56 H57 H58 H59 C60 H61 H62 H63 H64 S1  C2  C3  C4  C5  C6  S7  C8  
C9  H10 C11 C12 C13 C14 C15 H16 C17 C18 H19 H20 C21 H22 H23 C24 H25 H26 C27 H28 
H29 C30 C31 H32 H33 C34 C35 C36 H37 H38 C39 H40 C41 H42 C43 H44 H45 C46 H47 H48 
C49 H50 H51 H52 H53 H54 C55 C56 H57 H58 H59 C60 H61 H62 H63 H64 S1  C2  C3  C4  
C5  C6  S7  C8  C9  H10 C11 C12 C13 C14 C15 H16 C17 C18 H19 H20 C21 H22 H23 C24 
H25 H26 C27 H28 H29 C30 C31 H32 H33 C34 C35 C36 H37 H38 C39 H40 C41 H42 C43 H44 
H45 C46 H47 H48 C49 H50 H51 H52 H53 H54 C55 C56 H57 H58 H59 C60 H61 H62 H63 H64 
S1  C2  C3  C4  C5  C6  S7  C8  C9  H10 C11 C12 C13 C14 C15 H16 C17 C18 H19 H20 
C21 H22 H23 C24 H25 H26 C27 H28 H29 C30 C31 H32 H33 C34 C35 C36 H37 H38 C39 H40 
C41 H42 C43 H44 H45 C46 H47 H48 C49 H50 H51 H52 H53 H54 C55 C56 H57 H58 H59 C60 
H61 H62 H63 H64 S1  C2  C3  C4  C5  C6  S7  C8  C9  H10 C11 C12 C13 C14 C15 H16 
C17 C18 H19 H20 C21 H22 H23 C24 H25 H26 C27 H28 H29 C30 C31 H32 H33 C34 C35 C36 
H37 H38 C39 H40 C41 H42 C43 H44 H45 C46 H47 H48 C49 H50 H51 H52 H53 H54 C55 C56 
H57 H58 H59 C60 H61 H62 H63 H64 S1  C2  C3  C4  C5  C6  S7  C8  C9  H10 C11 C12 
C13 C14 C15 H16 C17 C18 H19 H20 C21 H22 H23 C24 H25 H26 C27 H28 H29 C30 C31 H32 
H33 C34 C35 C36 H37 H38 C39 H40 C41 H42 C43 H44 H45 C46 H47 H48 C49 H50 H51 H52 
H53 H54 C55 C56 H57 H58 H59 C60 H61 H62 H63 H64 S1  C2  C3  C4  C5  C6  S7  C8  
C9  H10 C11 C12 C13 C14 C15 H16 C17 C18 H19 H20 C21 H22 H23 C24 H25 H26 C27 H28 
H29 C30 C31 H32 H33 C34 C35 C36 H37 H38 C39 H40 C41 H42 C43 H44 H45 C46 H47 H48 
C49 H50 H51 H52 H53 H54 C55 C56 H57 H58 H59 C60 H61 H62 H63 H64 S1  C2  C3  C4  
C5  C6  S7  C8  C9  H10 C11 C12 C13 C14 C15 H16 C17 C18 H19 H20 C21 H22 H23 C24 
H25 H26 C27 H28 H29 C30 C31 H32 H33 C34 C35 C36 H37 H38 C39 H40 C41 H42 C43 H44 
H45 C46 H47 H48 C49 H50 H51 H52 H53 H54 C55 C56 H57 H58 H59 C60 H61 H62 H63 H64 
S1  C2  C3  C4  C5  C6  S7  C8  C9  H10 C11 C12 C13 C14 C15 H16 C17 C18 H19 H20 
C21 H22 H23 C24 H25 H26 C27 H28 H29 C30 C31 H32 H33 C34 C35 C36 H37 H38 C39 H40 
C41 H42 C43 H44 H45 C46 H47 H48 C49 H50 H51 H52 H53 H54 C55 C56 H57 H58 H59 C60 
H61 H62 H63 H64 S1  C2  C3  C4  C5  C6  S7  C8  C9  H10 C11 C12 C13 C14 C15 H16 
C17 C18 H19 H20 C21 H22 H23 C24 H25 H26 C27 H28 H29 C30 C31 H32 H33 C34 C35 C36 
H37 H38 C39 H40 C41 H42 C43 H44 H45 C46 H47 H48 C49 H50 H51 H52 H53 H54 C55 C56 
H57 H58 H59 C60 H61 H62 H63 H64 S1  C2  C3  C4  C5  C6  S7  C8  C9  H10 C11 C12 
C13 C14 C15 H16 C17 C18 H19 H20 C21 H22 H23 C24 H25 H26 C27 H28 H29 C30 C31 H32 
H33 C34 C35 C36 H37 H38 C39 H40 C41 H42 C43 H44 H45 C46 H47 H48 C49 H50 H51 H52 
H53 H54 C55 C56 H57 H58 H59 C60 H61 H62 H63 H64 S1  C2  C3  C4  C5  C6  S7  C8  
C9  H10 C11 C12 C13 C14 C15 H16 C17 C18 H19 H20 C21 H22 H23 C24 H25 H26 C27 H28 
H29 C30 C31 H32 H33 C34 C35 C36 H37 H38 C39 H40 C41 H42 C43 H44 H45 C46 H47 H48 
C49 H50 H51 H52 H53 H54 C55 C56 H57 H58 H59 C60 H61 H62 H63 H64 S1  C2  C3  C4  
C5  C6  S7  C8  C9  H10 C11 C12 C13 C14 C15 H16 C17 C18 H19 H20 C21 H22 H23 C24 
H25 H26 C27 H28 H29 C30 C31 H32 H33 C34 C35 C36 H37 H38 C39 H40 C41 H42 C43 H44 
H45 C46 H47 H48 C49 H50 H51 H52 H53 H54 C55 C56 H57 H58 H59 C60 H61 H62 H63 H64 
S1  C2  C3  C4  C5  C6  S7  C8  C9  H10 C11 C12 C13 C14 C15 H16 C17 C18 H19 H20 
C21 H22 H23 C24 H25 H26 C27 H28 H29 C30 C31 H32 H33 C34 C35 C36 H37 H38 C39 H40 
C41 H42 C43 H44 H45 C46 H47 H48 C49 H50 H51 H52 H53 H54 C55 C56 H57 H58 H59 C60 
H61 H62 H63 H64 S1  C2  C3  C4  C5  C6  S7  C8  C9  H10 C11 C12 C13 C14 C15 H16 
C17 C18 H19 H20 C21 H22 H23 C24 H25 H26 C27 H28 H29 C30 C31 H32 H33 C34 C35 C36 
H37 H38 C39 H40 C41 H42 C43 H44 H45 C46 H47 H48 C49 H50 H51 H52 H53 H54 C55 C56 
H57 H58 H59 C60 H61 H62 H63 H64 S1  C2  C3  C4  C5  C6  S7  C8  C9  H10 C11 C12 
C13 C14 C15 H16 C17 C18 H19 H20 C21 H22 H23 C24 H25 H26 C27 H28 H29 C30 C31 H32 
H33 C34 C35 C36 H37 H38 C39 H40 C41 H42 C43 H44 H45 C46 H47 H48 C49 H50 H51 H52 
H53 H54 C55 C56 H57 H58 H59 C60 H61 H62 H63 H64 S1  C2  C3  C4  C5  C6  S7  C8  
C9  H10 C11 C12 C13 C14 C15 H16 C17 C18 H19 H20 C21 H22 H23 C24 H25 H26 C27 H28 
H29 C30 C31 H32 H33 C34 C35 C36 H37 H38 C39 H40 C41 H42 C43 H44 H45 C46 H47 H48 
C49 H50 H51 H52 H53 H54 C55 C56 H57 H58 H59 C60 H61 H62 H63 H64 S1  C2  C3  C4  
C5  C6  S7  C8  C9  H10 C11 C12 C13 C14 C15 H16 C17 C18 H19 H20 C21 H22 H23 C24 
H25 H26 C27 H28 H29 C30 C31 H32 H33 C34 C35 C36 H37 H38 C39 H40 C41 H42 C43 H44 
H45 C46 H47 H48 C49 H50 H51 H52 H53 H54 C55 C56 H57 H58 H59 C60 H61 H62 H63 H64 
S1  C2  C3  C4  C5  C6  S7  C8  C9  H10 C11 C12 C13 C14 C15 H16 C17 C18 H19 H20 
C21 H22 H23 C24 H25 H26 C27 H28 H29 C30 C31 H32 H33 C34 C35 C36 H37 H38 C39 H40 
C41 H42 C43 H44 H45 C46 H47 H48 C49 H50 H51 H52 H53 H54 C55 C56 H57 H58 H59 C60 
H61 H62 H63 H64 S1  C2  C3  C4  C5  C6  S7  C8  C9  H10 C11 C12 C13 C14 C15 H16 
C17 C18 H19 H20 C21 H22 H23 C24 H25 H26 C27 H28 H29 C30 C31 H32 H33 C34 C35 C36 
H37 H38 C39 H40 C41 H42 C43 H44 H45 C46 H47 H48 C49 H50 H51 H52 H53 H54 C55 C56 
H57 H58 H59 C60 H61 H62 H63 H64 S1  C2  C3  C4  C5  C6  S7  C8  C9  H10 C11 C12 
C13 C14 C15 H16 C17 C18 H19 H20 C21 H22 H23 C24 H25 H26 C27 H28 H29 C30 C31 H32 
H33 C34 C35 C36 H37 H38 C39 H40 C41 H42 C43 H44 H45 C46 H47 H48 C49 H50 H51 H52 
H53 H54 C55 C56 H57 H58 H59 C60 H61 H62 H63 H64 S1  C2  C3  C4  C5  C6  S7  C8  
C9  H10 C11 C12 C13 C14 C15 H16 C17 C18 H19 H20 C21 H22 H23 C24 H25 H26 C27 H28 
H29 C30 C31 H32 H33 C34 C35 C36 H37 H38 C39 H40 C41 H42 C43 H44 H45 C46 H47 H48 
C49 H50 H51 H52 H53 H54 C55 C56 H57 H58 H59 C60 H61 H62 H63 H64 S1  C2  C3  C4  
C5  C6  S7  C8  C9  H10 C11 C12 C13 C14 C15 H16 C17 C18 H19 H20 C21 H22 H23 C24 
H25 H26 C27 H28 H29 C30 C31 H32 H33 C34 C35 C36 H37 H38 C39 H40 C41 H42 C43 H44 
H45 C46 H47 H48 C49 H50 H51 H52 H53 H54 C55 C56 H57 H58 H59 C60 H61 H62 H63 H64 
S1  C2  C3  C4  C5  C6  S7  C8  C9  H10 C11 C12 C13 C14 C15 H16 C17 C18 H19 H20 
C21 H22 H23 C24 H25 H26 C27 H28 H29 C30 C31 H32 H33 C34 C35 C36 H37 H38 C39 H40 
C41 H42 C43 H44 H45 C46 H47 H48 C49 H50 H51 H52 H53 H54 C55 C56 H57 H58 H59 C60 
H61 H62 H63 H64 S1  C2  C3  C4  C5  C6  S7  C8  C9  H10 C11 C12 C13 C14 C15 H16 
C17 C18 H19 H20 C21 H22 H23 C24 H25 H26 C27 H28 H29 C30 C31 H32 H33 C34 C35 C36 
H37 H38 C39 H40 C41 H42 C43 H44 H45 C46 H47 H48 C49 H50 H51 H52 H53 H54 C55 C56 
H57 H58 H59 C60 H61 H62 H63 H64 S1  C2  C3  C4  C5  C6  S7  C8  C9  H10 C11 C12 
C13 C14 C15 H16 C17 C18 H19 H20 C21 H22 H23 C24 H25 H26 C27 H28 H29 C30 C31 H32 
H33 C34 C35 C36 H37 H38 C39 H40 C41 H42 C43 H44 H45 C46 H47 H48 C49 H50 H51 H52 
H53 H54 C55 C56 H57 H58 H59 C60 H61 H62 H63 H64 S1  C2  C3  C4  C5  C6  S7  C8  
C9  H10 C11 C12 C13 C14 C15 H16 C17 C18 H19 H20 C21 H22 H23 C24 H25 H26 C27 H28 
H29 C30 C31 H32 H33 C34 C35 C36 H37 H38 C39 H40 C41 H42 C43 H44 H45 C46 H47 H48 
C49 H50 H51 H52 H53 H54 C55 C56 H57 H58 H59 C60 H61 H62 H63 H64 S1  C2  C3  C4  
C5  C6  S7  C8  C9  H10 C11 C12 C13 C14 C15 H16 C17 C18 H19 H20 C21 H22 H23 C24 
H25 H26 C27 H28 H29 C30 C31 H32 H33 C34 C35 C36 H37 H38 C39 H40 C41 H42 C43 H44 
H45 C46 H47 H48 C49 H50 H51 H52 H53 H54 C55 C56 H57 H58 H59 C60 H61 H62 H63 H64 
S1  C2  C3  C4  C5  C6  S7  C8  C9  H10 C11 C12 C13 C14 C15 H16 C17 C18 H19 H20 
C21 H22 H23 C24 H25 H26 C27 H28 H29 C30 C31 H32 H33 C34 C35 C36 H37 H38 C39 H40 
C41 H42 C43 H44 H45 C46 H47 H48 C49 H50 H51 H52 H53 H54 C55 C56 H57 H58 H59 C60 
H61 H62 H63 H64 S1  C2  C3  C4  C5  C6  S7  C8  C9  H10 C11 C12 C13 C14 C15 H16 
C17 C18 H19 H20 C21 H22 H23 C24 H25 H26 C27 H28 H29 C30 C31 H32 H33 C34 C35 C36 
H37 H38 C39 H40 C41 H42 C43 H44 H45 C46 H47 H48 C49 H50 H51 H52 H53 H54 C55 C56 
H57 H58 H59 C60 H61 H62 H63 H64 S1  C2  C3  C4  C5  C6  S7  C8  C9  H10 C11 C12 
C13 C14 C15 H16 C17 C18 H19 H20 C21 H22 H23 C24 H25 H26 C27 H28 H29 C30 C31 H32 
H33 C34 C35 C36 H37 H38 C39 H40 C41 H42 C43 H44 H45 C46 H47 H48 C49 H50 H51 H52 
H53 H54 C55 C56 H57 H58 H59 C60 H61 H62 H63 H64 S1  C2  C3  C4  C5  C6  S7  C8  
C9  H10 C11 C12 C13 C14 C15 H16 C17 C18 H19 H20 C21 H22 H23 C24 H25 H26 C27 H28 
H29 C30 C31 H32 H33 C34 C35 C36 H37 H38 C39 H40 C41 H42 C43 H44 H45 C46 H47 H48 
C49 H50 H51 H52 H53 H54 C55 C56 H57 H58 H59 C60 H61 H62 H63 H64 S1  C2  C3  C4  
C5  C6  S7  C8  C9  H10 C11 C12 C13 C14 C15 H16 C17 C18 H19 H20 C21 H22 H23 C24 
H25 H26 C27 H28 H29 C30 C31 H32 H33 C34 C35 C36 H37 H38 C39 H40 C41 H42 C43 H44 
H45 C46 H47 H48 C49 H50 H51 H52 H53 H54 C55 C56 H57 H58 H59 C60 H61 H62 H63 H64 
S1  C2  C3  C4  C5  C6  S7  C8  C9  H10 C11 C12 C13 C14 C15 H16 C17 C18 H19 H20 
C21 H22 H23 C24 H25 H26 C27 H28 H29 C30 C31 H32 H33 C34 C35 C36 H37 H38 C39 H40 
C41 H42 C43 H44 H45 C46 H47 H48 C49 H50 H51 H52 H53 H54 C55 C56 H57 H58 H59 C60 
H61 H62 H63 H64 S1  C2  C3  C4  C5  C6  S7  C8  C9  H10 C11 C12 C13 C14 C15 H16 
C17 C18 H19 H20 C21 H22 H23 C24 H25 H26 C27 H28 H29 C30 C31 H32 H33 C34 C35 C36 
H37 H38 C39 H40 C41 H42 C43 H44 H45 C46 H47 H48 C49 H50 H51 H52 H53 H54 C55 C56 
H57 H58 H59 C60 H61 H62 H63 H64 S1  C2  C3  C4  C5  C6  S7  C8  C9  H10 C11 C12 
C13 C14 C15 H16 C17 C18 H19 H20 C21 H22 H23 C24 H25 H26 C27 H28 H29 C30 C31 H32 
H33 C34 C35 C36 H37 H38 C39 H40 C41 H42 C43 H44 H45 C46 H47 H48 C49 H50 H51 H52 
H53 H54 C55 C56 H57 H58 H59 C60 H61 H62 H63 H64 S1  C2  C3  C4  C5  C6  S7  C8  
C9  H10 C11 C12 C13 C14 C15 H16 C17 C18 H19 H20 C21 H22 H23 C24 H25 H26 C27 H28 
H29 C30 C31 H32 H33 C34 C35 C36 H37 H38 C39 H40 C41 H42 C43 H44 H45 C46 H47 H48 
C49 H50 H51 H52 H53 H54 C55 C56 H57 H58 H59 C60 H61 H62 H63 H64 S1  C2  C3  C4  
C5  C6  S7  C8  C9  H10 C11 C12 C13 C14 C15 H16 C17 C18 H19 H20 C21 H22 H23 C24 
H25 H26 C27 H28 H29 C30 C31 H32 H33 C34 C35 C36 H37 H38 C39 H40 C41 H42 C43 H44 
H45 C46 H47 H48 C49 H50 H51 H52 H53 H54 C55 C56 H57 H58 H59 C60 H61 H62 H63 H64 
S1  C2  C3  C4  C5  C6  S7  C8  C9  H10 C11 C12 C13 C14 C15 H16 C17 C18 H19 H20 
C21 H22 H23 C24 H25 H26 C27 H28 H29 C30 C31 H32 H33 C34 C35 C36 H37 H38 C39 H40 
C41 H42 C43 H44 H45 C46 H47 H48 C49 H50 H51 H52 H53 H54 C55 C56 H57 H58 H59 C60 
H61 H62 H63 H64 S1  C2  C3  C4  C5  C6  S7  C8  C9  H10 C11 C12 C13 C14 C15 H16 
C17 C18 H19 H20 C21 H22 H23 C24 H25 H26 C27 H28 H29 C30 C31 H32 H33 C34 C35 C36 
H37 H38 C39 H40 C41 H42 C43 H44 H45 C46 H47 H48 C49 H50 H51 H52 H53 H54 C55 C56 
H57 H58 H59 C60 H61 H62 H63 H64 S1  C2  C3  C4  C5  C6  S7  C8  C9  H10 C11 C12 
C13 C14 C15 H16 C17 C18 H19 H20 C21 H22 H23 C24 H25 H26 C27 H28 H29 C30 C31 H32 
H33 C34 C35 C36 H37 H38 C39 H40 C41 H42 C43 H44 H45 C46 H47 H48 C49 H50 H51 H52 
H53 H54 C55 C56 H57 H58 H59 C60 H61 H62 H63 H64 S1  C2  C3  C4  C5  C6  S7  C8  
C9  H10 C11 C12 C13 C14 C15 H16 C17 C18 H19 H20 C21 H22 H23 C24 H25 H26 C27 H28 
H29 C30 C31 H32 H33 C34 C35 C36 H37 H38 C39 H40 C41 H42 C43 H44 H45 C46 H47 H48 
C49 H50 H51 H52 H53 H54 C55 C56 H57 H58 H59 C60 H61 H62 H63 H64 S1  C2  C3  C4  
C5  C6  S7  C8  C9  H10 C11 C12 C13 C14 C15 H16 C17 C18 H19 H20 C21 H22 H23 C24 
H25 H26 C27 H28 H29 C30 C31 H32 H33 C34 C35 C36 H37 H38 C39 H40 C41 H42 C43 H44 
H45 C46 H47 H48 C49 H50 H51 H52 H53 H54 C55 C56 H57 H58 H59 C60 H61 H62 H63 H64 
S1  C2  C3  C4  C5  C6  S7  C8  C9  H10 C11 C12 C13 C14 C15 H16 C17 C18 H19 H20 
C21 H22 H23 C24 H25 H26 C27 H28 H29 C30 C31 H32 H33 C34 C35 C36 H37 H38 C39 H40 
C41 H42 C43 H44 H45 C46 H47 H48 C49 H50 H51 H52 H53 H54 C55 C56 H57 H58 H59 C60 
H61 H62 H63 H64 S1  C2  C3  C4  C5  C6  S7  C8  C9  H10 C11 C12 C13 C14 C15 H16 
C17 C18 H19 H20 C21 H22 H23 C24 H25 H26 C27 H28 H29 C30 C31 H32 H33 C34 C35 C36 
H37 H38 C39 H40 C41 H42 C43 H44 H45 C46 H47 H48 C49 H50 H51 H52 H53 H54 C55 C56 
H57 H58 H59 C60 H61 H62 H63 H64 S1  C2  C3  C4  C5  C6  S7  C8  C9  H10 C11 C12 
C13 C14 C15 H16 C17 C18 H19 H20 C21 H22 H23 C24 H25 H26 C27 H28 H29 C30 C31 H32 
H33 C34 C35 C36 H37 H38 C39 H40 C41 H42 C43 H44 H45 C46 H47 H48 C49 H50 H51 H52 
H53 H54 C55 C56 H57 H58 H59 C60 H61 H62 H63 H64 S1  C2  C3  C4  C5  C6  S7  C8  
C9  H10 C11 C12 C13 C14 C15 H16 C17 C18 H19 H20 C21 H22 H23 C24 H25 H26 C27 H28 
H29 C30 C31 H32 H33 C34 C35 C36 H37 H38 C39 H40 C41 H42 C43 H44 H45 C46 H47 H48 
C49 H50 H51 H52 H53 H54 C55 C56 H57 H58 H59 C60 H61 H62 H63 H64 S1  C2  C3  C4  
C5  C6  S7  C8  C9  H10 C11 C12 C13 C14 C15 H16 C17 C18 H19 H20 C21 H22 H23 C24 
H25 H26 C27 H28 H29 C30 C31 H32 H33 C34 C35 C36 H37 H38 C39 H40 C41 H42 C43 H44 
H45 C46 H47 H48 C49 H50 H51 H52 H53 H54 C55 C56 H57 H58 H59 C60 H61 H62 H63 H64 
S1  C2  C3  C4  C5  C6  S7  C8  C9  H10 C11 C12 C13 C14 C15 H16 C17 C18 H19 H20 
C21 H22 H23 C24 H25 H26 C27 H28 H29 C30 C31 H32 H33 C34 C35 C36 H37 H38 C39 H40 
C41 H42 C43 H44 H45 C46 H47 H48 C49 H50 H51 H52 H53 H54 C55 C56 H57 H58 H59 C60 
H61 H62 H63 H64 S1  C2  C3  C4  C5  C6  S7  C8  C9  H10 C11 C12 C13 C14 C15 H16 
C17 C18 H19 H20 C21 H22 H23 C24 H25 H26 C27 H28 H29 C30 C31 H32 H33 C34 C35 C36 
H37 H38 C39 H40 C41 H42 C43 H44 H45 C46 H47 H48 C49 H50 H51 H52 H53 H54 C55 C56 
H57 H58 H59 C60 H61 H62 H63 H64 S1  C2  C3  C4  C5  C6  S7  C8  C9  H10 C11 C12 
C13 C14 C15 H16 C17 C18 H19 H20 C21 H22 H23 C24 H25 H26 C27 H28 H29 C30 C31 H32 
H33 C34 C35 C36 H37 H38 C39 H40 C41 H42 C43 H44 H45 C46 H47 H48 C49 H50 H51 H52 
H53 H54 C55 C56 H57 H58 H59 C60 H61 H62 H63 H64 S1  C2  C3  C4  C5  C6  S7  C8  
C9  H10 C11 C12 C13 C14 C15 H16 C17 C18 H19 H20 C21 H22 H23 C24 H25 H26 C27 H28 
H29 C30 C31 H32 H33 C34 C35 C36 H37 H38 C39 H40 C41 H42 C43 H44 H45 C46 H47 H48 
C49 H50 H51 H52 H53 H54 C55 C56 H57 H58 H59 C60 H61 H62 H63 H64 S1  C2  C3  C4  
C5  C6  S7  C8  C9  H10 C11 C12 C13 C14 C15 H16 C17 C18 H19 H20 C21 H22 H23 C24 
H25 H26 C27 H28 H29 C30 C31 H32 H33 C34 C35 C36 H37 H38 C39 H40 C41 H42 C43 H44 
H45 C46 H47 H48 C49 H50 H51 H52 H53 H54 C55 C56 H57 H58 H59 C60 H61 H62 H63 H64 
S1  C2  C3  C4  C5  C6  S7  C8  C9  H10 C11 C12 C13 C14 C15 H16 C17 C18 H19 H20 
C21 H22 H23 C24 H25 H26 C27 H28 H29 C30 C31 H32 H33 C34 C35 C36 H37 H38 C39 H40 
C41 H42 C43 H44 H45 C46 H47 H48 C49 H50 H51 H52 H53 H54 C55 C56 H57 H58 H59 C60 
H61 H62 H63 H64 S1  C2  C3  C4  C5  C6  S7  C8  C9  H10 C11 C12 C13 C14 C15 H16 
C17 C18 H19 H20 C21 H22 H23 C24 H25 H26 C27 H28 H29 C30 C31 H32 H33 C34 C35 C36 
H37 H38 C39 H40 C41 H42 C43 H44 H45 C46 H47 H48 C49 H50 H51 H52 H53 H54 C55 C56 
H57 H58 H59 C60 H61 H62 H63 H64 S1  C2  C3  C4  C5  C6  S7  C8  C9  H10 C11 C12 
C13 C14 C15 H16 C17 C18 H19 H20 C21 H22 H23 C24 H25 H26 C27 H28 H29 C30 C31 H32 
H33 C34 C35 C36 H37 H38 C39 H40 C41 H42 C43 H44 H45 C46 H47 H48 C49 H50 H51 H52 
H53 H54 C55 C56 H57 H58 H59 C60 H61 H62 H63 H64 S1  C2  C3  C4  C5  C6  S7  C8  
C9  H10 C11 C12 C13 C14 C15 H16 C17 C18 H19 H20 C21 H22 H23 C24 H25 H26 C27 H28 
H29 C30 C31 H32 H33 C34 C35 C36 H37 H38 C39 H40 C41 H42 C43 H44 H45 C46 H47 H48 
C49 H50 H51 H52 H53 H54 C55 C56 H57 H58 H59 C60 H61 H62 H63 H64 S1  C2  C3  C4  
C5  C6  S7  C8  C9  H10 C11 C12 C13 C14 C15 H16 C17 C18 H19 H20 C21 H22 H23 C24 
H25 H26 C27 H28 H29 C30 C31 H32 H33 C34 C35 C36 H37 H38 C39 H40 C41 H42 C43 H44 
H45 C46 H47 H48 C49 H50 H51 H52 H53 H54 C55 C56 H57 H58 H59 C60 H61 H62 H63 H64 
S1  C2  C3  C4  C5  C6  S7  C8  C9  H10 C11 C12 C13 C14 C15 H16 C17 C18 H19 H20 
C21 H22 H23 C24 H25 H26 C27 H28 H29 C30 C31 H32 H33 C34 C35 C36 H37 H38 C39 H40 
C41 H42 C43 H44 H45 C46 H47 H48 C49 H50 H51 H52 H53 H54 C55 C56 H57 H58 H59 C60 
H61 H62 H63 H64 S1  C2  C3  C4  C5  C6  S7  C8  C9  H10 C11 C12 C13 C14 C15 H16 
C17 C18 H19 H20 C21 H22 H23 C24 H25 H26 C27 H28 H29 C30 C31 H32 H33 C34 C35 C36 
H37 H38 C39 H40 C41 H42 C43 H44 H45 C46 H47 H48 C49 H50 H51 H52 H53 H54 C55 C56 
H57 H58 H59 C60 H61 H62 H63 H64 S1  C2  C3  C4  C5  C6  S7  C8  C9  H10 C11 C12 
C13 C14 C15 H16 C17 C18 H19 H20 C21 H22 H23 C24 H25 H26 C27 H28 H29 C30 C31 H32 
H33 C34 C35 C36 H37 H38 C39 H40 C41 H42 C43 H44 H45 C46 H47 H48 C49 H50 H51 H52 
H53 H54 C55 C56 H57 H58 H59 C60 H61 H62 H63 H64 S1  C2  C3  C4  C5  C6  S7  C8  
C9  H10 C11 C12 C13 C14 C15 H16 C17 C18 H19 H20 C21 H22 H23 C24 H25 H26 C27 H28 
H29 C30 C31 H32 H33 C34 C35 C36 H37 H38 C39 H40 C41 H42 C43 H44 H45 C46 H47 H48 
C49 H50 H51 H52 H53 H54 C55 C56 H57 H58 H59 C60 H61 H62 H63 H64 S1  C2  C3  C4  
C5  C6  S7  C8  C9  H10 C11 C12 C13 C14 C15 H16 C17 C18 H19 H20 C21 H22 H23 C24 
H25 H26 C27 H28 H29 C30 C31 H32 H33 C34 C35 C36 H37 H38 C39 H40 C41 H42 C43 H44 
H45 C46 H47 H48 C49 H50 H51 H52 H53 H54 C55 C56 H57 H58 H59 C60 H61 H62 H63 H64 
S1  C2  C3  C4  C5  C6  S7  C8  C9  H10 C11 C12 C13 C14 C15 H16 C17 C18 H19 H20 
C21 H22 H23 C24 H25 H26 C27 H28 H29 C30 C31 H32 H33 C34 C35 C36 H37 H38 C39 H40 
C41 H42 C43 H44 H45 C46 H47 H48 C49 H50 H51 H52 H53 H54 C55 C56 H57 H58 H59 C60 
H61 H62 H63 H64 S1  C2  C3  C4  C5  C6  S7  C8  C9  H10 C11 C12 C13 C14 C15 H16 
C17 C18 H19 H20 C21 H22 H23 C24 H25 H26 C27 H28 H29 C30 C31 H32 H33 C34 C35 C36 
H37 H38 C39 H40 C41 H42 C43 H44 H45 C46 H47 H48 C49 H50 H51 H52 H53 H54 C55 C56 
H57 H58 H59 C60 H61 H62 H63 H64 S1  C2  C3  C4  C5  C6  S7  C8  C9  H10 C11 C12 
C13 C14 C15 H16 C17 C18 H19 H20 C21 H22 H23 C24 H25 H26 C27 H28 H29 C30 C31 H32 
H33 C34 C35 C36 H37 H38 C39 H40 C41 H42 C43 H44 H45 C46 H47 H48 C49 H50 H51 H52 
H53 H54 C55 C56 H57 H58 H59 C60 H61 H62 H63 H64 S1  C2  C3  C4  C5  C6  S7  C8  
C9  H10 C11 C12 C13 C14 C15 H16 C17 C18 H19 H20 C21 H22 H23 C24 H25 H26 C27 H28 
H29 C30 C31 H32 H33 C34 C35 C36 H37 H38 C39 H40 C41 H42 C43 H44 H45 C46 H47 H48 
C49 H50 H51 H52 H53 H54 C55 C56 H57 H58 H59 C60 H61 H62 H63 H64 S1  C2  C3  C4  
C5  C6  S7  C8  C9  H10 C11 C12 C13 C14 C15 H16 C17 C18 H19 H20 C21 H22 H23 C24 
H25 H26 C27 H28 H29 C30 C31 H32 H33 C34 C35 C36 H37 H38 C39 H40 C41 H42 C43 H44 
H45 C46 H47 H48 C49 H50 H51 H52 H53 H54 C55 C56 H57 H58 H59 C60 H61 H62 H63 H64 
S1  C2  C3  C4  C5  C6  S7  C8  C9  H10 C11 C12 C13 C14 C15 H16 C17 C18 H19 H20 
C21 H22 H23 C24 H25 H26 C27 H28 H29 C30 C31 H32 H33 C34 C35 C36 H37 H38 C39 H40 
C41 H42 C43 H44 H45 C46 H47 H48 C49 H50 H51 H52 H53 H54 C55 C56 H57 H58 H59 C60 
H61 H62 H63 H64 S1  C2  C3  C4  C5  C6  S7  C8  C9  H10 C11 C12 C13 C14 C15 H16 
C17 C18 H19 H20 C21 H22 H23 C24 H25 H26 C27 H28 H29 C30 C31 H32 H33 C34 C35 C36 
H37 H38 C39 H40 C41 H42 C43 H44 H45 C46 H47 H48 C49 H50 H51 H52 H53 H54 C55 C56 
H57 H58 H59 C60 H61 H62 H63 H64 S1  C2  C3  C4  C5  C6  S7  C8  C9  H10 C11 C12 
C13 C14 C15 H16 C17 C18 H19 H20 C21 H22 H23 C24 H25 H26 C27 H28 H29 C30 C31 H32 
H33 C34 C35 C36 H37 H38 C39 H40 C41 H42 C43 H44 H45 C46 H47 H48 C49 H50 H51 H52 
H53 H54 C55 C56 H57 H58 H59 C60 H61 H62 H63 H64 S1  C2  C3  C4  C5  C6  S7  C8  
C9  H10 C11 C12 C13 C14 C15 H16 C17 C18 H19 H20 C21 H22 H23 C24 H25 H26 C27 H28 
H29 C30 C31 H32 H33 C34 C35 C36 H37 H38 C39 H40 C41 H42 C43 H44 H45 C46 H47 H48 
C49 H50 H51 H52 H53 H54 C55 C56 H57 H58 H59 C60 H61 H62 H63 H64 S1  C2  C3  C4  
C5  C6  S7  C8  C9  H10 C11 C12 C13 C14 C15 H16 C17 C18 H19 H20 C21 H22 H23 C24 
H25 H26 C27 H28 H29 C30 C31 H32 H33 C34 C35 C36 H37 H38 C39 H40 C41 H42 C43 H44 
H45 C46 H47 H48 C49 H50 H51 H52 H53 H54 C55 C56 H57 H58 H59 C60 H61 H62 H63 H64 
S1  C2  C3  C4  C5  C6  S7  C8  C9  H10 C11 C12 C13 C14 C15 H16 C17 C18 H19 H20 
C21 H22 H23 C24 H25 H26 C27 H28 H29 C30 C31 H32 H33 C34 C35 C36 H37 H38 C39 H40 
C41 H42 C43 H44 H45 C46 H47 H48 C49 H50 H51 H52 H53 H54 C55 C56 H57 H58 H59 C60 
H61 H62 H63 H64 S1  C2  C3  C4  C5  C6  S7  C8  C9  H10 C11 C12 C13 C14 C15 H16 
C17 C18 H19 H20 C21 H22 H23 C24 H25 H26 C27 H28 H29 C30 C31 H32 H33 C34 C35 C36 
H37 H38 C39 H40 C41 H42 C43 H44 H45 C46 H47 H48 C49 H50 H51 H52 H53 H54 C55 C56 
H57 H58 H59 C60 H61 H62 H63 H64 S1  C2  C3  C4  C5  C6  S7  C8  C9  H10 C11 C12 
C13 C14 C15 H16 C17 C18 H19 H20 C21 H22 H23 C24 H25 H26 C27 H28 H29 C30 C31 H32 
H33 C34 C35 C36 H37 H38 C39 H40 C41 H42 C43 H44 H45 C46 H47 H48 C49 H50 H51 H52 
H53 H54 C55 C56 H57 H58 H59 C60 H61 H62 H63 H64 S1  C2  C3  C4  C5  C6  S7  C8  
C9  H10 C11 C12 C13 C14 C15 H16 C17 C18 H19 H20 C21 H22 H23 C24 H25 H26 C27 H28 
H29 C30 C31 H32 H33 C34 C35 C36 H37 H38 C39 H40 C41 H42 C43 H44 H45 C46 H47 H48 
C49 H50 H51 H52 H53 H54 C55 C56 H57 H58 H59 C60 H61 H62 H63 H64 S1  C2  C3  C4  
C5  C6  S7  C8  C9  H10 C11 C12 C13 C14 C15 H16 C17 C18 H19 H20 C21 H22 H23 C24 
H25 H26 C27 H28 H29 C30 C31 H32 H33 C34 C35 C36 H37 H38 C39 H40 C41 H42 C43 H44 
H45 C46 H47 H48 C49 H50 H51 H52 H53 H54 C55 C56 H57 H58 H59 C60 H61 H62 H63 H64 
S1  C2  C3  C4  C5  C6  S7  C8  C9  H10 C11 C12 C13 C14 C15 H16 C17 C18 H19 H20 
C21 H22 H23 C24 H25 H26 C27 H28 H29 C30 C31 H32 H33 C34 C35 C36 H37 H38 C39 H40 
C41 H42 C43 H44 H45 C46 H47 H48 C49 H50 H51 H52 H53 H54 C55 C56 H57 H58 H59 C60 
H61 H62 H63 H64 S1  C2  C3  C4  C5  C6  S7  C8  C9  H10 C11 C12 C13 C14 C15 H16 
C17 C18 H19 H20 C21 H22 H23 C24 H25 H26 C27 H28 H29 C30 C31 H32 H33 C34 C35 C36 
H37 H38 C39 H40 C41 H42 C43 H44 H45 C46 H47 H48 C49 H50 H51 H52 H53 H54 C55 C56 
H57 H58 H59 C60 H61 H62 H63 H64 S1  C2  C3  C4  C5  C6  S7  C8  C9  H10 C11 C12 
C13 C14 C15 H16 C17 C18 H19 H20 C21 H22 H23 C24 H25 H26 C27 H28 H29 C30 C31 H32 
H33 C34 C35 C36 H37 H38 C39 H40 C41 H42 C43 H44 H45 C46 H47 H48 C49 H50 H51 H52 
H53 H54 C55 C56 H57 H58 H59 C60 H61 H62 H63 H64 S1  C2  C3  C4  C5  C6  S7  C8  
C9  H10 C11 C12 C13 C14 C15 H16 C17 C18 H19 H20 C21 H22 H23 C24 H25 H26 C27 H28 
H29 C30 C31 H32 H33 C34 C35 C36 H37 H38 C39 H40 C41 H42 C43 H44 H45 C46 H47 H48 
C49 H50 H51 H52 H53 H54 C55 C56 H57 H58 H59 C60 H61 H62 H63 H64 S1  C2  C3  C4  
C5  C6  S7  C8  C9  H10 C11 C12 C13 C14 C15 H16 C17 C18 H19 H20 C21 H22 H23 C24 
H25 H26 C27 H28 H29 C30 C31 H32 H33 C34 C35 C36 H37 H38 C39 H40 C41 H42 C43 H44 
H45 C46 H47 H48 C49 H50 H51 H52 H53 H54 C55 C56 H57 H58 H59 C60 H61 H62 H63 H64 
S1  C2  C3  C4  C5  C6  S7  C8  C9  H10 C11 C12 C13 C14 C15 H16 C17 C18 H19 H20 
C21 H22 H23 C24 H25 H26 C27 H28 H29 C30 C31 H32 H33 C34 C35 C36 H37 H38 C39 H40 
C41 H42 C43 H44 H45 C46 H47 H48 C49 H50 H51 H52 H53 H54 C55 C56 H57 H58 H59 C60 
H61 H62 H63 H64 S1  C2  C3  C4  C5  C6  S7  C8  C9  H10 C11 C12 C13 C14 C15 H16 
C17 C18 H19 H20 C21 H22 H23 C24 H25 H26 C27 H28 H29 C30 C31 H32 H33 C34 C35 C36 
H37 H38 C39 H40 C41 H42 C43 H44 H45 C46 H47 H48 C49 H50 H51 H52 H53 H54 C55 C56 
H57 H58 H59 C60 H61 H62 H63 H64 S1  C2  C3  C4  C5  C6  S7  C8  C9  H10 C11 C12 
C13 C14 C15 H16 C17 C18 H19 H20 C21 H22 H23 C24 H25 H26 C27 H28 H29 C30 C31 H32 
H33 C34 C35 C36 H37 H38 C39 H40 C41 H42 C43 H44 H45 C46 H47 H48 C49 H50 H51 H52 
H53 H54 C55 C56 H57 H58 H59 C60 H61 H62 H63 H64 S1  C2  C3  C4  C5  C6  S7  C8  
C9  H10 C11 C12 C13 C14 C15 H16 C17 C18 H19 H20 C21 H22 H23 C24 H25 H26 C27 H28 
H29 C30 C31 H32 H33 C34 C35 C36 H37 H38 C39 H40 C41 H42 C43 H44 H45 C46 H47 H48 
C49 H50 H51 H52 H53 H54 C55 C56 H57 H58 H59 C60 H61 H62 H63 H64 S1  C2  C3  C4  
C5  C6  S7  C8  C9  H10 C11 C12 C13 C14 C15 H16 C17 C18 H19 H20 C21 H22 H23 C24 
H25 H26 C27 H28 H29 C30 C31 H32 H33 C34 C35 C36 H37 H38 C39 H40 C41 H42 C43 H44 
H45 C46 H47 H48 C49 H50 H51 H52 H53 H54 C55 C56 H57 H58 H59 C60 H61 H62 H63 H64 
S1  C2  C3  C4  C5  C6  S7  C8  C9  H10 C11 C12 C13 C14 C15 H16 C17 C18 H19 H20 
C21 H22 H23 C24 H25 H26 C27 H28 H29 C30 C31 H32 H33 C34 C35 C36 H37 H38 C39 H40 
C41 H42 C43 H44 H45 C46 H47 H48 C49 H50 H51 H52 H53 H54 C55 C56 H57 H58 H59 C60 
H61 H62 H63 H64 S1  C2  C3  C4  C5  C6  S7  C8  C9  H10 C11 C12 C13 C14 C15 H16 
C17 C18 H19 H20 C21 H22 H23 C24 H25 H26 C27 H28 H29 C30 C31 H32 H33 C34 C35 C36 
H37 H38 C39 H40 C41 H42 C43 H44 H45 C46 H47 H48 C49 H50 H51 H52 H53 H54 C55 C56 
H57 H58 H59 C60 H61 H62 H63 H64 S1  C2  C3  C4  C5  C6  S7  C8  C9  H10 C11 C12 
C13 C14 C15 H16 C17 C18 H19 H20 C21 H22 H23 C24 H25 H26 C27 H28 H29 C30 C31 H32 
H33 C34 C35 C36 H37 H38 C39 H40 C41 H42 C43 H44 H45 C46 H47 H48 C49 H50 H51 H52 
H53 H54 C55 C56 H57 H58 H59 C60 H61 H62 H63 H64 S1  C2  C3  C4  C5  C6  S7  C8  
C9  H10 C11 C12 C13 C14 C15 H16 C17 C18 H19 H20 C21 H22 H23 C24 H25 H26 C27 H28 
H29 C30 C31 H32 H33 C34 C35 C36 H37 H38 C39 H40 C41 H42 C43 H44 H45 C46 H47 H48 
C49 H50 H51 H52 H53 H54 C55 C56 H57 H58 H59 C60 H61 H62 H63 H64 S1  C2  C3  C4  
C5  C6  S7  C8  C9  H10 C11 C12 C13 C14 C15 H16 C17 C18 H19 H20 C21 H22 H23 C24 
H25 H26 C27 H28 H29 C30 C31 H32 H33 C34 C35 C36 H37 H38 C39 H40 C41 H42 C43 H44 
H45 C46 H47 H48 C49 H50 H51 H52 H53 H54 C55 C56 H57 H58 H59 C60 H61 H62 H63 H64 
S1  C2  C3  C4  C5  C6  S7  C8  C9  H10 C11 C12 C13 C14 C15 H16 C17 C18 H19 H20 
C21 H22 H23 C24 H25 H26 C27 H28 H29 C30 C31 H32 H33 C34 C35 C36 H37 H38 C39 H40 
C41 H42 C43 H44 H45 C46 H47 H48 C49 H50 H51 H52 H53 H54 C55 C56 H57 H58 H59 C60 
H61 H62 H63 H64 S1  C2  C3  C4  C5  C6  S7  C8  C9  H10 C11 C12 C13 C14 C15 H16 
C17 C18 H19 H20 C21 H22 H23 C24 H25 H26 C27 H28 H29 C30 C31 H32 H33 C34 C35 C36 
H37 H38 C39 H40 C41 H42 C43 H44 H45 C46 H47 H48 C49 H50 H51 H52 H53 H54 C55 C56 
H57 H58 H59 C60 H61 H62 H63 H64 S1  C2  C3  C4  C5  C6  S7  C8  C9  H10 C11 C12 
C13 C14 C15 H16 C17 C18 H19 H20 C21 H22 H23 C24 H25 H26 C27 H28 H29 C30 C31 H32 
H33 C34 C35 C36 H37 H38 C39 H40 C41 H42 C43 H44 H45 C46 H47 H48 C49 H50 H51 H52 
H53 H54 C55 C56 H57 H58 H59 C60 H61 H62 H63 H64 S1  C2  C3  C4  C5  C6  S7  C8  
C9  H10 C11 C12 C13 C14 C15 H16 C17 C18 H19 H20 C21 H22 H23 C24 H25 H26 C27 H28 
H29 C30 C31 H32 H33 C34 C35 C36 H37 H38 C39 H40 C41 H42 C43 H44 H45 C46 H47 H48 
C49 H50 H51 H52 H53 H54 C55 C56 H57 H58 H59 C60 H61 H62 H63 H64 S1  C2  C3  C4  
C5  C6  S7  C8  C9  H10 C11 C12 C13 C14 C15 H16 C17 C18 H19 H20 C21 H22 H23 C24 
H25 H26 C27 H28 H29 C30 C31 H32 H33 C34 C35 C36 H37 H38 C39 H40 C41 H42 C43 H44 
H45 C46 H47 H48 C49 H50 H51 H52 H53 H54 C55 C56 H57 H58 H59 C60 H61 H62 H63 H64 
S1  C2  C3  C4  C5  C6  S7  C8  C9  H10 C11 C12 C13 C14 C15 H16 C17 C18 H19 H20 
C21 H22 H23 C24 H25 H26 C27 H28 H29 C30 C31 H32 H33 C34 C35 C36 H37 H38 C39 H40 
C41 H42 C43 H44 H45 C46 H47 H48 C49 H50 H51 H52 H53 H54 C55 C56 H57 H58 H59 C60 
H61 H62 H63 H64 S1  C2  C3  C4  C5  C6  S7  C8  C9  H10 C11 C12 C13 C14 C15 H16 
C17 C18 H19 H20 C21 H22 H23 C24 H25 H26 C27 H28 H29 C30 C31 H32 H33 C34 C35 C36 
H37 H38 C39 H40 C41 H42 C43 H44 H45 C46 H47 H48 C49 H50 H51 H52 H53 H54 C55 C56 
H57 H58 H59 C60 H61 H62 H63 H64 S1  C2  C3  C4  C5  C6  S7  C8  C9  H10 C11 C12 
C13 C14 C15 H16 C17 C18 H19 H20 C21 H22 H23 C24 H25 H26 C27 H28 H29 C30 C31 H32 
H33 C34 C35 C36 H37 H38 C39 H40 C41 H42 C43 H44 H45 C46 H47 H48 C49 H50 H51 H52 
H53 H54 C55 C56 H57 H58 H59 C60 H61 H62 H63 H64 S1  C2  C3  C4  C5  C6  S7  C8  
C9  H10 C11 C12 C13 C14 C15 H16 C17 C18 H19 H20 C21 H22 H23 C24 H25 H26 C27 H28 
H29 C30 C31 H32 H33 C34 C35 C36 H37 H38 C39 H40 C41 H42 C43 H44 H45 C46 H47 H48 
C49 H50 H51 H52 H53 H54 C55 C56 H57 H58 H59 C60 H61 H62 H63 H64 S1  C2  C3  C4  
C5  C6  S7  C8  C9  H10 C11 C12 C13 C14 C15 H16 C17 C18 H19 H20 C21 H22 H23 C24 
H25 H26 C27 H28 H29 C30 C31 H32 H33 C34 C35 C36 H37 H38 C39 H40 C41 H42 C43 H44 
H45 C46 H47 H48 C49 H50 H51 H52 H53 H54 C55 C56 H57 H58 H59 C60 H61 H62 H63 H64 
S1  C2  C3  C4  C5  C6  S7  C8  C9  H10 C11 C12 C13 C14 C15 H16 C17 C18 H19 H20 
C21 H22 H23 C24 H25 H26 C27 H28 H29 C30 C31 H32 H33 C34 C35 C36 H37 H38 C39 H40 
C41 H42 C43 H44 H45 C46 H47 H48 C49 H50 H51 H52 H53 H54 C55 C56 H57 H58 H59 C60 
H61 H62 H63 H64 S1  C2  C3  C4  C5  C6  S7  C8  C9  H10 C11 C12 C13 C14 C15 H16 
C17 C18 H19 H20 C21 H22 H23 C24 H25 H26 C27 H28 H29 C30 C31 H32 H33 C34 C35 C36 
H37 H38 C39 H40 C41 H42 C43 H44 H45 C46 H47 H48 C49 H50 H51 H52 H53 H54 C55 C56 
H57 H58 H59 C60 H61 H62 H63 H64 S1  C2  C3  C4  C5  C6  S7  C8  C9  H10 C11 C12 
C13 C14 C15 H16 C17 C18 H19 H20 C21 H22 H23 C24 H25 H26 C27 H28 H29 C30 C31 H32 
H33 C34 C35 C36 H37 H38 C39 H40 C41 H42 C43 H44 H45 C46 H47 H48 C49 H50 H51 H52 
H53 H54 C55 C56 H57 H58 H59 C60 H61 H62 H63 H64 S1  C2  C3  C4  C5  C6  S7  C8  
C9  H10 C11 C12 C13 C14 C15 H16 C17 C18 H19 H20 C21 H22 H23 C24 H25 H26 C27 H28 
H29 C30 C31 H32 H33 C34 C35 C36 H37 H38 C39 H40 C41 H42 C43 H44 H45 C46 H47 H48 
C49 H50 H51 H52 H53 H54 C55 C56 H57 H58 H59 C60 H61 H62 H63 H64 S1  C2  C3  C4  
C5  C6  S7  C8  C9  H10 C11 C12 C13 C14 C15 H16 C17 C18 H19 H20 C21 H22 H23 C24 
H25 H26 C27 H28 H29 C30 C31 H32 H33 C34 C35 C36 H37 H38 C39 H40 C41 H42 C43 H44 
H45 C46 H47 H48 C49 H50 H51 H52 H53 H54 C55 C56 H57 H58 H59 C60 H61 H62 H63 H64 
S1  C2  C3  C4  C5  C6  S7  C8  C9  H10 C11 C12 C13 C14 C15 H16 C17 C18 H19 H20 
C21 H22 H23 C24 H25 H26 C27 H28 H29 C30 C31 H32 H33 C34 C35 C36 H37 H38 C39 H40 
C41 H42 C43 H44 H45 C46 H47 H48 C49 H50 H51 H52 H53 H54 C55 C56 H57 H58 H59 C60 
H61 H62 H63 H64 S1  C2  C3  C4  C5  C6  S7  C8  C9  H10 C11 C12 C13 C14 C15 H16 
C17 C18 H19 H20 C21 H22 H23 C24 H25 H26 C27 H28 H29 C30 C31 H32 H33 C34 C35 C36 
H37 H38 C39 H40 C41 H42 C43 H44 H45 C46 H47 H48 C49 H50 H51 H52 H53 H54 C55 C56 
H57 H58 H59 C60 H61 H62 H63 H64 S1  C2  C3  C4  C5  C6  S7  C8  C9  H10 C11 C12 
C13 C14 C15 H16 C17 C18 H19 H20 C21 H22 H23 C24 H25 H26 C27 H28 H29 C30 C31 H32 
H33 C34 C35 C36 H37 H38 C39 H40 C41 H42 C43 H44 H45 C46 H47 H48 C49 H50 H51 H52 
H53 H54 C55 C56 H57 H58 H59 C60 H61 H62 H63 H64 S1  C2  C3  C4  C5  C6  S7  C8  
C9  H10 C11 C12 C13 C14 C15 H16 C17 C18 H19 H20 C21 H22 H23 C24 H25 H26 C27 H28 
H29 C30 C31 H32 H33 C34 C35 C36 H37 H38 C39 H40 C41 H42 C43 H44 H45 C46 H47 H48 
C49 H50 H51 H52 H53 H54 C55 C56 H57 H58 H59 C60 H61 H62 H63 H64 S1  C2  C3  C4  
C5  C6  S7  C8  C9  H10 C11 C12 C13 C14 C15 H16 C17 C18 H19 H20 C21 H22 H23 C24 
H25 H26 C27 H28 H29 C30 C31 H32 H33 C34 C35 C36 H37 H38 C39 H40 C41 H42 C43 H44 
H45 C46 H47 H48 C49 H50 H51 H52 H53 H54 C55 C56 H57 H58 H59 C60 H61 H62 H63 H64 
S1  C2  C3  C4  C5  C6  S7  C8  C9  H10 C11 C12 C13 C14 C15 H16 C17 C18 H19 H20 
C21 H22 H23 C24 H25 H26 C27 H28 H29 C30 C31 H32 H33 C34 C35 C36 H37 H38 C39 H40 
C41 H42 C43 H44 H45 C46 H47 H48 C49 H50 H51 H52 H53 H54 C55 C56 H57 H58 H59 C60 
H61 H62 H63 H64 S1  C2  C3  C4  C5  C6  S7  C8  C9  H10 C11 C12 C13 C14 C15 H16 
C17 C18 H19 H20 C21 H22 H23 C24 H25 H26 C27 H28 H29 C30 C31 H32 H33 C34 C35 C36 
H37 H38 C39 H40 C41 H42 C43 H44 H45 C46 H47 H48 C49 H50 H51 H52 H53 H54 C55 C56 
H57 H58 H59 C60 H61 H62 H63 H64 S1  C2  C3  C4  C5  C6  S7  C8  C9  H10 C11 C12 
C13 C14 C15 H16 C17 C18 H19 H20 C21 H22 H23 C24 H25 H26 C27 H28 H29 C30 C31 H32 
H33 C34 C35 C36 H37 H38 C39 H40 C41 H42 C43 H44 H45 C46 H47 H48 C49 H50 H51 H52 
H53 H54 C55 C56 H57 H58 H59 C60 H61 H62 H63 H64 S1  C2  C3  C4  C5  C6  S7  C8  
C9  H10 C11 C12 C13 C14 C15 H16 C17 C18 H19 H20 C21 H22 H23 C24 H25 H26 C27 H28 
H29 C30 C31 H32 H33 C34 C35 C36 H37 H38 C39 H40 C41 H42 C43 H44 H45 C46 H47 H48 
C49 H50 H51 H52 H53 H54 C55 C56 H57 H58 H59 C60 H61 H62 H63 H64 S1  C2  C3  C4  
C5  C6  S7  C8  C9  H10 C11 C12 C13 C14 C15 H16 C17 C18 H19 H20 C21 H22 H23 C24 
H25 H26 C27 H28 H29 C30 C31 H32 H33 C34 C35 C36 H37 H38 C39 H40 C41 H42 C43 H44 
H45 C46 H47 H48 C49 H50 H51 H52 H53 H54 C55 C56 H57 H58 H59 C60 H61 H62 H63 H64 
S1  C2  C3  C4  C5  C6  S7  C8  C9  H10 C11 C12 C13 C14 C15 H16 C17 C18 H19 H20 
C21 H22 H23 C24 H25 H26 C27 H28 H29 C30 C31 H32 H33 C34 C35 C36 H37 H38 C39 H40 
C41 H42 C43 H44 H45 C46 H47 H48 C49 H50 H51 H52 H53 H54 C55 C56 H57 H58 H59 C60 
H61 H62 H63 H64 S1  C2  C3  C4  C5  C6  S7  C8  C9  H10 C11 C12 C13 C14 C15 H16 
C17 C18 H19 H20 C21 H22 H23 C24 H25 H26 C27 H28 H29 C30 C31 H32 H33 C34 C35 C36 
H37 H38 C39 H40 C41 H42 C43 H44 H45 C46 H47 H48 C49 H50 H51 H52 H53 H54 C55 C56 
H57 H58 H59 C60 H61 H62 H63 H64 S1  C2  C3  C4  C5  C6  S7  C8  C9  H10 C11 C12 
C13 C14 C15 H16 C17 C18 H19 H20 C21 H22 H23 C24 H25 H26 C27 H28 H29 C30 C31 H32 
H33 C34 C35 C36 H37 H38 C39 H40 C41 H42 C43 H44 H45 C46 H47 H48 C49 H50 H51 H52 
H53 H54 C55 C56 H57 H58 H59 C60 H61 H62 H63 H64 S1  C2  C3  C4  C5  C6  S7  C8  
C9  H10 C11 C12 C13 C14 C15 H16 C17 C18 H19 H20 C21 H22 H23 C24 H25 H26 C27 H28 
H29 C30 C31 H32 H33 C34 C35 C36 H37 H38 C39 H40 C41 H42 C43 H44 H45 C46 H47 H48 
C49 H50 H51 H52 H53 H54 C55 C56 H57 H58 H59 C60 H61 H62 H63 H64 S1  C2  C3  C4  
C5  C6  S7  C8  C9  H10 C11 C12 C13 C14 C15 H16 C17 C18 H19 H20 C21 H22 H23 C24 
H25 H26 C27 H28 H29 C30 C31 H32 H33 C34 C35 C36 H37 H38 C39 H40 C41 H42 C43 H44 
H45 C46 H47 H48 C49 H50 H51 H52 H53 H54 C55 C56 H57 H58 H59 C60 H61 H62 H63 H64 
S1  C2  C3  C4  C5  C6  S7  C8  C9  H10 C11 C12 C13 C14 C15 H16 C17 C18 H19 H20 
C21 H22 H23 C24 H25 H26 C27 H28 H29 C30 C31 H32 H33 C34 C35 C36 H37 H38 C39 H40 
C41 H42 C43 H44 H45 C46 H47 H48 C49 H50 H51 H52 H53 H54 C55 C56 H57 H58 H59 C60 
H61 H62 H63 H64 S1  C2  C3  C4  C5  C6  S7  C8  C9  H10 C11 C12 C13 C14 C15 H16 
C17 C18 H19 H20 C21 H22 H23 C24 H25 H26 C27 H28 H29 C30 C31 H32 H33 C34 C35 C36 
H37 H38 C39 H40 C41 H42 C43 H44 H45 C46 H47 H48 C49 H50 H51 H52 H53 H54 C55 C56 
H57 H58 H59 C60 H61 H62 H63 H64 S1  C2  C3  C4  C5  C6  S7  C8  C9  H10 C11 C12 
C13 C14 C15 H16 C17 C18 H19 H20 C21 H22 H23 C24 H25 H26 C27 H28 H29 C30 C31 H32 
H33 C34 C35 C36 H37 H38 C39 H40 C41 H42 C43 H44 H45 C46 H47 H48 C49 H50 H51 H52 
H53 H54 C55 C56 H57 H58 H59 C60 H61 H62 H63 H64 S1  C2  C3  C4  C5  C6  S7  C8  
C9  H10 C11 C12 C13 C14 C15 H16 C17 C18 H19 H20 C21 H22 H23 C24 H25 H26 C27 H28 
H29 C30 C31 H32 H33 C34 C35 C36 H37 H38 C39 H40 C41 H42 C43 H44 H45 C46 H47 H48 
C49 H50 H51 H52 H53 H54 C55 C56 H57 H58 H59 C60 H61 H62 H63 H64 S1  C2  C3  C4  
C5  C6  S7  C8  C9  H10 C11 C12 C13 C14 C15 H16 C17 C18 H19 H20 C21 H22 H23 C24 
H25 H26 C27 H28 H29 C30 C31 H32 H33 C34 C35 C36 H37 H38 C39 H40 C41 H42 C43 H44 
H45 C46 H47 H48 C49 H50 H51 H52 H53 H54 C55 C56 H57 H58 H59 C60 H61 H62 H63 H64 
S1  C2  C3  C4  C5  C6  S7  C8  C9  H10 C11 C12 C13 C14 C15 H16 C17 C18 H19 H20 
C21 H22 H23 C24 H25 H26 C27 H28 H29 C30 C31 H32 H33 C34 C35 C36 H37 H38 C39 H40 
C41 H42 C43 H44 H45 C46 H47 H48 C49 H50 H51 H52 H53 H54 C55 C56 H57 H58 H59 C60 
H61 H62 H63 H64 S1  C2  C3  C4  C5  C6  S7  C8  C9  H10 C11 C12 C13 C14 C15 H16 
C17 C18 H19 H20 C21 H22 H23 C24 H25 H26 C27 H28 H29 C30 C31 H32 H33 C34 C35 C36 
H37 H38 C39 H40 C41 H42 C43 H44 H45 C46 H47 H48 C49 H50 H51 H52 H53 H54 C55 C56 
H57 H58 H59 C60 H61 H62 H63 H64 S1  C2  C3  C4  C5  C6  S7  C8  C9  H10 C11 C12 
C13 C14 C15 H16 C17 C18 H19 H20 C21 H22 H23 C24 H25 H26 C27 H28 H29 C30 C31 H32 
H33 C34 C35 C36 H37 H38 C39 H40 C41 H42 C43 H44 H45 C46 H47 H48 C49 H50 H51 H52 
H53 H54 C55 C56 H57 H58 H59 C60 H61 H62 H63 H64 
%FLAG CHARGE                                                                    
%FORMAT(5E16.8)                                                                 
 -5.62704624E+00  2.48734395E+00  5.20975557E+00 -6.00242562E+00 -1.76756310E+00
 -4.79246490E-01  2.55112200E+00 -4.70135340E-01 -1.22636079E+00  2.51467740E+00
 -1.71289620E+00 -1.29560553E+00 -1.76756310E+00 -2.29600980E+00 -6.94269630E-01
  2.51467740E+00 -1.56711780E+00 -2.16845370E+00  2.53289970E+00  2.44178820E+00
 -1.39218372E+00  8.96537160E-01  8.96537160E-01 -5.28446700E-01  2.58756660E+00
  2.51467740E+00 -1.44685062E+00  8.23647960E-01  8.23647960E-01 -7.28892000E-01
 -1.44685062E+00  7.23425310E-01  7.23425310E-01 -2.15023140E+00 -2.15023140E+00
 -1.44685062E+00  7.41647610E-01  7.41647610E-01 -2.36889900E+00  2.46001050E+00
 -2.36889900E+00  2.46001050E+00 -1.44685062E+00  7.23425310E-01  7.23425310E-01
 -2.29600980E+00  2.41445475E+00  2.41445475E+00 -1.44685062E+00  7.23425310E-01
  7.23425310E-01  2.40534360E+00  7.23425310E-01  7.23425310E-01 -1.44685062E+00
 -1.46507292E+00  7.23425310E-01  7.23425310E-01  7.05203010E-01 -1.67827383E+00
  7.05203010E-01  5.95869210E-01  5.95869210E-01  5.95869210E-01 -5.62704624E+00
  2.48734395E+00  5.20975557E+00 -6.00242562E+00 -1.76756310E+00 -4.79246490E-01
  2.55112200E+00 -4.70135340E-01 -1.22636079E+00  2.51467740E+00 -1.71289620E+00
 -1.29560553E+00 -1.76756310E+00 -2.29600980E+00 -6.94269630E-01  2.51467740E+00
 -1.56711780E+00 -2.16845370E+00  2.53289970E+00  2.44178820E+00 -1.39218372E+00
  8.96537160E-01  8.96537160E-01 -5.28446700E-01  2.58756660E+00  2.51467740E+00
 -1.44685062E+00  8.23647960E-01  8.23647960E-01 -7.28892000E-01 -1.44685062E+00
  7.23425310E-01  7.23425310E-01 -2.15023140E+00 -2.15023140E+00 -1.44685062E+00
  7.41647610E-01  7.41647610E-01 -2.36889900E+00  2.46001050E+00 -2.36889900E+00
  2.46001050E+00 -1.44685062E+00  7.23425310E-01  7.23425310E-01 -2.29600980E+00
  2.41445475E+00  2.41445475E+00 -1.44685062E+00  7.23425310E-01  7.23425310E-01
  2.40534360E+00  7.23425310E-01  7.23425310E-01 -1.44685062E+00 -1.46507292E+00
  7.23425310E-01  7.23425310E-01  7.05203010E-01 -1.67827383E+00  7.05203010E-01
  5.95869210E-01  5.95869210E-01  5.95869210E-01 -5.62704624E+00  2.48734395E+00
  5.20975557E+00 -6.00242562E+00 -1.76756310E+00 -4.79246490E-01  2.55112200E+00
 -4.70135340E-01 -1.22636079E+00  2.51467740E+00 -1.71289620E+00 -1.29560553E+00
 -1.76756310E+00 -2.29600980E+00 -6.94269630E-01  2.51467740E+00 -1.56711780E+00
 -2.16845370E+00  2.53289970E+00  2.44178820E+00 -1.39218372E+00  8.96537160E-01
  8.96537160E-01 -5.28446700E-01  2.58756660E+00  2.51467740E+00 -1.44685062E+00
  8.23647960E-01  8.23647960E-01 -7.28892000E-01 -1.44685062E+00  7.23425310E-01
  7.23425310E-01 -2.15023140E+00 -2.15023140E+00 -1.44685062E+00  7.41647610E-01
  7.41647610E-01 -2.36889900E+00  2.46001050E+00 -2.36889900E+00  2.46001050E+00
 -1.44685062E+00  7.23425310E-01  7.23425310E-01 -2.29600980E+00  2.41445475E+00
  2.41445475E+00 -1.44685062E+00  7.23425310E-01  7.23425310E-01  2.40534360E+00
  7.23425310E-01  7.23425310E-01 -1.44685062E+00 -1.46507292E+00  7.23425310E-01
  7.23425310E-01  7.05203010E-01 -1.67827383E+00  7.05203010E-01  5.95869210E-01
  5.95869210E-01  5.95869210E-01 -5.62704624E+00  2.48734395E+00  5.20975557E+00
 -6.00242562E+00 -1.76756310E+00 -4.79246490E-01  2.55112200E+00 -4.70135340E-01
 -1.22636079E+00  2.51467740E+00 -1.71289620E+00 -1.29560553E+00 -1.76756310E+00
 -2.29600980E+00 -6.94269630E-01  2.51467740E+00 -1.56711780E+00 -2.16845370E+00
  2.53289970E+00  2.44178820E+00 -1.39218372E+00  8.96537160E-01  8.96537160E-01
 -5.28446700E-01  2.58756660E+00  2.51467740E+00 -1.44685062E+00  8.23647960E-01
  8.23647960E-01 -7.28892000E-01 -1.44685062E+00  7.23425310E-01  7.23425310E-01
 -2.15023140E+00 -2.15023140E+00 -1.44685062E+00  7.41647610E-01  7.41647610E-01
 -2.36889900E+00  2.46001050E+00 -2.36889900E+00  2.46001050E+00 -1.44685062E+00
  7.23425310E-01  7.23425310E-01 -2.29600980E+00  2.41445475E+00  2.41445475E+00
 -1.44685062E+00  7.23425310E-01  7.23425310E-01  2.40534360E+00  7.23425310E-01
  7.23425310E-01 -1.44685062E+00 -1.46507292E+00  7.23425310E-01  7.23425310E-01
  7.05203010E-01 -1.67827383E+00  7.05203010E-01  5.95869210E-01  5.95869210E-01
  5.95869210E-01 -5.62704624E+00  2.48734395E+00  5.20975557E+00 -6.00242562E+00
 -1.76756310E+00 -4.79246490E-01  2.55112200E+00 -4.70135340E-01 -1.22636079E+00
  2.51467740E+00 -1.71289620E+00 -1.29560553E+00 -1.76756310E+00 -2.29600980E+00
 -6.94269630E-01  2.51467740E+00 -1.56711780E+00 -2.16845370E+00  2.53289970E+00
  2.44178820E+00 -1.39218372E+00  8.96537160E-01  8.96537160E-01 -5.28446700E-01
  2.58756660E+00  2.51467740E+00 -1.44685062E+00  8.23647960E-01  8.23647960E-01
 -7.28892000E-01 -1.44685062E+00  7.23425310E-01  7.23425310E-01 -2.15023140E+00
 -2.15023140E+00 -1.44685062E+00  7.41647610E-01  7.41647610E-01 -2.36889900E+00
  2.46001050E+00 -2.36889900E+00  2.46001050E+00 -1.44685062E+00  7.23425310E-01
  7.23425310E-01 -2.29600980E+00  2.41445475E+00  2.41445475E+00 -1.44685062E+00
  7.23425310E-01  7.23425310E-01  2.40534360E+00  7.23425310E-01  7.23425310E-01
 -1.44685062E+00 -1.46507292E+00  7.23425310E-01  7.23425310E-01  7.05203010E-01
 -1.67827383E+00  7.05203010E-01  5.95869210E-01  5.95869210E-01  5.95869210E-01
 -5.62704624E+00  2.48734395E+00  5.20975557E+00 -6.00242562E+00 -1.76756310E+00
 -4.79246490E-01  2.55112200E+00 -4.70135340E-01 -1.22636079E+00  2.51467740E+00
 -1.71289620E+00 -1.29560553E+00 -1.76756310E+00 -2.29600980E+00 -6.94269630E-01
  2.51467740E+00 -1.56711780E+00 -2.16845370E+00  2.53289970E+00  2.44178820E+00
 -1.39218372E+00  8.96537160E-01  8.96537160E-01 -5.28446700E-01  2.58756660E+00
  2.51467740E+00 -1.44685062E+00  8.23647960E-01  8.23647960E-01 -7.28892000E-01
 -1.44685062E+00  7.23425310E-01  7.23425310E-01 -2.15023140E+00 -2.15023140E+00
 -1.44685062E+00  7.41647610E-01  7.41647610E-01 -2.36889900E+00  2.46001050E+00
 -2.36889900E+00  2.46001050E+00 -1.44685062E+00  7.23425310E-01  7.23425310E-01
 -2.29600980E+00  2.41445475E+00  2.41445475E+00 -1.44685062E+00  7.23425310E-01
  7.23425310E-01  2.40534360E+00  7.23425310E-01  7.23425310E-01 -1.44685062E+00
 -1.46507292E+00  7.23425310E-01  7.23425310E-01  7.05203010E-01 -1.67827383E+00
  7.05203010E-01  5.95869210E-01  5.95869210E-01  5.95869210E-01 -5.62704624E+00
  2.48734395E+00  5.20975557E+00 -6.00242562E+00 -1.76756310E+00 -4.79246490E-01
  2.55112200E+00 -4.70135340E-01 -1.22636079E+00  2.51467740E+00 -1.71289620E+00
 -1.29560553E+00 -1.76756310E+00 -2.29600980E+00 -6.94269630E-01  2.51467740E+00
 -1.56711780E+00 -2.16845370E+00  2.53289970E+00  2.44178820E+00 -1.39218372E+00
  8.96537160E-01  8.96537160E-01 -5.28446700E-01  2.58756660E+00  2.51467740E+00
 -1.44685062E+00  8.23647960E-01  8.23647960E-01 -7.28892000E-01 -1.44685062E+00
  7.23425310E-01  7.23425310E-01 -2.15023140E+00 -2.15023140E+00 -1.44685062E+00
  7.41647610E-01  7.41647610E-01 -2.36889900E+00  2.46001050E+00 -2.36889900E+00
  2.46001050E+00 -1.44685062E+00  7.23425310E-01  7.23425310E-01 -2.29600980E+00
  2.41445475E+00  2.41445475E+00 -1.44685062E+00  7.23425310E-01  7.23425310E-01
  2.40534360E+00  7.23425310E-01  7.23425310E-01 -1.44685062E+00 -1.46507292E+00
  7.23425310E-01  7.23425310E-01  7.05203010E-01 -1.67827383E+00  7.05203010E-01
  5.95869210E-01  5.95869210E-01  5.95869210E-01 -5.62704624E+00  2.48734395E+00
  5.20975557E+00 -6.00242562E+00 -1.76756310E+00 -4.79246490E-01  2.55112200E+00
 -4.70135340E-01 -1.22636079E+00  2.51467740E+00 -1.71289620E+00 -1.29560553E+00
 -1.76756310E+00 -2.29600980E+00 -6.94269630E-01  2.51467740E+00 -1.56711780E+00
 -2.16845370E+00  2.53289970E+00  2.44178820E+00 -1.39218372E+00  8.96537160E-01
  8.96537160E-01 -5.28446700E-01  2.58756660E+00  2.51467740E+00 -1.44685062E+00
  8.23647960E-01  8.23647960E-01 -7.28892000E-01 -1.44685062E+00  7.23425310E-01
  7.23425310E-01 -2.15023140E+00 -2.15023140E+00 -1.44685062E+00  7.41647610E-01
  7.41647610E-01 -2.36889900E+00  2.46001050E+00 -2.36889900E+00  2.46001050E+00
 -1.44685062E+00  7.23425310E-01  7.23425310E-01 -2.29600980E+00  2.41445475E+00
  2.41445475E+00 -1.44685062E+00  7.23425310E-01  7.23425310E-01  2.40534360E+00
  7.23425310E-01  7.23425310E-01 -1.44685062E+00 -1.46507292E+00  7.23425310E-01
  7.23425310E-01  7.05203010E-01 -1.67827383E+00  7.05203010E-01  5.95869210E-01
  5.95869210E-01  5.95869210E-01 -5.62704624E+00  2.48734395E+00  5.20975557E+00
 -6.00242562E+00 -1.76756310E+00 -4.79246490E-01  2.55112200E+00 -4.70135340E-01
 -1.22636079E+00  2.51467740E+00 -1.71289620E+00 -1.29560553E+00 -1.76756310E+00
 -2.29600980E+00 -6.94269630E-01  2.51467740E+00 -1.56711780E+00 -2.16845370E+00
  2.53289970E+00  2.44178820E+00 -1.39218372E+00  8.96537160E-01  8.96537160E-01
 -5.28446700E-01  2.58756660E+00  2.51467740E+00 -1.44685062E+00  8.23647960E-01
  8.23647960E-01 -7.28892000E-01 -1.44685062E+00  7.23425310E-01  7.23425310E-01
 -2.15023140E+00 -2.15023140E+00 -1.44685062E+00  7.41647610E-01  7.41647610E-01
 -2.36889900E+00  2.46001050E+00 -2.36889900E+00  2.46001050E+00 -1.44685062E+00
  7.23425310E-01  7.23425310E-01 -2.29600980E+00  2.41445475E+00  2.41445475E+00
 -1.44685062E+00  7.23425310E-01  7.23425310E-01  2.40534360E+00  7.23425310E-01
  7.23425310E-01 -1.44685062E+00 -1.46507292E+00  7.23425310E-01  7.23425310E-01
  7.05203010E-01 -1.67827383E+00  7.05203010E-01  5.95869210E-01  5.95869210E-01
  5.95869210E-01 -5.62704624E+00  2.48734395E+00  5.20975557E+00 -6.00242562E+00
 -1.76756310E+00 -4.79246490E-01  2.55112200E+00 -4.70135340E-01 -1.22636079E+00
  2.51467740E+00 -1.71289620E+00 -1.29560553E+00 -1.76756310E+00 -2.29600980E+00
 -6.94269630E-01  2.51467740E+00 -1.56711780E+00 -2.16845370E+00  2.53289970E+00
  2.44178820E+00 -1.39218372E+00  8.96537160E-01  8.96537160E-01 -5.28446700E-01
  2.58756660E+00  2.51467740E+00 -1.44685062E+00  8.23647960E-01  8.23647960E-01
 -7.28892000E-01 -1.44685062E+00  7.23425310E-01  7.23425310E-01 -2.15023140E+00
 -2.15023140E+00 -1.44685062E+00  7.41647610E-01  7.41647610E-01 -2.36889900E+00
  2.46001050E+00 -2.36889900E+00  2.46001050E+00 -1.44685062E+00  7.23425310E-01
  7.23425310E-01 -2.29600980E+00  2.41445475E+00  2.41445475E+00 -1.44685062E+00
  7.23425310E-01  7.23425310E-01  2.40534360E+00  7.23425310E-01  7.23425310E-01
 -1.44685062E+00 -1.46507292E+00  7.23425310E-01  7.23425310E-01  7.05203010E-01
 -1.67827383E+00  7.05203010E-01  5.95869210E-01  5.95869210E-01  5.95869210E-01
 -5.62704624E+00  2.48734395E+00  5.20975557E+00 -6.00242562E+00 -1.76756310E+00
 -4.79246490E-01  2.55112200E+00 -4.70135340E-01 -1.22636079E+00  2.51467740E+00
 -1.71289620E+00 -1.29560553E+00 -1.76756310E+00 -2.29600980E+00 -6.94269630E-01
  2.51467740E+00 -1.56711780E+00 -2.16845370E+00  2.53289970E+00  2.44178820E+00
 -1.39218372E+00  8.96537160E-01  8.96537160E-01 -5.28446700E-01  2.58756660E+00
  2.51467740E+00 -1.44685062E+00  8.23647960E-01  8.23647960E-01 -7.28892000E-01
 -1.44685062E+00  7.23425310E-01  7.23425310E-01 -2.15023140E+00 -2.15023140E+00
 -1.44685062E+00  7.41647610E-01  7.41647610E-01 -2.36889900E+00  2.46001050E+00
 -2.36889900E+00  2.46001050E+00 -1.44685062E+00  7.23425310E-01  7.23425310E-01
 -2.29600980E+00  2.41445475E+00  2.41445475E+00 -1.44685062E+00  7.23425310E-01
  7.23425310E-01  2.40534360E+00  7.23425310E-01  7.23425310E-01 -1.44685062E+00
 -1.46507292E+00  7.23425310E-01  7.23425310E-01  7.05203010E-01 -1.67827383E+00
  7.05203010E-01  5.95869210E-01  5.95869210E-01  5.95869210E-01 -5.62704624E+00
  2.48734395E+00  5.20975557E+00 -6.00242562E+00 -1.76756310E+00 -4.79246490E-01
  2.55112200E+00 -4.70135340E-01 -1.22636079E+00  2.51467740E+00 -1.71289620E+00
 -1.29560553E+00 -1.76756310E+00 -2.29600980E+00 -6.94269630E-01  2.51467740E+00
 -1.56711780E+00 -2.16845370E+00  2.53289970E+00  2.44178820E+00 -1.39218372E+00
  8.96537160E-01  8.96537160E-01 -5.28446700E-01  2.58756660E+00  2.51467740E+00
 -1.44685062E+00  8.23647960E-01  8.23647960E-01 -7.28892000E-01 -1.44685062E+00
  7.23425310E-01  7.23425310E-01 -2.15023140E+00 -2.15023140E+00 -1.44685062E+00
  7.41647610E-01  7.41647610E-01 -2.36889900E+00  2.46001050E+00 -2.36889900E+00
  2.46001050E+00 -1.44685062E+00  7.23425310E-01  7.23425310E-01 -2.29600980E+00
  2.41445475E+00  2.41445475E+00 -1.44685062E+00  7.23425310E-01  7.23425310E-01
  2.40534360E+00  7.23425310E-01  7.23425310E-01 -1.44685062E+00 -1.46507292E+00
  7.23425310E-01  7.23425310E-01  7.05203010E-01 -1.67827383E+00  7.05203010E-01
  5.95869210E-01  5.95869210E-01  5.95869210E-01 -5.62704624E+00  2.48734395E+00
  5.20975557E+00 -6.00242562E+00 -1.76756310E+00 -4.79246490E-01  2.55112200E+00
 -4.70135340E-01 -1.22636079E+00  2.51467740E+00 -1.71289620E+00 -1.29560553E+00
 -1.76756310E+00 -2.29600980E+00 -6.94269630E-01  2.51467740E+00 -1.56711780E+00
 -2.16845370E+00  2.53289970E+00  2.44178820E+00 -1.39218372E+00  8.96537160E-01
  8.96537160E-01 -5.28446700E-01  2.58756660E+00  2.51467740E+00 -1.44685062E+00
  8.23647960E-01  8.23647960E-01 -7.28892000E-01 -1.44685062E+00  7.23425310E-01
  7.23425310E-01 -2.15023140E+00 -2.15023140E+00 -1.44685062E+00  7.41647610E-01
  7.41647610E-01 -2.36889900E+00  2.46001050E+00 -2.36889900E+00  2.46001050E+00
 -1.44685062E+00  7.23425310E-01  7.23425310E-01 -2.29600980E+00  2.41445475E+00
  2.41445475E+00 -1.44685062E+00  7.23425310E-01  7.23425310E-01  2.40534360E+00
  7.23425310E-01  7.23425310E-01 -1.44685062E+00 -1.46507292E+00  7.23425310E-01
  7.23425310E-01  7.05203010E-01 -1.67827383E+00  7.05203010E-01  5.95869210E-01
  5.95869210E-01  5.95869210E-01 -5.62704624E+00  2.48734395E+00  5.20975557E+00
 -6.00242562E+00 -1.76756310E+00 -4.79246490E-01  2.55112200E+00 -4.70135340E-01
 -1.22636079E+00  2.51467740E+00 -1.71289620E+00 -1.29560553E+00 -1.76756310E+00
 -2.29600980E+00 -6.94269630E-01  2.51467740E+00 -1.56711780E+00 -2.16845370E+00
  2.53289970E+00  2.44178820E+00 -1.39218372E+00  8.96537160E-01  8.96537160E-01
 -5.28446700E-01  2.58756660E+00  2.51467740E+00 -1.44685062E+00  8.23647960E-01
  8.23647960E-01 -7.28892000E-01 -1.44685062E+00  7.23425310E-01  7.23425310E-01
 -2.15023140E+00 -2.15023140E+00 -1.44685062E+00  7.41647610E-01  7.41647610E-01
 -2.36889900E+00  2.46001050E+00 -2.36889900E+00  2.46001050E+00 -1.44685062E+00
  7.23425310E-01  7.23425310E-01 -2.29600980E+00  2.41445475E+00  2.41445475E+00
 -1.44685062E+00  7.23425310E-01  7.23425310E-01  2.40534360E+00  7.23425310E-01
  7.23425310E-01 -1.44685062E+00 -1.46507292E+00  7.23425310E-01  7.23425310E-01
  7.05203010E-01 -1.67827383E+00  7.05203010E-01  5.95869210E-01  5.95869210E-01
  5.95869210E-01 -5.62704624E+00  2.48734395E+00  5.20975557E+00 -6.00242562E+00
 -1.76756310E+00 -4.79246490E-01  2.55112200E+00 -4.70135340E-01 -1.22636079E+00
  2.51467740E+00 -1.71289620E+00 -1.29560553E+00 -1.76756310E+00 -2.29600980E+00
 -6.94269630E-01  2.51467740E+00 -1.56711780E+00 -2.16845370E+00  2.53289970E+00
  2.44178820E+00 -1.39218372E+00  8.96537160E-01  8.96537160E-01 -5.28446700E-01
  2.58756660E+00  2.51467740E+00 -1.44685062E+00  8.23647960E-01  8.23647960E-01
 -7.28892000E-01 -1.44685062E+00  7.23425310E-01  7.23425310E-01 -2.15023140E+00
 -2.15023140E+00 -1.44685062E+00  7.41647610E-01  7.41647610E-01 -2.36889900E+00
  2.46001050E+00 -2.36889900E+00  2.46001050E+00 -1.44685062E+00  7.23425310E-01
  7.23425310E-01 -2.29600980E+00  2.41445475E+00  2.41445475E+00 -1.44685062E+00
  7.23425310E-01  7.23425310E-01  2.40534360E+00  7.23425310E-01  7.23425310E-01
 -1.44685062E+00 -1.46507292E+00  7.23425310E-01  7.23425310E-01  7.05203010E-01
 -1.67827383E+00  7.05203010E-01  5.95869210E-01  5.95869210E-01  5.95869210E-01
 -5.62704624E+00  2.48734395E+00  5.20975557E+00 -6.00242562E+00 -1.76756310E+00
 -4.79246490E-01  2.55112200E+00 -4.70135340E-01 -1.22636079E+00  2.51467740E+00
 -1.71289620E+00 -1.29560553E+00 -1.76756310E+00 -2.29600980E+00 -6.94269630E-01
  2.51467740E+00 -1.56711780E+00 -2.16845370E+00  2.53289970E+00  2.44178820E+00
 -1.39218372E+00  8.96537160E-01  8.96537160E-01 -5.28446700E-01  2.58756660E+00
  2.51467740E+00 -1.44685062E+00  8.23647960E-01  8.23647960E-01 -7.28892000E-01
 -1.44685062E+00  7.23425310E-01  7.23425310E-01 -2.15023140E+00 -2.15023140E+00
 -1.44685062E+00  7.41647610E-01  7.41647610E-01 -2.36889900E+00  2.46001050E+00
 -2.36889900E+00  2.46001050E+00 -1.44685062E+00  7.23425310E-01  7.23425310E-01
 -2.29600980E+00  2.41445475E+00  2.41445475E+00 -1.44685062E+00  7.23425310E-01
  7.23425310E-01  2.40534360E+00  7.23425310E-01  7.23425310E-01 -1.44685062E+00
 -1.46507292E+00  7.23425310E-01  7.23425310E-01  7.05203010E-01 -1.67827383E+00
  7.05203010E-01  5.95869210E-01  5.95869210E-01  5.95869210E-01 -5.62704624E+00
  2.48734395E+00  5.20975557E+00 -6.00242562E+00 -1.76756310E+00 -4.79246490E-01
  2.55112200E+00 -4.70135340E-01 -1.22636079E+00  2.51467740E+00 -1.71289620E+00
 -1.29560553E+00 -1.76756310E+00 -2.29600980E+00 -6.94269630E-01  2.51467740E+00
 -1.56711780E+00 -2.16845370E+00  2.53289970E+00  2.44178820E+00 -1.39218372E+00
  8.96537160E-01  8.96537160E-01 -5.28446700E-01  2.58756660E+00  2.51467740E+00
 -1.44685062E+00  8.23647960E-01  8.23647960E-01 -7.28892000E-01 -1.44685062E+00
  7.23425310E-01  7.23425310E-01 -2.15023140E+00 -2.15023140E+00 -1.44685062E+00
  7.41647610E-01  7.41647610E-01 -2.36889900E+00  2.46001050E+00 -2.36889900E+00
  2.46001050E+00 -1.44685062E+00  7.23425310E-01  7.23425310E-01 -2.29600980E+00
  2.41445475E+00  2.41445475E+00 -1.44685062E+00  7.23425310E-01  7.23425310E-01
  2.40534360E+00  7.23425310E-01  7.23425310E-01 -1.44685062E+00 -1.46507292E+00
  7.23425310E-01  7.23425310E-01  7.05203010E-01 -1.67827383E+00  7.05203010E-01
  5.95869210E-01  5.95869210E-01  5.95869210E-01 -5.62704624E+00  2.48734395E+00
  5.20975557E+00 -6.00242562E+00 -1.76756310E+00 -4.79246490E-01  2.55112200E+00
 -4.70135340E-01 -1.22636079E+00  2.51467740E+00 -1.71289620E+00 -1.29560553E+00
 -1.76756310E+00 -2.29600980E+00 -6.94269630E-01  2.51467740E+00 -1.56711780E+00
 -2.16845370E+00  2.53289970E+00  2.44178820E+00 -1.39218372E+00  8.96537160E-01
  8.96537160E-01 -5.28446700E-01  2.58756660E+00  2.51467740E+00 -1.44685062E+00
  8.23647960E-01  8.23647960E-01 -7.28892000E-01 -1.44685062E+00  7.23425310E-01
  7.23425310E-01 -2.15023140E+00 -2.15023140E+00 -1.44685062E+00  7.41647610E-01
  7.41647610E-01 -2.36889900E+00  2.46001050E+00 -2.36889900E+00  2.46001050E+00
 -1.44685062E+00  7.23425310E-01  7.23425310E-01 -2.29600980E+00  2.41445475E+00
  2.41445475E+00 -1.44685062E+00  7.23425310E-01  7.23425310E-01  2.40534360E+00
  7.23425310E-01  7.23425310E-01 -1.44685062E+00 -1.46507292E+00  7.23425310E-01
  7.23425310E-01  7.05203010E-01 -1.67827383E+00  7.05203010E-01  5.95869210E-01
  5.95869210E-01  5.95869210E-01 -5.62704624E+00  2.48734395E+00  5.20975557E+00
 -6.00242562E+00 -1.76756310E+00 -4.79246490E-01  2.55112200E+00 -4.70135340E-01
 -1.22636079E+00  2.51467740E+00 -1.71289620E+00 -1.29560553E+00 -1.76756310E+00
 -2.29600980E+00 -6.94269630E-01  2.51467740E+00 -1.56711780E+00 -2.16845370E+00
  2.53289970E+00  2.44178820E+00 -1.39218372E+00  8.96537160E-01  8.96537160E-01
 -5.28446700E-01  2.58756660E+00  2.51467740E+00 -1.44685062E+00  8.23647960E-01
  8.23647960E-01 -7.28892000E-01 -1.44685062E+00  7.23425310E-01  7.23425310E-01
 -2.15023140E+00 -2.15023140E+00 -1.44685062E+00  7.41647610E-01  7.41647610E-01
 -2.36889900E+00  2.46001050E+00 -2.36889900E+00  2.46001050E+00 -1.44685062E+00
  7.23425310E-01  7.23425310E-01 -2.29600980E+00  2.41445475E+00  2.41445475E+00
 -1.44685062E+00  7.23425310E-01  7.23425310E-01  2.40534360E+00  7.23425310E-01
  7.23425310E-01 -1.44685062E+00 -1.46507292E+00  7.23425310E-01  7.23425310E-01
  7.05203010E-01 -1.67827383E+00  7.05203010E-01  5.95869210E-01  5.95869210E-01
  5.95869210E-01 -5.62704624E+00  2.48734395E+00  5.20975557E+00 -6.00242562E+00
 -1.76756310E+00 -4.79246490E-01  2.55112200E+00 -4.70135340E-01 -1.22636079E+00
  2.51467740E+00 -1.71289620E+00 -1.29560553E+00 -1.76756310E+00 -2.29600980E+00
 -6.94269630E-01  2.51467740E+00 -1.56711780E+00 -2.16845370E+00  2.53289970E+00
  2.44178820E+00 -1.39218372E+00  8.96537160E-01  8.96537160E-01 -5.28446700E-01
  2.58756660E+00  2.51467740E+00 -1.44685062E+00  8.23647960E-01  8.23647960E-01
 -7.28892000E-01 -1.44685062E+00  7.23425310E-01  7.23425310E-01 -2.15023140E+00
 -2.15023140E+00 -1.44685062E+00  7.41647610E-01  7.41647610E-01 -2.36889900E+00
  2.46001050E+00 -2.36889900E+00  2.46001050E+00 -1.44685062E+00  7.23425310E-01
  7.23425310E-01 -2.29600980E+00  2.41445475E+00  2.41445475E+00 -1.44685062E+00
  7.23425310E-01  7.23425310E-01  2.40534360E+00  7.23425310E-01  7.23425310E-01
 -1.44685062E+00 -1.46507292E+00  7.23425310E-01  7.23425310E-01  7.05203010E-01
 -1.67827383E+00  7.05203010E-01  5.95869210E-01  5.95869210E-01  5.95869210E-01
 -5.62704624E+00  2.48734395E+00  5.20975557E+00 -6.00242562E+00 -1.76756310E+00
 -4.79246490E-01  2.55112200E+00 -4.70135340E-01 -1.22636079E+00  2.51467740E+00
 -1.71289620E+00 -1.29560553E+00 -1.76756310E+00 -2.29600980E+00 -6.94269630E-01
  2.51467740E+00 -1.56711780E+00 -2.16845370E+00  2.53289970E+00  2.44178820E+00
 -1.39218372E+00  8.96537160E-01  8.96537160E-01 -5.28446700E-01  2.58756660E+00
  2.51467740E+00 -1.44685062E+00  8.23647960E-01  8.23647960E-01 -7.28892000E-01
 -1.44685062E+00  7.23425310E-01  7.23425310E-01 -2.15023140E+00 -2.15023140E+00
 -1.44685062E+00  7.41647610E-01  7.41647610E-01 -2.36889900E+00  2.46001050E+00
 -2.36889900E+00  2.46001050E+00 -1.44685062E+00  7.23425310E-01  7.23425310E-01
 -2.29600980E+00  2.41445475E+00  2.41445475E+00 -1.44685062E+00  7.23425310E-01
  7.23425310E-01  2.40534360E+00  7.23425310E-01  7.23425310E-01 -1.44685062E+00
 -1.46507292E+00  7.23425310E-01  7.23425310E-01  7.05203010E-01 -1.67827383E+00
  7.05203010E-01  5.95869210E-01  5.95869210E-01  5.95869210E-01 -5.62704624E+00
  2.48734395E+00  5.20975557E+00 -6.00242562E+00 -1.76756310E+00 -4.79246490E-01
  2.55112200E+00 -4.70135340E-01 -1.22636079E+00  2.51467740E+00 -1.71289620E+00
 -1.29560553E+00 -1.76756310E+00 -2.29600980E+00 -6.94269630E-01  2.51467740E+00
 -1.56711780E+00 -2.16845370E+00  2.53289970E+00  2.44178820E+00 -1.39218372E+00
  8.96537160E-01  8.96537160E-01 -5.28446700E-01  2.58756660E+00  2.51467740E+00
 -1.44685062E+00  8.23647960E-01  8.23647960E-01 -7.28892000E-01 -1.44685062E+00
  7.23425310E-01  7.23425310E-01 -2.15023140E+00 -2.15023140E+00 -1.44685062E+00
  7.41647610E-01  7.41647610E-01 -2.36889900E+00  2.46001050E+00 -2.36889900E+00
  2.46001050E+00 -1.44685062E+00  7.23425310E-01  7.23425310E-01 -2.29600980E+00
  2.41445475E+00  2.41445475E+00 -1.44685062E+00  7.23425310E-01  7.23425310E-01
  2.40534360E+00  7.23425310E-01  7.23425310E-01 -1.44685062E+00 -1.46507292E+00
  7.23425310E-01  7.23425310E-01  7.05203010E-01 -1.67827383E+00  7.05203010E-01
  5.95869210E-01  5.95869210E-01  5.95869210E-01 -5.62704624E+00  2.48734395E+00
  5.20975557E+00 -6.00242562E+00 -1.76756310E+00 -4.79246490E-01  2.55112200E+00
 -4.70135340E-01 -1.22636079E+00  2.51467740E+00 -1.71289620E+00 -1.29560553E+00
 -1.76756310E+00 -2.29600980E+00 -6.94269630E-01  2.51467740E+00 -1.56711780E+00
 -2.16845370E+00  2.53289970E+00  2.44178820E+00 -1.39218372E+00  8.96537160E-01
  8.96537160E-01 -5.28446700E-01  2.58756660E+00  2.51467740E+00 -1.44685062E+00
  8.23647960E-01  8.23647960E-01 -7.28892000E-01 -1.44685062E+00  7.23425310E-01
  7.23425310E-01 -2.15023140E+00 -2.15023140E+00 -1.44685062E+00  7.41647610E-01
  7.41647610E-01 -2.36889900E+00  2.46001050E+00 -2.36889900E+00  2.46001050E+00
 -1.44685062E+00  7.23425310E-01  7.23425310E-01 -2.29600980E+00  2.41445475E+00
  2.41445475E+00 -1.44685062E+00  7.23425310E-01  7.23425310E-01  2.40534360E+00
  7.23425310E-01  7.23425310E-01 -1.44685062E+00 -1.46507292E+00  7.23425310E-01
  7.23425310E-01  7.05203010E-01 -1.67827383E+00  7.05203010E-01  5.95869210E-01
  5.95869210E-01  5.95869210E-01 -5.62704624E+00  2.48734395E+00  5.20975557E+00
 -6.00242562E+00 -1.76756310E+00 -4.79246490E-01  2.55112200E+00 -4.70135340E-01
 -1.22636079E+00  2.51467740E+00 -1.71289620E+00 -1.29560553E+00 -1.76756310E+00
 -2.29600980E+00 -6.94269630E-01  2.51467740E+00 -1.56711780E+00 -2.16845370E+00
  2.53289970E+00  2.44178820E+00 -1.39218372E+00  8.96537160E-01  8.96537160E-01
 -5.28446700E-01  2.58756660E+00  2.51467740E+00 -1.44685062E+00  8.23647960E-01
  8.23647960E-01 -7.28892000E-01 -1.44685062E+00  7.23425310E-01  7.23425310E-01
 -2.15023140E+00 -2.15023140E+00 -1.44685062E+00  7.41647610E-01  7.41647610E-01
 -2.36889900E+00  2.46001050E+00 -2.36889900E+00  2.46001050E+00 -1.44685062E+00
  7.23425310E-01  7.23425310E-01 -2.29600980E+00  2.41445475E+00  2.41445475E+00
 -1.44685062E+00  7.23425310E-01  7.23425310E-01  2.40534360E+00  7.23425310E-01
  7.23425310E-01 -1.44685062E+00 -1.46507292E+00  7.23425310E-01  7.23425310E-01
  7.05203010E-01 -1.67827383E+00  7.05203010E-01  5.95869210E-01  5.95869210E-01
  5.95869210E-01 -5.62704624E+00  2.48734395E+00  5.20975557E+00 -6.00242562E+00
 -1.76756310E+00 -4.79246490E-01  2.55112200E+00 -4.70135340E-01 -1.22636079E+00
  2.51467740E+00 -1.71289620E+00 -1.29560553E+00 -1.76756310E+00 -2.29600980E+00
 -6.94269630E-01  2.51467740E+00 -1.56711780E+00 -2.16845370E+00  2.53289970E+00
  2.44178820E+00 -1.39218372E+00  8.96537160E-01  8.96537160E-01 -5.28446700E-01
  2.58756660E+00  2.51467740E+00 -1.44685062E+00  8.23647960E-01  8.23647960E-01
 -7.28892000E-01 -1.44685062E+00  7.23425310E-01  7.23425310E-01 -2.15023140E+00
 -2.15023140E+00 -1.44685062E+00  7.41647610E-01  7.41647610E-01 -2.36889900E+00
  2.46001050E+00 -2.36889900E+00  2.46001050E+00 -1.44685062E+00  7.23425310E-01
  7.23425310E-01 -2.29600980E+00  2.41445475E+00  2.41445475E+00 -1.44685062E+00
  7.23425310E-01  7.23425310E-01  2.40534360E+00  7.23425310E-01  7.23425310E-01
 -1.44685062E+00 -1.46507292E+00  7.23425310E-01  7.23425310E-01  7.05203010E-01
 -1.67827383E+00  7.05203010E-01  5.95869210E-01  5.95869210E-01  5.95869210E-01
 -5.62704624E+00  2.48734395E+00  5.20975557E+00 -6.00242562E+00 -1.76756310E+00
 -4.79246490E-01  2.55112200E+00 -4.70135340E-01 -1.22636079E+00  2.51467740E+00
 -1.71289620E+00 -1.29560553E+00 -1.76756310E+00 -2.29600980E+00 -6.94269630E-01
  2.51467740E+00 -1.56711780E+00 -2.16845370E+00  2.53289970E+00  2.44178820E+00
 -1.39218372E+00  8.96537160E-01  8.96537160E-01 -5.28446700E-01  2.58756660E+00
  2.51467740E+00 -1.44685062E+00  8.23647960E-01  8.23647960E-01 -7.28892000E-01
 -1.44685062E+00  7.23425310E-01  7.23425310E-01 -2.15023140E+00 -2.15023140E+00
 -1.44685062E+00  7.41647610E-01  7.41647610E-01 -2.36889900E+00  2.46001050E+00
 -2.36889900E+00  2.46001050E+00 -1.44685062E+00  7.23425310E-01  7.23425310E-01
 -2.29600980E+00  2.41445475E+00  2.41445475E+00 -1.44685062E+00  7.23425310E-01
  7.23425310E-01  2.40534360E+00  7.23425310E-01  7.23425310E-01 -1.44685062E+00
 -1.46507292E+00  7.23425310E-01  7.23425310E-01  7.05203010E-01 -1.67827383E+00
  7.05203010E-01  5.95869210E-01  5.95869210E-01  5.95869210E-01 -5.62704624E+00
  2.48734395E+00  5.20975557E+00 -6.00242562E+00 -1.76756310E+00 -4.79246490E-01
  2.55112200E+00 -4.70135340E-01 -1.22636079E+00  2.51467740E+00 -1.71289620E+00
 -1.29560553E+00 -1.76756310E+00 -2.29600980E+00 -6.94269630E-01  2.51467740E+00
 -1.56711780E+00 -2.16845370E+00  2.53289970E+00  2.44178820E+00 -1.39218372E+00
  8.96537160E-01  8.96537160E-01 -5.28446700E-01  2.58756660E+00  2.51467740E+00
 -1.44685062E+00  8.23647960E-01  8.23647960E-01 -7.28892000E-01 -1.44685062E+00
  7.23425310E-01  7.23425310E-01 -2.15023140E+00 -2.15023140E+00 -1.44685062E+00
  7.41647610E-01  7.41647610E-01 -2.36889900E+00  2.46001050E+00 -2.36889900E+00
  2.46001050E+00 -1.44685062E+00  7.23425310E-01  7.23425310E-01 -2.29600980E+00
  2.41445475E+00  2.41445475E+00 -1.44685062E+00  7.23425310E-01  7.23425310E-01
  2.40534360E+00  7.23425310E-01  7.23425310E-01 -1.44685062E+00 -1.46507292E+00
  7.23425310E-01  7.23425310E-01  7.05203010E-01 -1.67827383E+00  7.05203010E-01
  5.95869210E-01  5.95869210E-01  5.95869210E-01 -5.62704624E+00  2.48734395E+00
  5.20975557E+00 -6.00242562E+00 -1.76756310E+00 -4.79246490E-01  2.55112200E+00
 -4.70135340E-01 -1.22636079E+00  2.51467740E+00 -1.71289620E+00 -1.29560553E+00
 -1.76756310E+00 -2.29600980E+00 -6.94269630E-01  2.51467740E+00 -1.56711780E+00
 -2.16845370E+00  2.53289970E+00  2.44178820E+00 -1.39218372E+00  8.96537160E-01
  8.96537160E-01 -5.28446700E-01  2.58756660E+00  2.51467740E+00 -1.44685062E+00
  8.23647960E-01  8.23647960E-01 -7.28892000E-01 -1.44685062E+00  7.23425310E-01
  7.23425310E-01 -2.15023140E+00 -2.15023140E+00 -1.44685062E+00  7.41647610E-01
  7.41647610E-01 -2.36889900E+00  2.46001050E+00 -2.36889900E+00  2.46001050E+00
 -1.44685062E+00  7.23425310E-01  7.23425310E-01 -2.29600980E+00  2.41445475E+00
  2.41445475E+00 -1.44685062E+00  7.23425310E-01  7.23425310E-01  2.40534360E+00
  7.23425310E-01  7.23425310E-01 -1.44685062E+00 -1.46507292E+00  7.23425310E-01
  7.23425310E-01  7.05203010E-01 -1.67827383E+00  7.05203010E-01  5.95869210E-01
  5.95869210E-01  5.95869210E-01 -5.62704624E+00  2.48734395E+00  5.20975557E+00
 -6.00242562E+00 -1.76756310E+00 -4.79246490E-01  2.55112200E+00 -4.70135340E-01
 -1.22636079E+00  2.51467740E+00 -1.71289620E+00 -1.29560553E+00 -1.76756310E+00
 -2.29600980E+00 -6.94269630E-01  2.51467740E+00 -1.56711780E+00 -2.16845370E+00
  2.53289970E+00  2.44178820E+00 -1.39218372E+00  8.96537160E-01  8.96537160E-01
 -5.28446700E-01  2.58756660E+00  2.51467740E+00 -1.44685062E+00  8.23647960E-01
  8.23647960E-01 -7.28892000E-01 -1.44685062E+00  7.23425310E-01  7.23425310E-01
 -2.15023140E+00 -2.15023140E+00 -1.44685062E+00  7.41647610E-01  7.41647610E-01
 -2.36889900E+00  2.46001050E+00 -2.36889900E+00  2.46001050E+00 -1.44685062E+00
  7.23425310E-01  7.23425310E-01 -2.29600980E+00  2.41445475E+00  2.41445475E+00
 -1.44685062E+00  7.23425310E-01  7.23425310E-01  2.40534360E+00  7.23425310E-01
  7.23425310E-01 -1.44685062E+00 -1.46507292E+00  7.23425310E-01  7.23425310E-01
  7.05203010E-01 -1.67827383E+00  7.05203010E-01  5.95869210E-01  5.95869210E-01
  5.95869210E-01 -5.62704624E+00  2.48734395E+00  5.20975557E+00 -6.00242562E+00
 -1.76756310E+00 -4.79246490E-01  2.55112200E+00 -4.70135340E-01 -1.22636079E+00
  2.51467740E+00 -1.71289620E+00 -1.29560553E+00 -1.76756310E+00 -2.29600980E+00
 -6.94269630E-01  2.51467740E+00 -1.56711780E+00 -2.16845370E+00  2.53289970E+00
  2.44178820E+00 -1.39218372E+00  8.96537160E-01  8.96537160E-01 -5.28446700E-01
  2.58756660E+00  2.51467740E+00 -1.44685062E+00  8.23647960E-01  8.23647960E-01
 -7.28892000E-01 -1.44685062E+00  7.23425310E-01  7.23425310E-01 -2.15023140E+00
 -2.15023140E+00 -1.44685062E+00  7.41647610E-01  7.41647610E-01 -2.36889900E+00
  2.46001050E+00 -2.36889900E+00  2.46001050E+00 -1.44685062E+00  7.23425310E-01
  7.23425310E-01 -2.29600980E+00  2.41445475E+00  2.41445475E+00 -1.44685062E+00
  7.23425310E-01  7.23425310E-01  2.40534360E+00  7.23425310E-01  7.23425310E-01
 -1.44685062E+00 -1.46507292E+00  7.23425310E-01  7.23425310E-01  7.05203010E-01
 -1.67827383E+00  7.05203010E-01  5.95869210E-01  5.95869210E-01  5.95869210E-01
 -5.62704624E+00  2.48734395E+00  5.20975557E+00 -6.00242562E+00 -1.76756310E+00
 -4.79246490E-01  2.55112200E+00 -4.70135340E-01 -1.22636079E+00  2.51467740E+00
 -1.71289620E+00 -1.29560553E+00 -1.76756310E+00 -2.29600980E+00 -6.94269630E-01
  2.51467740E+00 -1.56711780E+00 -2.16845370E+00  2.53289970E+00  2.44178820E+00
 -1.39218372E+00  8.96537160E-01  8.96537160E-01 -5.28446700E-01  2.58756660E+00
  2.51467740E+00 -1.44685062E+00  8.23647960E-01  8.23647960E-01 -7.28892000E-01
 -1.44685062E+00  7.23425310E-01  7.23425310E-01 -2.15023140E+00 -2.15023140E+00
 -1.44685062E+00  7.41647610E-01  7.41647610E-01 -2.36889900E+00  2.46001050E+00
 -2.36889900E+00  2.46001050E+00 -1.44685062E+00  7.23425310E-01  7.23425310E-01
 -2.29600980E+00  2.41445475E+00  2.41445475E+00 -1.44685062E+00  7.23425310E-01
  7.23425310E-01  2.40534360E+00  7.23425310E-01  7.23425310E-01 -1.44685062E+00
 -1.46507292E+00  7.23425310E-01  7.23425310E-01  7.05203010E-01 -1.67827383E+00
  7.05203010E-01  5.95869210E-01  5.95869210E-01  5.95869210E-01 -5.62704624E+00
  2.48734395E+00  5.20975557E+00 -6.00242562E+00 -1.76756310E+00 -4.79246490E-01
  2.55112200E+00 -4.70135340E-01 -1.22636079E+00  2.51467740E+00 -1.71289620E+00
 -1.29560553E+00 -1.76756310E+00 -2.29600980E+00 -6.94269630E-01  2.51467740E+00
 -1.56711780E+00 -2.16845370E+00  2.53289970E+00  2.44178820E+00 -1.39218372E+00
  8.96537160E-01  8.96537160E-01 -5.28446700E-01  2.58756660E+00  2.51467740E+00
 -1.44685062E+00  8.23647960E-01  8.23647960E-01 -7.28892000E-01 -1.44685062E+00
  7.23425310E-01  7.23425310E-01 -2.15023140E+00 -2.15023140E+00 -1.44685062E+00
  7.41647610E-01  7.41647610E-01 -2.36889900E+00  2.46001050E+00 -2.36889900E+00
  2.46001050E+00 -1.44685062E+00  7.23425310E-01  7.23425310E-01 -2.29600980E+00
  2.41445475E+00  2.41445475E+00 -1.44685062E+00  7.23425310E-01  7.23425310E-01
  2.40534360E+00  7.23425310E-01  7.23425310E-01 -1.44685062E+00 -1.46507292E+00
  7.23425310E-01  7.23425310E-01  7.05203010E-01 -1.67827383E+00  7.05203010E-01
  5.95869210E-01  5.95869210E-01  5.95869210E-01 -5.62704624E+00  2.48734395E+00
  5.20975557E+00 -6.00242562E+00 -1.76756310E+00 -4.79246490E-01  2.55112200E+00
 -4.70135340E-01 -1.22636079E+00  2.51467740E+00 -1.71289620E+00 -1.29560553E+00
 -1.76756310E+00 -2.29600980E+00 -6.94269630E-01  2.51467740E+00 -1.56711780E+00
 -2.16845370E+00  2.53289970E+00  2.44178820E+00 -1.39218372E+00  8.96537160E-01
  8.96537160E-01 -5.28446700E-01  2.58756660E+00  2.51467740E+00 -1.44685062E+00
  8.23647960E-01  8.23647960E-01 -7.28892000E-01 -1.44685062E+00  7.23425310E-01
  7.23425310E-01 -2.15023140E+00 -2.15023140E+00 -1.44685062E+00  7.41647610E-01
  7.41647610E-01 -2.36889900E+00  2.46001050E+00 -2.36889900E+00  2.46001050E+00
 -1.44685062E+00  7.23425310E-01  7.23425310E-01 -2.29600980E+00  2.41445475E+00
  2.41445475E+00 -1.44685062E+00  7.23425310E-01  7.23425310E-01  2.40534360E+00
  7.23425310E-01  7.23425310E-01 -1.44685062E+00 -1.46507292E+00  7.23425310E-01
  7.23425310E-01  7.05203010E-01 -1.67827383E+00  7.05203010E-01  5.95869210E-01
  5.95869210E-01  5.95869210E-01 -5.62704624E+00  2.48734395E+00  5.20975557E+00
 -6.00242562E+00 -1.76756310E+00 -4.79246490E-01  2.55112200E+00 -4.70135340E-01
 -1.22636079E+00  2.51467740E+00 -1.71289620E+00 -1.29560553E+00 -1.76756310E+00
 -2.29600980E+00 -6.94269630E-01  2.51467740E+00 -1.56711780E+00 -2.16845370E+00
  2.53289970E+00  2.44178820E+00 -1.39218372E+00  8.96537160E-01  8.96537160E-01
 -5.28446700E-01  2.58756660E+00  2.51467740E+00 -1.44685062E+00  8.23647960E-01
  8.23647960E-01 -7.28892000E-01 -1.44685062E+00  7.23425310E-01  7.23425310E-01
 -2.15023140E+00 -2.15023140E+00 -1.44685062E+00  7.41647610E-01  7.41647610E-01
 -2.36889900E+00  2.46001050E+00 -2.36889900E+00  2.46001050E+00 -1.44685062E+00
  7.23425310E-01  7.23425310E-01 -2.29600980E+00  2.41445475E+00  2.41445475E+00
 -1.44685062E+00  7.23425310E-01  7.23425310E-01  2.40534360E+00  7.23425310E-01
  7.23425310E-01 -1.44685062E+00 -1.46507292E+00  7.23425310E-01  7.23425310E-01
  7.05203010E-01 -1.67827383E+00  7.05203010E-01  5.95869210E-01  5.95869210E-01
  5.95869210E-01 -5.62704624E+00  2.48734395E+00  5.20975557E+00 -6.00242562E+00
 -1.76756310E+00 -4.79246490E-01  2.55112200E+00 -4.70135340E-01 -1.22636079E+00
  2.51467740E+00 -1.71289620E+00 -1.29560553E+00 -1.76756310E+00 -2.29600980E+00
 -6.94269630E-01  2.51467740E+00 -1.56711780E+00 -2.16845370E+00  2.53289970E+00
  2.44178820E+00 -1.39218372E+00  8.96537160E-01  8.96537160E-01 -5.28446700E-01
  2.58756660E+00  2.51467740E+00 -1.44685062E+00  8.23647960E-01  8.23647960E-01
 -7.28892000E-01 -1.44685062E+00  7.23425310E-01  7.23425310E-01 -2.15023140E+00
 -2.15023140E+00 -1.44685062E+00  7.41647610E-01  7.41647610E-01 -2.36889900E+00
  2.46001050E+00 -2.36889900E+00  2.46001050E+00 -1.44685062E+00  7.23425310E-01
  7.23425310E-01 -2.29600980E+00  2.41445475E+00  2.41445475E+00 -1.44685062E+00
  7.23425310E-01  7.23425310E-01  2.40534360E+00  7.23425310E-01  7.23425310E-01
 -1.44685062E+00 -1.46507292E+00  7.23425310E-01  7.23425310E-01  7.05203010E-01
 -1.67827383E+00  7.05203010E-01  5.95869210E-01  5.95869210E-01  5.95869210E-01
 -5.62704624E+00  2.48734395E+00  5.20975557E+00 -6.00242562E+00 -1.76756310E+00
 -4.79246490E-01  2.55112200E+00 -4.70135340E-01 -1.22636079E+00  2.51467740E+00
 -1.71289620E+00 -1.29560553E+00 -1.76756310E+00 -2.29600980E+00 -6.94269630E-01
  2.51467740E+00 -1.56711780E+00 -2.16845370E+00  2.53289970E+00  2.44178820E+00
 -1.39218372E+00  8.96537160E-01  8.96537160E-01 -5.28446700E-01  2.58756660E+00
  2.51467740E+00 -1.44685062E+00  8.23647960E-01  8.23647960E-01 -7.28892000E-01
 -1.44685062E+00  7.23425310E-01  7.23425310E-01 -2.15023140E+00 -2.15023140E+00
 -1.44685062E+00  7.41647610E-01  7.41647610E-01 -2.36889900E+00  2.46001050E+00
 -2.36889900E+00  2.46001050E+00 -1.44685062E+00  7.23425310E-01  7.23425310E-01
 -2.29600980E+00  2.41445475E+00  2.41445475E+00 -1.44685062E+00  7.23425310E-01
  7.23425310E-01  2.40534360E+00  7.23425310E-01  7.23425310E-01 -1.44685062E+00
 -1.46507292E+00  7.23425310E-01  7.23425310E-01  7.05203010E-01 -1.67827383E+00
  7.05203010E-01  5.95869210E-01  5.95869210E-01  5.95869210E-01 -5.62704624E+00
  2.48734395E+00  5.20975557E+00 -6.00242562E+00 -1.76756310E+00 -4.79246490E-01
  2.55112200E+00 -4.70135340E-01 -1.22636079E+00  2.51467740E+00 -1.71289620E+00
 -1.29560553E+00 -1.76756310E+00 -2.29600980E+00 -6.94269630E-01  2.51467740E+00
 -1.56711780E+00 -2.16845370E+00  2.53289970E+00  2.44178820E+00 -1.39218372E+00
  8.96537160E-01  8.96537160E-01 -5.28446700E-01  2.58756660E+00  2.51467740E+00
 -1.44685062E+00  8.23647960E-01  8.23647960E-01 -7.28892000E-01 -1.44685062E+00
  7.23425310E-01  7.23425310E-01 -2.15023140E+00 -2.15023140E+00 -1.44685062E+00
  7.41647610E-01  7.41647610E-01 -2.36889900E+00  2.46001050E+00 -2.36889900E+00
  2.46001050E+00 -1.44685062E+00  7.23425310E-01  7.23425310E-01 -2.29600980E+00
  2.41445475E+00  2.41445475E+00 -1.44685062E+00  7.23425310E-01  7.23425310E-01
  2.40534360E+00  7.23425310E-01  7.23425310E-01 -1.44685062E+00 -1.46507292E+00
  7.23425310E-01  7.23425310E-01  7.05203010E-01 -1.67827383E+00  7.05203010E-01
  5.95869210E-01  5.95869210E-01  5.95869210E-01 -5.62704624E+00  2.48734395E+00
  5.20975557E+00 -6.00242562E+00 -1.76756310E+00 -4.79246490E-01  2.55112200E+00
 -4.70135340E-01 -1.22636079E+00  2.51467740E+00 -1.71289620E+00 -1.29560553E+00
 -1.76756310E+00 -2.29600980E+00 -6.94269630E-01  2.51467740E+00 -1.56711780E+00
 -2.16845370E+00  2.53289970E+00  2.44178820E+00 -1.39218372E+00  8.96537160E-01
  8.96537160E-01 -5.28446700E-01  2.58756660E+00  2.51467740E+00 -1.44685062E+00
  8.23647960E-01  8.23647960E-01 -7.28892000E-01 -1.44685062E+00  7.23425310E-01
  7.23425310E-01 -2.15023140E+00 -2.15023140E+00 -1.44685062E+00  7.41647610E-01
  7.41647610E-01 -2.36889900E+00  2.46001050E+00 -2.36889900E+00  2.46001050E+00
 -1.44685062E+00  7.23425310E-01  7.23425310E-01 -2.29600980E+00  2.41445475E+00
  2.41445475E+00 -1.44685062E+00  7.23425310E-01  7.23425310E-01  2.40534360E+00
  7.23425310E-01  7.23425310E-01 -1.44685062E+00 -1.46507292E+00  7.23425310E-01
  7.23425310E-01  7.05203010E-01 -1.67827383E+00  7.05203010E-01  5.95869210E-01
  5.95869210E-01  5.95869210E-01 -5.62704624E+00  2.48734395E+00  5.20975557E+00
 -6.00242562E+00 -1.76756310E+00 -4.79246490E-01  2.55112200E+00 -4.70135340E-01
 -1.22636079E+00  2.51467740E+00 -1.71289620E+00 -1.29560553E+00 -1.76756310E+00
 -2.29600980E+00 -6.94269630E-01  2.51467740E+00 -1.56711780E+00 -2.16845370E+00
  2.53289970E+00  2.44178820E+00 -1.39218372E+00  8.96537160E-01  8.96537160E-01
 -5.28446700E-01  2.58756660E+00  2.51467740E+00 -1.44685062E+00  8.23647960E-01
  8.23647960E-01 -7.28892000E-01 -1.44685062E+00  7.23425310E-01  7.23425310E-01
 -2.15023140E+00 -2.15023140E+00 -1.44685062E+00  7.41647610E-01  7.41647610E-01
 -2.36889900E+00  2.46001050E+00 -2.36889900E+00  2.46001050E+00 -1.44685062E+00
  7.23425310E-01  7.23425310E-01 -2.29600980E+00  2.41445475E+00  2.41445475E+00
 -1.44685062E+00  7.23425310E-01  7.23425310E-01  2.40534360E+00  7.23425310E-01
  7.23425310E-01 -1.44685062E+00 -1.46507292E+00  7.23425310E-01  7.23425310E-01
  7.05203010E-01 -1.67827383E+00  7.05203010E-01  5.95869210E-01  5.95869210E-01
  5.95869210E-01 -5.62704624E+00  2.48734395E+00  5.20975557E+00 -6.00242562E+00
 -1.76756310E+00 -4.79246490E-01  2.55112200E+00 -4.70135340E-01 -1.22636079E+00
  2.51467740E+00 -1.71289620E+00 -1.29560553E+00 -1.76756310E+00 -2.29600980E+00
 -6.94269630E-01  2.51467740E+00 -1.56711780E+00 -2.16845370E+00  2.53289970E+00
  2.44178820E+00 -1.39218372E+00  8.96537160E-01  8.96537160E-01 -5.28446700E-01
  2.58756660E+00  2.51467740E+00 -1.44685062E+00  8.23647960E-01  8.23647960E-01
 -7.28892000E-01 -1.44685062E+00  7.23425310E-01  7.23425310E-01 -2.15023140E+00
 -2.15023140E+00 -1.44685062E+00  7.41647610E-01  7.41647610E-01 -2.36889900E+00
  2.46001050E+00 -2.36889900E+00  2.46001050E+00 -1.44685062E+00  7.23425310E-01
  7.23425310E-01 -2.29600980E+00  2.41445475E+00  2.41445475E+00 -1.44685062E+00
  7.23425310E-01  7.23425310E-01  2.40534360E+00  7.23425310E-01  7.23425310E-01
 -1.44685062E+00 -1.46507292E+00  7.23425310E-01  7.23425310E-01  7.05203010E-01
 -1.67827383E+00  7.05203010E-01  5.95869210E-01  5.95869210E-01  5.95869210E-01
 -5.62704624E+00  2.48734395E+00  5.20975557E+00 -6.00242562E+00 -1.76756310E+00
 -4.79246490E-01  2.55112200E+00 -4.70135340E-01 -1.22636079E+00  2.51467740E+00
 -1.71289620E+00 -1.29560553E+00 -1.76756310E+00 -2.29600980E+00 -6.94269630E-01
  2.51467740E+00 -1.56711780E+00 -2.16845370E+00  2.53289970E+00  2.44178820E+00
 -1.39218372E+00  8.96537160E-01  8.96537160E-01 -5.28446700E-01  2.58756660E+00
  2.51467740E+00 -1.44685062E+00  8.23647960E-01  8.23647960E-01 -7.28892000E-01
 -1.44685062E+00  7.23425310E-01  7.23425310E-01 -2.15023140E+00 -2.15023140E+00
 -1.44685062E+00  7.41647610E-01  7.41647610E-01 -2.36889900E+00  2.46001050E+00
 -2.36889900E+00  2.46001050E+00 -1.44685062E+00  7.23425310E-01  7.23425310E-01
 -2.29600980E+00  2.41445475E+00  2.41445475E+00 -1.44685062E+00  7.23425310E-01
  7.23425310E-01  2.40534360E+00  7.23425310E-01  7.23425310E-01 -1.44685062E+00
 -1.46507292E+00  7.23425310E-01  7.23425310E-01  7.05203010E-01 -1.67827383E+00
  7.05203010E-01  5.95869210E-01  5.95869210E-01  5.95869210E-01 -5.62704624E+00
  2.48734395E+00  5.20975557E+00 -6.00242562E+00 -1.76756310E+00 -4.79246490E-01
  2.55112200E+00 -4.70135340E-01 -1.22636079E+00  2.51467740E+00 -1.71289620E+00
 -1.29560553E+00 -1.76756310E+00 -2.29600980E+00 -6.94269630E-01  2.51467740E+00
 -1.56711780E+00 -2.16845370E+00  2.53289970E+00  2.44178820E+00 -1.39218372E+00
  8.96537160E-01  8.96537160E-01 -5.28446700E-01  2.58756660E+00  2.51467740E+00
 -1.44685062E+00  8.23647960E-01  8.23647960E-01 -7.28892000E-01 -1.44685062E+00
  7.23425310E-01  7.23425310E-01 -2.15023140E+00 -2.15023140E+00 -1.44685062E+00
  7.41647610E-01  7.41647610E-01 -2.36889900E+00  2.46001050E+00 -2.36889900E+00
  2.46001050E+00 -1.44685062E+00  7.23425310E-01  7.23425310E-01 -2.29600980E+00
  2.41445475E+00  2.41445475E+00 -1.44685062E+00  7.23425310E-01  7.23425310E-01
  2.40534360E+00  7.23425310E-01  7.23425310E-01 -1.44685062E+00 -1.46507292E+00
  7.23425310E-01  7.23425310E-01  7.05203010E-01 -1.67827383E+00  7.05203010E-01
  5.95869210E-01  5.95869210E-01  5.95869210E-01 -5.62704624E+00  2.48734395E+00
  5.20975557E+00 -6.00242562E+00 -1.76756310E+00 -4.79246490E-01  2.55112200E+00
 -4.70135340E-01 -1.22636079E+00  2.51467740E+00 -1.71289620E+00 -1.29560553E+00
 -1.76756310E+00 -2.29600980E+00 -6.94269630E-01  2.51467740E+00 -1.56711780E+00
 -2.16845370E+00  2.53289970E+00  2.44178820E+00 -1.39218372E+00  8.96537160E-01
  8.96537160E-01 -5.28446700E-01  2.58756660E+00  2.51467740E+00 -1.44685062E+00
  8.23647960E-01  8.23647960E-01 -7.28892000E-01 -1.44685062E+00  7.23425310E-01
  7.23425310E-01 -2.15023140E+00 -2.15023140E+00 -1.44685062E+00  7.41647610E-01
  7.41647610E-01 -2.36889900E+00  2.46001050E+00 -2.36889900E+00  2.46001050E+00
 -1.44685062E+00  7.23425310E-01  7.23425310E-01 -2.29600980E+00  2.41445475E+00
  2.41445475E+00 -1.44685062E+00  7.23425310E-01  7.23425310E-01  2.40534360E+00
  7.23425310E-01  7.23425310E-01 -1.44685062E+00 -1.46507292E+00  7.23425310E-01
  7.23425310E-01  7.05203010E-01 -1.67827383E+00  7.05203010E-01  5.95869210E-01
  5.95869210E-01  5.95869210E-01 -5.62704624E+00  2.48734395E+00  5.20975557E+00
 -6.00242562E+00 -1.76756310E+00 -4.79246490E-01  2.55112200E+00 -4.70135340E-01
 -1.22636079E+00  2.51467740E+00 -1.71289620E+00 -1.29560553E+00 -1.76756310E+00
 -2.29600980E+00 -6.94269630E-01  2.51467740E+00 -1.56711780E+00 -2.16845370E+00
  2.53289970E+00  2.44178820E+00 -1.39218372E+00  8.96537160E-01  8.96537160E-01
 -5.28446700E-01  2.58756660E+00  2.51467740E+00 -1.44685062E+00  8.23647960E-01
  8.23647960E-01 -7.28892000E-01 -1.44685062E+00  7.23425310E-01  7.23425310E-01
 -2.15023140E+00 -2.15023140E+00 -1.44685062E+00  7.41647610E-01  7.41647610E-01
 -2.36889900E+00  2.46001050E+00 -2.36889900E+00  2.46001050E+00 -1.44685062E+00
  7.23425310E-01  7.23425310E-01 -2.29600980E+00  2.41445475E+00  2.41445475E+00
 -1.44685062E+00  7.23425310E-01  7.23425310E-01  2.40534360E+00  7.23425310E-01
  7.23425310E-01 -1.44685062E+00 -1.46507292E+00  7.23425310E-01  7.23425310E-01
  7.05203010E-01 -1.67827383E+00  7.05203010E-01  5.95869210E-01  5.95869210E-01
  5.95869210E-01 -5.62704624E+00  2.48734395E+00  5.20975557E+00 -6.00242562E+00
 -1.76756310E+00 -4.79246490E-01  2.55112200E+00 -4.70135340E-01 -1.22636079E+00
  2.51467740E+00 -1.71289620E+00 -1.29560553E+00 -1.76756310E+00 -2.29600980E+00
 -6.94269630E-01  2.51467740E+00 -1.56711780E+00 -2.16845370E+00  2.53289970E+00
  2.44178820E+00 -1.39218372E+00  8.96537160E-01  8.96537160E-01 -5.28446700E-01
  2.58756660E+00  2.51467740E+00 -1.44685062E+00  8.23647960E-01  8.23647960E-01
 -7.28892000E-01 -1.44685062E+00  7.23425310E-01  7.23425310E-01 -2.15023140E+00
 -2.15023140E+00 -1.44685062E+00  7.41647610E-01  7.41647610E-01 -2.36889900E+00
  2.46001050E+00 -2.36889900E+00  2.46001050E+00 -1.44685062E+00  7.23425310E-01
  7.23425310E-01 -2.29600980E+00  2.41445475E+00  2.41445475E+00 -1.44685062E+00
  7.23425310E-01  7.23425310E-01  2.40534360E+00  7.23425310E-01  7.23425310E-01
 -1.44685062E+00 -1.46507292E+00  7.23425310E-01  7.23425310E-01  7.05203010E-01
 -1.67827383E+00  7.05203010E-01  5.95869210E-01  5.95869210E-01  5.95869210E-01
 -5.62704624E+00  2.48734395E+00  5.20975557E+00 -6.00242562E+00 -1.76756310E+00
 -4.79246490E-01  2.55112200E+00 -4.70135340E-01 -1.22636079E+00  2.51467740E+00
 -1.71289620E+00 -1.29560553E+00 -1.76756310E+00 -2.29600980E+00 -6.94269630E-01
  2.51467740E+00 -1.56711780E+00 -2.16845370E+00  2.53289970E+00  2.44178820E+00
 -1.39218372E+00  8.96537160E-01  8.96537160E-01 -5.28446700E-01  2.58756660E+00
  2.51467740E+00 -1.44685062E+00  8.23647960E-01  8.23647960E-01 -7.28892000E-01
 -1.44685062E+00  7.23425310E-01  7.23425310E-01 -2.15023140E+00 -2.15023140E+00
 -1.44685062E+00  7.41647610E-01  7.41647610E-01 -2.36889900E+00  2.46001050E+00
 -2.36889900E+00  2.46001050E+00 -1.44685062E+00  7.23425310E-01  7.23425310E-01
 -2.29600980E+00  2.41445475E+00  2.41445475E+00 -1.44685062E+00  7.23425310E-01
  7.23425310E-01  2.40534360E+00  7.23425310E-01  7.23425310E-01 -1.44685062E+00
 -1.46507292E+00  7.23425310E-01  7.23425310E-01  7.05203010E-01 -1.67827383E+00
  7.05203010E-01  5.95869210E-01  5.95869210E-01  5.95869210E-01 -5.62704624E+00
  2.48734395E+00  5.20975557E+00 -6.00242562E+00 -1.76756310E+00 -4.79246490E-01
  2.55112200E+00 -4.70135340E-01 -1.22636079E+00  2.51467740E+00 -1.71289620E+00
 -1.29560553E+00 -1.76756310E+00 -2.29600980E+00 -6.94269630E-01  2.51467740E+00
 -1.56711780E+00 -2.16845370E+00  2.53289970E+00  2.44178820E+00 -1.39218372E+00
  8.96537160E-01  8.96537160E-01 -5.28446700E-01  2.58756660E+00  2.51467740E+00
 -1.44685062E+00  8.23647960E-01  8.23647960E-01 -7.28892000E-01 -1.44685062E+00
  7.23425310E-01  7.23425310E-01 -2.15023140E+00 -2.15023140E+00 -1.44685062E+00
  7.41647610E-01  7.41647610E-01 -2.36889900E+00  2.46001050E+00 -2.36889900E+00
  2.46001050E+00 -1.44685062E+00  7.23425310E-01  7.23425310E-01 -2.29600980E+00
  2.41445475E+00  2.41445475E+00 -1.44685062E+00  7.23425310E-01  7.23425310E-01
  2.40534360E+00  7.23425310E-01  7.23425310E-01 -1.44685062E+00 -1.46507292E+00
  7.23425310E-01  7.23425310E-01  7.05203010E-01 -1.67827383E+00  7.05203010E-01
  5.95869210E-01  5.95869210E-01  5.95869210E-01 -5.62704624E+00  2.48734395E+00
  5.20975557E+00 -6.00242562E+00 -1.76756310E+00 -4.79246490E-01  2.55112200E+00
 -4.70135340E-01 -1.22636079E+00  2.51467740E+00 -1.71289620E+00 -1.29560553E+00
 -1.76756310E+00 -2.29600980E+00 -6.94269630E-01  2.51467740E+00 -1.56711780E+00
 -2.16845370E+00  2.53289970E+00  2.44178820E+00 -1.39218372E+00  8.96537160E-01
  8.96537160E-01 -5.28446700E-01  2.58756660E+00  2.51467740E+00 -1.44685062E+00
  8.23647960E-01  8.23647960E-01 -7.28892000E-01 -1.44685062E+00  7.23425310E-01
  7.23425310E-01 -2.15023140E+00 -2.15023140E+00 -1.44685062E+00  7.41647610E-01
  7.41647610E-01 -2.36889900E+00  2.46001050E+00 -2.36889900E+00  2.46001050E+00
 -1.44685062E+00  7.23425310E-01  7.23425310E-01 -2.29600980E+00  2.41445475E+00
  2.41445475E+00 -1.44685062E+00  7.23425310E-01  7.23425310E-01  2.40534360E+00
  7.23425310E-01  7.23425310E-01 -1.44685062E+00 -1.46507292E+00  7.23425310E-01
  7.23425310E-01  7.05203010E-01 -1.67827383E+00  7.05203010E-01  5.95869210E-01
  5.95869210E-01  5.95869210E-01 -5.62704624E+00  2.48734395E+00  5.20975557E+00
 -6.00242562E+00 -1.76756310E+00 -4.79246490E-01  2.55112200E+00 -4.70135340E-01
 -1.22636079E+00  2.51467740E+00 -1.71289620E+00 -1.29560553E+00 -1.76756310E+00
 -2.29600980E+00 -6.94269630E-01  2.51467740E+00 -1.56711780E+00 -2.16845370E+00
  2.53289970E+00  2.44178820E+00 -1.39218372E+00  8.96537160E-01  8.96537160E-01
 -5.28446700E-01  2.58756660E+00  2.51467740E+00 -1.44685062E+00  8.23647960E-01
  8.23647960E-01 -7.28892000E-01 -1.44685062E+00  7.23425310E-01  7.23425310E-01
 -2.15023140E+00 -2.15023140E+00 -1.44685062E+00  7.41647610E-01  7.41647610E-01
 -2.36889900E+00  2.46001050E+00 -2.36889900E+00  2.46001050E+00 -1.44685062E+00
  7.23425310E-01  7.23425310E-01 -2.29600980E+00  2.41445475E+00  2.41445475E+00
 -1.44685062E+00  7.23425310E-01  7.23425310E-01  2.40534360E+00  7.23425310E-01
  7.23425310E-01 -1.44685062E+00 -1.46507292E+00  7.23425310E-01  7.23425310E-01
  7.05203010E-01 -1.67827383E+00  7.05203010E-01  5.95869210E-01  5.95869210E-01
  5.95869210E-01 -5.62704624E+00  2.48734395E+00  5.20975557E+00 -6.00242562E+00
 -1.76756310E+00 -4.79246490E-01  2.55112200E+00 -4.70135340E-01 -1.22636079E+00
  2.51467740E+00 -1.71289620E+00 -1.29560553E+00 -1.76756310E+00 -2.29600980E+00
 -6.94269630E-01  2.51467740E+00 -1.56711780E+00 -2.16845370E+00  2.53289970E+00
  2.44178820E+00 -1.39218372E+00  8.96537160E-01  8.96537160E-01 -5.28446700E-01
  2.58756660E+00  2.51467740E+00 -1.44685062E+00  8.23647960E-01  8.23647960E-01
 -7.28892000E-01 -1.44685062E+00  7.23425310E-01  7.23425310E-01 -2.15023140E+00
 -2.15023140E+00 -1.44685062E+00  7.41647610E-01  7.41647610E-01 -2.36889900E+00
  2.46001050E+00 -2.36889900E+00  2.46001050E+00 -1.44685062E+00  7.23425310E-01
  7.23425310E-01 -2.29600980E+00  2.41445475E+00  2.41445475E+00 -1.44685062E+00
  7.23425310E-01  7.23425310E-01  2.40534360E+00  7.23425310E-01  7.23425310E-01
 -1.44685062E+00 -1.46507292E+00  7.23425310E-01  7.23425310E-01  7.05203010E-01
 -1.67827383E+00  7.05203010E-01  5.95869210E-01  5.95869210E-01  5.95869210E-01
 -5.62704624E+00  2.48734395E+00  5.20975557E+00 -6.00242562E+00 -1.76756310E+00
 -4.79246490E-01  2.55112200E+00 -4.70135340E-01 -1.22636079E+00  2.51467740E+00
 -1.71289620E+00 -1.29560553E+00 -1.76756310E+00 -2.29600980E+00 -6.94269630E-01
  2.51467740E+00 -1.56711780E+00 -2.16845370E+00  2.53289970E+00  2.44178820E+00
 -1.39218372E+00  8.96537160E-01  8.96537160E-01 -5.28446700E-01  2.58756660E+00
  2.51467740E+00 -1.44685062E+00  8.23647960E-01  8.23647960E-01 -7.28892000E-01
 -1.44685062E+00  7.23425310E-01  7.23425310E-01 -2.15023140E+00 -2.15023140E+00
 -1.44685062E+00  7.41647610E-01  7.41647610E-01 -2.36889900E+00  2.46001050E+00
 -2.36889900E+00  2.46001050E+00 -1.44685062E+00  7.23425310E-01  7.23425310E-01
 -2.29600980E+00  2.41445475E+00  2.41445475E+00 -1.44685062E+00  7.23425310E-01
  7.23425310E-01  2.40534360E+00  7.23425310E-01  7.23425310E-01 -1.44685062E+00
 -1.46507292E+00  7.23425310E-01  7.23425310E-01  7.05203010E-01 -1.67827383E+00
  7.05203010E-01  5.95869210E-01  5.95869210E-01  5.95869210E-01 -5.62704624E+00
  2.48734395E+00  5.20975557E+00 -6.00242562E+00 -1.76756310E+00 -4.79246490E-01
  2.55112200E+00 -4.70135340E-01 -1.22636079E+00  2.51467740E+00 -1.71289620E+00
 -1.29560553E+00 -1.76756310E+00 -2.29600980E+00 -6.94269630E-01  2.51467740E+00
 -1.56711780E+00 -2.16845370E+00  2.53289970E+00  2.44178820E+00 -1.39218372E+00
  8.96537160E-01  8.96537160E-01 -5.28446700E-01  2.58756660E+00  2.51467740E+00
 -1.44685062E+00  8.23647960E-01  8.23647960E-01 -7.28892000E-01 -1.44685062E+00
  7.23425310E-01  7.23425310E-01 -2.15023140E+00 -2.15023140E+00 -1.44685062E+00
  7.41647610E-01  7.41647610E-01 -2.36889900E+00  2.46001050E+00 -2.36889900E+00
  2.46001050E+00 -1.44685062E+00  7.23425310E-01  7.23425310E-01 -2.29600980E+00
  2.41445475E+00  2.41445475E+00 -1.44685062E+00  7.23425310E-01  7.23425310E-01
  2.40534360E+00  7.23425310E-01  7.23425310E-01 -1.44685062E+00 -1.46507292E+00
  7.23425310E-01  7.23425310E-01  7.05203010E-01 -1.67827383E+00  7.05203010E-01
  5.95869210E-01  5.95869210E-01  5.95869210E-01 -5.62704624E+00  2.48734395E+00
  5.20975557E+00 -6.00242562E+00 -1.76756310E+00 -4.79246490E-01  2.55112200E+00
 -4.70135340E-01 -1.22636079E+00  2.51467740E+00 -1.71289620E+00 -1.29560553E+00
 -1.76756310E+00 -2.29600980E+00 -6.94269630E-01  2.51467740E+00 -1.56711780E+00
 -2.16845370E+00  2.53289970E+00  2.44178820E+00 -1.39218372E+00  8.96537160E-01
  8.96537160E-01 -5.28446700E-01  2.58756660E+00  2.51467740E+00 -1.44685062E+00
  8.23647960E-01  8.23647960E-01 -7.28892000E-01 -1.44685062E+00  7.23425310E-01
  7.23425310E-01 -2.15023140E+00 -2.15023140E+00 -1.44685062E+00  7.41647610E-01
  7.41647610E-01 -2.36889900E+00  2.46001050E+00 -2.36889900E+00  2.46001050E+00
 -1.44685062E+00  7.23425310E-01  7.23425310E-01 -2.29600980E+00  2.41445475E+00
  2.41445475E+00 -1.44685062E+00  7.23425310E-01  7.23425310E-01  2.40534360E+00
  7.23425310E-01  7.23425310E-01 -1.44685062E+00 -1.46507292E+00  7.23425310E-01
  7.23425310E-01  7.05203010E-01 -1.67827383E+00  7.05203010E-01  5.95869210E-01
  5.95869210E-01  5.95869210E-01 -5.62704624E+00  2.48734395E+00  5.20975557E+00
 -6.00242562E+00 -1.76756310E+00 -4.79246490E-01  2.55112200E+00 -4.70135340E-01
 -1.22636079E+00  2.51467740E+00 -1.71289620E+00 -1.29560553E+00 -1.76756310E+00
 -2.29600980E+00 -6.94269630E-01  2.51467740E+00 -1.56711780E+00 -2.16845370E+00
  2.53289970E+00  2.44178820E+00 -1.39218372E+00  8.96537160E-01  8.96537160E-01
 -5.28446700E-01  2.58756660E+00  2.51467740E+00 -1.44685062E+00  8.23647960E-01
  8.23647960E-01 -7.28892000E-01 -1.44685062E+00  7.23425310E-01  7.23425310E-01
 -2.15023140E+00 -2.15023140E+00 -1.44685062E+00  7.41647610E-01  7.41647610E-01
 -2.36889900E+00  2.46001050E+00 -2.36889900E+00  2.46001050E+00 -1.44685062E+00
  7.23425310E-01  7.23425310E-01 -2.29600980E+00  2.41445475E+00  2.41445475E+00
 -1.44685062E+00  7.23425310E-01  7.23425310E-01  2.40534360E+00  7.23425310E-01
  7.23425310E-01 -1.44685062E+00 -1.46507292E+00  7.23425310E-01  7.23425310E-01
  7.05203010E-01 -1.67827383E+00  7.05203010E-01  5.95869210E-01  5.95869210E-01
  5.95869210E-01 -5.62704624E+00  2.48734395E+00  5.20975557E+00 -6.00242562E+00
 -1.76756310E+00 -4.79246490E-01  2.55112200E+00 -4.70135340E-01 -1.22636079E+00
  2.51467740E+00 -1.71289620E+00 -1.29560553E+00 -1.76756310E+00 -2.29600980E+00
 -6.94269630E-01  2.51467740E+00 -1.56711780E+00 -2.16845370E+00  2.53289970E+00
  2.44178820E+00 -1.39218372E+00  8.96537160E-01  8.96537160E-01 -5.28446700E-01
  2.58756660E+00  2.51467740E+00 -1.44685062E+00  8.23647960E-01  8.23647960E-01
 -7.28892000E-01 -1.44685062E+00  7.23425310E-01  7.23425310E-01 -2.15023140E+00
 -2.15023140E+00 -1.44685062E+00  7.41647610E-01  7.41647610E-01 -2.36889900E+00
  2.46001050E+00 -2.36889900E+00  2.46001050E+00 -1.44685062E+00  7.23425310E-01
  7.23425310E-01 -2.29600980E+00  2.41445475E+00  2.41445475E+00 -1.44685062E+00
  7.23425310E-01  7.23425310E-01  2.40534360E+00  7.23425310E-01  7.23425310E-01
 -1.44685062E+00 -1.46507292E+00  7.23425310E-01  7.23425310E-01  7.05203010E-01
 -1.67827383E+00  7.05203010E-01  5.95869210E-01  5.95869210E-01  5.95869210E-01
 -5.62704624E+00  2.48734395E+00  5.20975557E+00 -6.00242562E+00 -1.76756310E+00
 -4.79246490E-01  2.55112200E+00 -4.70135340E-01 -1.22636079E+00  2.51467740E+00
 -1.71289620E+00 -1.29560553E+00 -1.76756310E+00 -2.29600980E+00 -6.94269630E-01
  2.51467740E+00 -1.56711780E+00 -2.16845370E+00  2.53289970E+00  2.44178820E+00
 -1.39218372E+00  8.96537160E-01  8.96537160E-01 -5.28446700E-01  2.58756660E+00
  2.51467740E+00 -1.44685062E+00  8.23647960E-01  8.23647960E-01 -7.28892000E-01
 -1.44685062E+00  7.23425310E-01  7.23425310E-01 -2.15023140E+00 -2.15023140E+00
 -1.44685062E+00  7.41647610E-01  7.41647610E-01 -2.36889900E+00  2.46001050E+00
 -2.36889900E+00  2.46001050E+00 -1.44685062E+00  7.23425310E-01  7.23425310E-01
 -2.29600980E+00  2.41445475E+00  2.41445475E+00 -1.44685062E+00  7.23425310E-01
  7.23425310E-01  2.40534360E+00  7.23425310E-01  7.23425310E-01 -1.44685062E+00
 -1.46507292E+00  7.23425310E-01  7.23425310E-01  7.05203010E-01 -1.67827383E+00
  7.05203010E-01  5.95869210E-01  5.95869210E-01  5.95869210E-01 -5.62704624E+00
  2.48734395E+00  5.20975557E+00 -6.00242562E+00 -1.76756310E+00 -4.79246490E-01
  2.55112200E+00 -4.70135340E-01 -1.22636079E+00  2.51467740E+00 -1.71289620E+00
 -1.29560553E+00 -1.76756310E+00 -2.29600980E+00 -6.94269630E-01  2.51467740E+00
 -1.56711780E+00 -2.16845370E+00  2.53289970E+00  2.44178820E+00 -1.39218372E+00
  8.96537160E-01  8.96537160E-01 -5.28446700E-01  2.58756660E+00  2.51467740E+00
 -1.44685062E+00  8.23647960E-01  8.23647960E-01 -7.28892000E-01 -1.44685062E+00
  7.23425310E-01  7.23425310E-01 -2.15023140E+00 -2.15023140E+00 -1.44685062E+00
  7.41647610E-01  7.41647610E-01 -2.36889900E+00  2.46001050E+00 -2.36889900E+00
  2.46001050E+00 -1.44685062E+00  7.23425310E-01  7.23425310E-01 -2.29600980E+00
  2.41445475E+00  2.41445475E+00 -1.44685062E+00  7.23425310E-01  7.23425310E-01
  2.40534360E+00  7.23425310E-01  7.23425310E-01 -1.44685062E+00 -1.46507292E+00
  7.23425310E-01  7.23425310E-01  7.05203010E-01 -1.67827383E+00  7.05203010E-01
  5.95869210E-01  5.95869210E-01  5.95869210E-01 -5.62704624E+00  2.48734395E+00
  5.20975557E+00 -6.00242562E+00 -1.76756310E+00 -4.79246490E-01  2.55112200E+00
 -4.70135340E-01 -1.22636079E+00  2.51467740E+00 -1.71289620E+00 -1.29560553E+00
 -1.76756310E+00 -2.29600980E+00 -6.94269630E-01  2.51467740E+00 -1.56711780E+00
 -2.16845370E+00  2.53289970E+00  2.44178820E+00 -1.39218372E+00  8.96537160E-01
  8.96537160E-01 -5.28446700E-01  2.58756660E+00  2.51467740E+00 -1.44685062E+00
  8.23647960E-01  8.23647960E-01 -7.28892000E-01 -1.44685062E+00  7.23425310E-01
  7.23425310E-01 -2.15023140E+00 -2.15023140E+00 -1.44685062E+00  7.41647610E-01
  7.41647610E-01 -2.36889900E+00  2.46001050E+00 -2.36889900E+00  2.46001050E+00
 -1.44685062E+00  7.23425310E-01  7.23425310E-01 -2.29600980E+00  2.41445475E+00
  2.41445475E+00 -1.44685062E+00  7.23425310E-01  7.23425310E-01  2.40534360E+00
  7.23425310E-01  7.23425310E-01 -1.44685062E+00 -1.46507292E+00  7.23425310E-01
  7.23425310E-01  7.05203010E-01 -1.67827383E+00  7.05203010E-01  5.95869210E-01
  5.95869210E-01  5.95869210E-01 -5.62704624E+00  2.48734395E+00  5.20975557E+00
 -6.00242562E+00 -1.76756310E+00 -4.79246490E-01  2.55112200E+00 -4.70135340E-01
 -1.22636079E+00  2.51467740E+00 -1.71289620E+00 -1.29560553E+00 -1.76756310E+00
 -2.29600980E+00 -6.94269630E-01  2.51467740E+00 -1.56711780E+00 -2.16845370E+00
  2.53289970E+00  2.44178820E+00 -1.39218372E+00  8.96537160E-01  8.96537160E-01
 -5.28446700E-01  2.58756660E+00  2.51467740E+00 -1.44685062E+00  8.23647960E-01
  8.23647960E-01 -7.28892000E-01 -1.44685062E+00  7.23425310E-01  7.23425310E-01
 -2.15023140E+00 -2.15023140E+00 -1.44685062E+00  7.41647610E-01  7.41647610E-01
 -2.36889900E+00  2.46001050E+00 -2.36889900E+00  2.46001050E+00 -1.44685062E+00
  7.23425310E-01  7.23425310E-01 -2.29600980E+00  2.41445475E+00  2.41445475E+00
 -1.44685062E+00  7.23425310E-01  7.23425310E-01  2.40534360E+00  7.23425310E-01
  7.23425310E-01 -1.44685062E+00 -1.46507292E+00  7.23425310E-01  7.23425310E-01
  7.05203010E-01 -1.67827383E+00  7.05203010E-01  5.95869210E-01  5.95869210E-01
  5.95869210E-01 -5.62704624E+00  2.48734395E+00  5.20975557E+00 -6.00242562E+00
 -1.76756310E+00 -4.79246490E-01  2.55112200E+00 -4.70135340E-01 -1.22636079E+00
  2.51467740E+00 -1.71289620E+00 -1.29560553E+00 -1.76756310E+00 -2.29600980E+00
 -6.94269630E-01  2.51467740E+00 -1.56711780E+00 -2.16845370E+00  2.53289970E+00
  2.44178820E+00 -1.39218372E+00  8.96537160E-01  8.96537160E-01 -5.28446700E-01
  2.58756660E+00  2.51467740E+00 -1.44685062E+00  8.23647960E-01  8.23647960E-01
 -7.28892000E-01 -1.44685062E+00  7.23425310E-01  7.23425310E-01 -2.15023140E+00
 -2.15023140E+00 -1.44685062E+00  7.41647610E-01  7.41647610E-01 -2.36889900E+00
  2.46001050E+00 -2.36889900E+00  2.46001050E+00 -1.44685062E+00  7.23425310E-01
  7.23425310E-01 -2.29600980E+00  2.41445475E+00  2.41445475E+00 -1.44685062E+00
  7.23425310E-01  7.23425310E-01  2.40534360E+00  7.23425310E-01  7.23425310E-01
 -1.44685062E+00 -1.46507292E+00  7.23425310E-01  7.23425310E-01  7.05203010E-01
 -1.67827383E+00  7.05203010E-01  5.95869210E-01  5.95869210E-01  5.95869210E-01
 -5.62704624E+00  2.48734395E+00  5.20975557E+00 -6.00242562E+00 -1.76756310E+00
 -4.79246490E-01  2.55112200E+00 -4.70135340E-01 -1.22636079E+00  2.51467740E+00
 -1.71289620E+00 -1.29560553E+00 -1.76756310E+00 -2.29600980E+00 -6.94269630E-01
  2.51467740E+00 -1.56711780E+00 -2.16845370E+00  2.53289970E+00  2.44178820E+00
 -1.39218372E+00  8.96537160E-01  8.96537160E-01 -5.28446700E-01  2.58756660E+00
  2.51467740E+00 -1.44685062E+00  8.23647960E-01  8.23647960E-01 -7.28892000E-01
 -1.44685062E+00  7.23425310E-01  7.23425310E-01 -2.15023140E+00 -2.15023140E+00
 -1.44685062E+00  7.41647610E-01  7.41647610E-01 -2.36889900E+00  2.46001050E+00
 -2.36889900E+00  2.46001050E+00 -1.44685062E+00  7.23425310E-01  7.23425310E-01
 -2.29600980E+00  2.41445475E+00  2.41445475E+00 -1.44685062E+00  7.23425310E-01
  7.23425310E-01  2.40534360E+00  7.23425310E-01  7.23425310E-01 -1.44685062E+00
 -1.46507292E+00  7.23425310E-01  7.23425310E-01  7.05203010E-01 -1.67827383E+00
  7.05203010E-01  5.95869210E-01  5.95869210E-01  5.95869210E-01 -5.62704624E+00
  2.48734395E+00  5.20975557E+00 -6.00242562E+00 -1.76756310E+00 -4.79246490E-01
  2.55112200E+00 -4.70135340E-01 -1.22636079E+00  2.51467740E+00 -1.71289620E+00
 -1.29560553E+00 -1.76756310E+00 -2.29600980E+00 -6.94269630E-01  2.51467740E+00
 -1.56711780E+00 -2.16845370E+00  2.53289970E+00  2.44178820E+00 -1.39218372E+00
  8.96537160E-01  8.96537160E-01 -5.28446700E-01  2.58756660E+00  2.51467740E+00
 -1.44685062E+00  8.23647960E-01  8.23647960E-01 -7.28892000E-01 -1.44685062E+00
  7.23425310E-01  7.23425310E-01 -2.15023140E+00 -2.15023140E+00 -1.44685062E+00
  7.41647610E-01  7.41647610E-01 -2.36889900E+00  2.46001050E+00 -2.36889900E+00
  2.46001050E+00 -1.44685062E+00  7.23425310E-01  7.23425310E-01 -2.29600980E+00
  2.41445475E+00  2.41445475E+00 -1.44685062E+00  7.23425310E-01  7.23425310E-01
  2.40534360E+00  7.23425310E-01  7.23425310E-01 -1.44685062E+00 -1.46507292E+00
  7.23425310E-01  7.23425310E-01  7.05203010E-01 -1.67827383E+00  7.05203010E-01
  5.95869210E-01  5.95869210E-01  5.95869210E-01 -5.62704624E+00  2.48734395E+00
  5.20975557E+00 -6.00242562E+00 -1.76756310E+00 -4.79246490E-01  2.55112200E+00
 -4.70135340E-01 -1.22636079E+00  2.51467740E+00 -1.71289620E+00 -1.29560553E+00
 -1.76756310E+00 -2.29600980E+00 -6.94269630E-01  2.51467740E+00 -1.56711780E+00
 -2.16845370E+00  2.53289970E+00  2.44178820E+00 -1.39218372E+00  8.96537160E-01
  8.96537160E-01 -5.28446700E-01  2.58756660E+00  2.51467740E+00 -1.44685062E+00
  8.23647960E-01  8.23647960E-01 -7.28892000E-01 -1.44685062E+00  7.23425310E-01
  7.23425310E-01 -2.15023140E+00 -2.15023140E+00 -1.44685062E+00  7.41647610E-01
  7.41647610E-01 -2.36889900E+00  2.46001050E+00 -2.36889900E+00  2.46001050E+00
 -1.44685062E+00  7.23425310E-01  7.23425310E-01 -2.29600980E+00  2.41445475E+00
  2.41445475E+00 -1.44685062E+00  7.23425310E-01  7.23425310E-01  2.40534360E+00
  7.23425310E-01  7.23425310E-01 -1.44685062E+00 -1.46507292E+00  7.23425310E-01
  7.23425310E-01  7.05203010E-01 -1.67827383E+00  7.05203010E-01  5.95869210E-01
  5.95869210E-01  5.95869210E-01 -5.62704624E+00  2.48734395E+00  5.20975557E+00
 -6.00242562E+00 -1.76756310E+00 -4.79246490E-01  2.55112200E+00 -4.70135340E-01
 -1.22636079E+00  2.51467740E+00 -1.71289620E+00 -1.29560553E+00 -1.76756310E+00
 -2.29600980E+00 -6.94269630E-01  2.51467740E+00 -1.56711780E+00 -2.16845370E+00
  2.53289970E+00  2.44178820E+00 -1.39218372E+00  8.96537160E-01  8.96537160E-01
 -5.28446700E-01  2.58756660E+00  2.51467740E+00 -1.44685062E+00  8.23647960E-01
  8.23647960E-01 -7.28892000E-01 -1.44685062E+00  7.23425310E-01  7.23425310E-01
 -2.15023140E+00 -2.15023140E+00 -1.44685062E+00  7.41647610E-01  7.41647610E-01
 -2.36889900E+00  2.46001050E+00 -2.36889900E+00  2.46001050E+00 -1.44685062E+00
  7.23425310E-01  7.23425310E-01 -2.29600980E+00  2.41445475E+00  2.41445475E+00
 -1.44685062E+00  7.23425310E-01  7.23425310E-01  2.40534360E+00  7.23425310E-01
  7.23425310E-01 -1.44685062E+00 -1.46507292E+00  7.23425310E-01  7.23425310E-01
  7.05203010E-01 -1.67827383E+00  7.05203010E-01  5.95869210E-01  5.95869210E-01
  5.95869210E-01 -5.62704624E+00  2.48734395E+00  5.20975557E+00 -6.00242562E+00
 -1.76756310E+00 -4.79246490E-01  2.55112200E+00 -4.70135340E-01 -1.22636079E+00
  2.51467740E+00 -1.71289620E+00 -1.29560553E+00 -1.76756310E+00 -2.29600980E+00
 -6.94269630E-01  2.51467740E+00 -1.56711780E+00 -2.16845370E+00  2.53289970E+00
  2.44178820E+00 -1.39218372E+00  8.96537160E-01  8.96537160E-01 -5.28446700E-01
  2.58756660E+00  2.51467740E+00 -1.44685062E+00  8.23647960E-01  8.23647960E-01
 -7.28892000E-01 -1.44685062E+00  7.23425310E-01  7.23425310E-01 -2.15023140E+00
 -2.15023140E+00 -1.44685062E+00  7.41647610E-01  7.41647610E-01 -2.36889900E+00
  2.46001050E+00 -2.36889900E+00  2.46001050E+00 -1.44685062E+00  7.23425310E-01
  7.23425310E-01 -2.29600980E+00  2.41445475E+00  2.41445475E+00 -1.44685062E+00
  7.23425310E-01  7.23425310E-01  2.40534360E+00  7.23425310E-01  7.23425310E-01
 -1.44685062E+00 -1.46507292E+00  7.23425310E-01  7.23425310E-01  7.05203010E-01
 -1.67827383E+00  7.05203010E-01  5.95869210E-01  5.95869210E-01  5.95869210E-01
 -5.62704624E+00  2.48734395E+00  5.20975557E+00 -6.00242562E+00 -1.76756310E+00
 -4.79246490E-01  2.55112200E+00 -4.70135340E-01 -1.22636079E+00  2.51467740E+00
 -1.71289620E+00 -1.29560553E+00 -1.76756310E+00 -2.29600980E+00 -6.94269630E-01
  2.51467740E+00 -1.56711780E+00 -2.16845370E+00  2.53289970E+00  2.44178820E+00
 -1.39218372E+00  8.96537160E-01  8.96537160E-01 -5.28446700E-01  2.58756660E+00
  2.51467740E+00 -1.44685062E+00  8.23647960E-01  8.23647960E-01 -7.28892000E-01
 -1.44685062E+00  7.23425310E-01  7.23425310E-01 -2.15023140E+00 -2.15023140E+00
 -1.44685062E+00  7.41647610E-01  7.41647610E-01 -2.36889900E+00  2.46001050E+00
 -2.36889900E+00  2.46001050E+00 -1.44685062E+00  7.23425310E-01  7.23425310E-01
 -2.29600980E+00  2.41445475E+00  2.41445475E+00 -1.44685062E+00  7.23425310E-01
  7.23425310E-01  2.40534360E+00  7.23425310E-01  7.23425310E-01 -1.44685062E+00
 -1.46507292E+00  7.23425310E-01  7.23425310E-01  7.05203010E-01 -1.67827383E+00
  7.05203010E-01  5.95869210E-01  5.95869210E-01  5.95869210E-01 -5.62704624E+00
  2.48734395E+00  5.20975557E+00 -6.00242562E+00 -1.76756310E+00 -4.79246490E-01
  2.55112200E+00 -4.70135340E-01 -1.22636079E+00  2.51467740E+00 -1.71289620E+00
 -1.29560553E+00 -1.76756310E+00 -2.29600980E+00 -6.94269630E-01  2.51467740E+00
 -1.56711780E+00 -2.16845370E+00  2.53289970E+00  2.44178820E+00 -1.39218372E+00
  8.96537160E-01  8.96537160E-01 -5.28446700E-01  2.58756660E+00  2.51467740E+00
 -1.44685062E+00  8.23647960E-01  8.23647960E-01 -7.28892000E-01 -1.44685062E+00
  7.23425310E-01  7.23425310E-01 -2.15023140E+00 -2.15023140E+00 -1.44685062E+00
  7.41647610E-01  7.41647610E-01 -2.36889900E+00  2.46001050E+00 -2.36889900E+00
  2.46001050E+00 -1.44685062E+00  7.23425310E-01  7.23425310E-01 -2.29600980E+00
  2.41445475E+00  2.41445475E+00 -1.44685062E+00  7.23425310E-01  7.23425310E-01
  2.40534360E+00  7.23425310E-01  7.23425310E-01 -1.44685062E+00 -1.46507292E+00
  7.23425310E-01  7.23425310E-01  7.05203010E-01 -1.67827383E+00  7.05203010E-01
  5.95869210E-01  5.95869210E-01  5.95869210E-01 -5.62704624E+00  2.48734395E+00
  5.20975557E+00 -6.00242562E+00 -1.76756310E+00 -4.79246490E-01  2.55112200E+00
 -4.70135340E-01 -1.22636079E+00  2.51467740E+00 -1.71289620E+00 -1.29560553E+00
 -1.76756310E+00 -2.29600980E+00 -6.94269630E-01  2.51467740E+00 -1.56711780E+00
 -2.16845370E+00  2.53289970E+00  2.44178820E+00 -1.39218372E+00  8.96537160E-01
  8.96537160E-01 -5.28446700E-01  2.58756660E+00  2.51467740E+00 -1.44685062E+00
  8.23647960E-01  8.23647960E-01 -7.28892000E-01 -1.44685062E+00  7.23425310E-01
  7.23425310E-01 -2.15023140E+00 -2.15023140E+00 -1.44685062E+00  7.41647610E-01
  7.41647610E-01 -2.36889900E+00  2.46001050E+00 -2.36889900E+00  2.46001050E+00
 -1.44685062E+00  7.23425310E-01  7.23425310E-01 -2.29600980E+00  2.41445475E+00
  2.41445475E+00 -1.44685062E+00  7.23425310E-01  7.23425310E-01  2.40534360E+00
  7.23425310E-01  7.23425310E-01 -1.44685062E+00 -1.46507292E+00  7.23425310E-01
  7.23425310E-01  7.05203010E-01 -1.67827383E+00  7.05203010E-01  5.95869210E-01
  5.95869210E-01  5.95869210E-01 -5.62704624E+00  2.48734395E+00  5.20975557E+00
 -6.00242562E+00 -1.76756310E+00 -4.79246490E-01  2.55112200E+00 -4.70135340E-01
 -1.22636079E+00  2.51467740E+00 -1.71289620E+00 -1.29560553E+00 -1.76756310E+00
 -2.29600980E+00 -6.94269630E-01  2.51467740E+00 -1.56711780E+00 -2.16845370E+00
  2.53289970E+00  2.44178820E+00 -1.39218372E+00  8.96537160E-01  8.96537160E-01
 -5.28446700E-01  2.58756660E+00  2.51467740E+00 -1.44685062E+00  8.23647960E-01
  8.23647960E-01 -7.28892000E-01 -1.44685062E+00  7.23425310E-01  7.23425310E-01
 -2.15023140E+00 -2.15023140E+00 -1.44685062E+00  7.41647610E-01  7.41647610E-01
 -2.36889900E+00  2.46001050E+00 -2.36889900E+00  2.46001050E+00 -1.44685062E+00
  7.23425310E-01  7.23425310E-01 -2.29600980E+00  2.41445475E+00  2.41445475E+00
 -1.44685062E+00  7.23425310E-01  7.23425310E-01  2.40534360E+00  7.23425310E-01
  7.23425310E-01 -1.44685062E+00 -1.46507292E+00  7.23425310E-01  7.23425310E-01
  7.05203010E-01 -1.67827383E+00  7.05203010E-01  5.95869210E-01  5.95869210E-01
  5.95869210E-01 -5.62704624E+00  2.48734395E+00  5.20975557E+00 -6.00242562E+00
 -1.76756310E+00 -4.79246490E-01  2.55112200E+00 -4.70135340E-01 -1.22636079E+00
  2.51467740E+00 -1.71289620E+00 -1.29560553E+00 -1.76756310E+00 -2.29600980E+00
 -6.94269630E-01  2.51467740E+00 -1.56711780E+00 -2.16845370E+00  2.53289970E+00
  2.44178820E+00 -1.39218372E+00  8.96537160E-01  8.96537160E-01 -5.28446700E-01
  2.58756660E+00  2.51467740E+00 -1.44685062E+00  8.23647960E-01  8.23647960E-01
 -7.28892000E-01 -1.44685062E+00  7.23425310E-01  7.23425310E-01 -2.15023140E+00
 -2.15023140E+00 -1.44685062E+00  7.41647610E-01  7.41647610E-01 -2.36889900E+00
  2.46001050E+00 -2.36889900E+00  2.46001050E+00 -1.44685062E+00  7.23425310E-01
  7.23425310E-01 -2.29600980E+00  2.41445475E+00  2.41445475E+00 -1.44685062E+00
  7.23425310E-01  7.23425310E-01  2.40534360E+00  7.23425310E-01  7.23425310E-01
 -1.44685062E+00 -1.46507292E+00  7.23425310E-01  7.23425310E-01  7.05203010E-01
 -1.67827383E+00  7.05203010E-01  5.95869210E-01  5.95869210E-01  5.95869210E-01
 -5.62704624E+00  2.48734395E+00  5.20975557E+00 -6.00242562E+00 -1.76756310E+00
 -4.79246490E-01  2.55112200E+00 -4.70135340E-01 -1.22636079E+00  2.51467740E+00
 -1.71289620E+00 -1.29560553E+00 -1.76756310E+00 -2.29600980E+00 -6.94269630E-01
  2.51467740E+00 -1.56711780E+00 -2.16845370E+00  2.53289970E+00  2.44178820E+00
 -1.39218372E+00  8.96537160E-01  8.96537160E-01 -5.28446700E-01  2.58756660E+00
  2.51467740E+00 -1.44685062E+00  8.23647960E-01  8.23647960E-01 -7.28892000E-01
 -1.44685062E+00  7.23425310E-01  7.23425310E-01 -2.15023140E+00 -2.15023140E+00
 -1.44685062E+00  7.41647610E-01  7.41647610E-01 -2.36889900E+00  2.46001050E+00
 -2.36889900E+00  2.46001050E+00 -1.44685062E+00  7.23425310E-01  7.23425310E-01
 -2.29600980E+00  2.41445475E+00  2.41445475E+00 -1.44685062E+00  7.23425310E-01
  7.23425310E-01  2.40534360E+00  7.23425310E-01  7.23425310E-01 -1.44685062E+00
 -1.46507292E+00  7.23425310E-01  7.23425310E-01  7.05203010E-01 -1.67827383E+00
  7.05203010E-01  5.95869210E-01  5.95869210E-01  5.95869210E-01 -5.62704624E+00
  2.48734395E+00  5.20975557E+00 -6.00242562E+00 -1.76756310E+00 -4.79246490E-01
  2.55112200E+00 -4.70135340E-01 -1.22636079E+00  2.51467740E+00 -1.71289620E+00
 -1.29560553E+00 -1.76756310E+00 -2.29600980E+00 -6.94269630E-01  2.51467740E+00
 -1.56711780E+00 -2.16845370E+00  2.53289970E+00  2.44178820E+00 -1.39218372E+00
  8.96537160E-01  8.96537160E-01 -5.28446700E-01  2.58756660E+00  2.51467740E+00
 -1.44685062E+00  8.23647960E-01  8.23647960E-01 -7.28892000E-01 -1.44685062E+00
  7.23425310E-01  7.23425310E-01 -2.15023140E+00 -2.15023140E+00 -1.44685062E+00
  7.41647610E-01  7.41647610E-01 -2.36889900E+00  2.46001050E+00 -2.36889900E+00
  2.46001050E+00 -1.44685062E+00  7.23425310E-01  7.23425310E-01 -2.29600980E+00
  2.41445475E+00  2.41445475E+00 -1.44685062E+00  7.23425310E-01  7.23425310E-01
  2.40534360E+00  7.23425310E-01  7.23425310E-01 -1.44685062E+00 -1.46507292E+00
  7.23425310E-01  7.23425310E-01  7.05203010E-01 -1.67827383E+00  7.05203010E-01
  5.95869210E-01  5.95869210E-01  5.95869210E-01 -5.62704624E+00  2.48734395E+00
  5.20975557E+00 -6.00242562E+00 -1.76756310E+00 -4.79246490E-01  2.55112200E+00
 -4.70135340E-01 -1.22636079E+00  2.51467740E+00 -1.71289620E+00 -1.29560553E+00
 -1.76756310E+00 -2.29600980E+00 -6.94269630E-01  2.51467740E+00 -1.56711780E+00
 -2.16845370E+00  2.53289970E+00  2.44178820E+00 -1.39218372E+00  8.96537160E-01
  8.96537160E-01 -5.28446700E-01  2.58756660E+00  2.51467740E+00 -1.44685062E+00
  8.23647960E-01  8.23647960E-01 -7.28892000E-01 -1.44685062E+00  7.23425310E-01
  7.23425310E-01 -2.15023140E+00 -2.15023140E+00 -1.44685062E+00  7.41647610E-01
  7.41647610E-01 -2.36889900E+00  2.46001050E+00 -2.36889900E+00  2.46001050E+00
 -1.44685062E+00  7.23425310E-01  7.23425310E-01 -2.29600980E+00  2.41445475E+00
  2.41445475E+00 -1.44685062E+00  7.23425310E-01  7.23425310E-01  2.40534360E+00
  7.23425310E-01  7.23425310E-01 -1.44685062E+00 -1.46507292E+00  7.23425310E-01
  7.23425310E-01  7.05203010E-01 -1.67827383E+00  7.05203010E-01  5.95869210E-01
  5.95869210E-01  5.95869210E-01 -5.62704624E+00  2.48734395E+00  5.20975557E+00
 -6.00242562E+00 -1.76756310E+00 -4.79246490E-01  2.55112200E+00 -4.70135340E-01
 -1.22636079E+00  2.51467740E+00 -1.71289620E+00 -1.29560553E+00 -1.76756310E+00
 -2.29600980E+00 -6.94269630E-01  2.51467740E+00 -1.56711780E+00 -2.16845370E+00
  2.53289970E+00  2.44178820E+00 -1.39218372E+00  8.96537160E-01  8.96537160E-01
 -5.28446700E-01  2.58756660E+00  2.51467740E+00 -1.44685062E+00  8.23647960E-01
  8.23647960E-01 -7.28892000E-01 -1.44685062E+00  7.23425310E-01  7.23425310E-01
 -2.15023140E+00 -2.15023140E+00 -1.44685062E+00  7.41647610E-01  7.41647610E-01
 -2.36889900E+00  2.46001050E+00 -2.36889900E+00  2.46001050E+00 -1.44685062E+00
  7.23425310E-01  7.23425310E-01 -2.29600980E+00  2.41445475E+00  2.41445475E+00
 -1.44685062E+00  7.23425310E-01  7.23425310E-01  2.40534360E+00  7.23425310E-01
  7.23425310E-01 -1.44685062E+00 -1.46507292E+00  7.23425310E-01  7.23425310E-01
  7.05203010E-01 -1.67827383E+00  7.05203010E-01  5.95869210E-01  5.95869210E-01
  5.95869210E-01 -5.62704624E+00  2.48734395E+00  5.20975557E+00 -6.00242562E+00
 -1.76756310E+00 -4.79246490E-01  2.55112200E+00 -4.70135340E-01 -1.22636079E+00
  2.51467740E+00 -1.71289620E+00 -1.29560553E+00 -1.76756310E+00 -2.29600980E+00
 -6.94269630E-01  2.51467740E+00 -1.56711780E+00 -2.16845370E+00  2.53289970E+00
  2.44178820E+00 -1.39218372E+00  8.96537160E-01  8.96537160E-01 -5.28446700E-01
  2.58756660E+00  2.51467740E+00 -1.44685062E+00  8.23647960E-01  8.23647960E-01
 -7.28892000E-01 -1.44685062E+00  7.23425310E-01  7.23425310E-01 -2.15023140E+00
 -2.15023140E+00 -1.44685062E+00  7.41647610E-01  7.41647610E-01 -2.36889900E+00
  2.46001050E+00 -2.36889900E+00  2.46001050E+00 -1.44685062E+00  7.23425310E-01
  7.23425310E-01 -2.29600980E+00  2.41445475E+00  2.41445475E+00 -1.44685062E+00
  7.23425310E-01  7.23425310E-01  2.40534360E+00  7.23425310E-01  7.23425310E-01
 -1.44685062E+00 -1.46507292E+00  7.23425310E-01  7.23425310E-01  7.05203010E-01
 -1.67827383E+00  7.05203010E-01  5.95869210E-01  5.95869210E-01  5.95869210E-01
 -5.62704624E+00  2.48734395E+00  5.20975557E+00 -6.00242562E+00 -1.76756310E+00
 -4.79246490E-01  2.55112200E+00 -4.70135340E-01 -1.22636079E+00  2.51467740E+00
 -1.71289620E+00 -1.29560553E+00 -1.76756310E+00 -2.29600980E+00 -6.94269630E-01
  2.51467740E+00 -1.56711780E+00 -2.16845370E+00  2.53289970E+00  2.44178820E+00
 -1.39218372E+00  8.96537160E-01  8.96537160E-01 -5.28446700E-01  2.58756660E+00
  2.51467740E+00 -1.44685062E+00  8.23647960E-01  8.23647960E-01 -7.28892000E-01
 -1.44685062E+00  7.23425310E-01  7.23425310E-01 -2.15023140E+00 -2.15023140E+00
 -1.44685062E+00  7.41647610E-01  7.41647610E-01 -2.36889900E+00  2.46001050E+00
 -2.36889900E+00  2.46001050E+00 -1.44685062E+00  7.23425310E-01  7.23425310E-01
 -2.29600980E+00  2.41445475E+00  2.41445475E+00 -1.44685062E+00  7.23425310E-01
  7.23425310E-01  2.40534360E+00  7.23425310E-01  7.23425310E-01 -1.44685062E+00
 -1.46507292E+00  7.23425310E-01  7.23425310E-01  7.05203010E-01 -1.67827383E+00
  7.05203010E-01  5.95869210E-01  5.95869210E-01  5.95869210E-01 -5.62704624E+00
  2.48734395E+00  5.20975557E+00 -6.00242562E+00 -1.76756310E+00 -4.79246490E-01
  2.55112200E+00 -4.70135340E-01 -1.22636079E+00  2.51467740E+00 -1.71289620E+00
 -1.29560553E+00 -1.76756310E+00 -2.29600980E+00 -6.94269630E-01  2.51467740E+00
 -1.56711780E+00 -2.16845370E+00  2.53289970E+00  2.44178820E+00 -1.39218372E+00
  8.96537160E-01  8.96537160E-01 -5.28446700E-01  2.58756660E+00  2.51467740E+00
 -1.44685062E+00  8.23647960E-01  8.23647960E-01 -7.28892000E-01 -1.44685062E+00
  7.23425310E-01  7.23425310E-01 -2.15023140E+00 -2.15023140E+00 -1.44685062E+00
  7.41647610E-01  7.41647610E-01 -2.36889900E+00  2.46001050E+00 -2.36889900E+00
  2.46001050E+00 -1.44685062E+00  7.23425310E-01  7.23425310E-01 -2.29600980E+00
  2.41445475E+00  2.41445475E+00 -1.44685062E+00  7.23425310E-01  7.23425310E-01
  2.40534360E+00  7.23425310E-01  7.23425310E-01 -1.44685062E+00 -1.46507292E+00
  7.23425310E-01  7.23425310E-01  7.05203010E-01 -1.67827383E+00  7.05203010E-01
  5.95869210E-01  5.95869210E-01  5.95869210E-01 -5.62704624E+00  2.48734395E+00
  5.20975557E+00 -6.00242562E+00 -1.76756310E+00 -4.79246490E-01  2.55112200E+00
 -4.70135340E-01 -1.22636079E+00  2.51467740E+00 -1.71289620E+00 -1.29560553E+00
 -1.76756310E+00 -2.29600980E+00 -6.94269630E-01  2.51467740E+00 -1.56711780E+00
 -2.16845370E+00  2.53289970E+00  2.44178820E+00 -1.39218372E+00  8.96537160E-01
  8.96537160E-01 -5.28446700E-01  2.58756660E+00  2.51467740E+00 -1.44685062E+00
  8.23647960E-01  8.23647960E-01 -7.28892000E-01 -1.44685062E+00  7.23425310E-01
  7.23425310E-01 -2.15023140E+00 -2.15023140E+00 -1.44685062E+00  7.41647610E-01
  7.41647610E-01 -2.36889900E+00  2.46001050E+00 -2.36889900E+00  2.46001050E+00
 -1.44685062E+00  7.23425310E-01  7.23425310E-01 -2.29600980E+00  2.41445475E+00
  2.41445475E+00 -1.44685062E+00  7.23425310E-01  7.23425310E-01  2.40534360E+00
  7.23425310E-01  7.23425310E-01 -1.44685062E+00 -1.46507292E+00  7.23425310E-01
  7.23425310E-01  7.05203010E-01 -1.67827383E+00  7.05203010E-01  5.95869210E-01
  5.95869210E-01  5.95869210E-01 -5.62704624E+00  2.48734395E+00  5.20975557E+00
 -6.00242562E+00 -1.76756310E+00 -4.79246490E-01  2.55112200E+00 -4.70135340E-01
 -1.22636079E+00  2.51467740E+00 -1.71289620E+00 -1.29560553E+00 -1.76756310E+00
 -2.29600980E+00 -6.94269630E-01  2.51467740E+00 -1.56711780E+00 -2.16845370E+00
  2.53289970E+00  2.44178820E+00 -1.39218372E+00  8.96537160E-01  8.96537160E-01
 -5.28446700E-01  2.58756660E+00  2.51467740E+00 -1.44685062E+00  8.23647960E-01
  8.23647960E-01 -7.28892000E-01 -1.44685062E+00  7.23425310E-01  7.23425310E-01
 -2.15023140E+00 -2.15023140E+00 -1.44685062E+00  7.41647610E-01  7.41647610E-01
 -2.36889900E+00  2.46001050E+00 -2.36889900E+00  2.46001050E+00 -1.44685062E+00
  7.23425310E-01  7.23425310E-01 -2.29600980E+00  2.41445475E+00  2.41445475E+00
 -1.44685062E+00  7.23425310E-01  7.23425310E-01  2.40534360E+00  7.23425310E-01
  7.23425310E-01 -1.44685062E+00 -1.46507292E+00  7.23425310E-01  7.23425310E-01
  7.05203010E-01 -1.67827383E+00  7.05203010E-01  5.95869210E-01  5.95869210E-01
  5.95869210E-01 -5.62704624E+00  2.48734395E+00  5.20975557E+00 -6.00242562E+00
 -1.76756310E+00 -4.79246490E-01  2.55112200E+00 -4.70135340E-01 -1.22636079E+00
  2.51467740E+00 -1.71289620E+00 -1.29560553E+00 -1.76756310E+00 -2.29600980E+00
 -6.94269630E-01  2.51467740E+00 -1.56711780E+00 -2.16845370E+00  2.53289970E+00
  2.44178820E+00 -1.39218372E+00  8.96537160E-01  8.96537160E-01 -5.28446700E-01
  2.58756660E+00  2.51467740E+00 -1.44685062E+00  8.23647960E-01  8.23647960E-01
 -7.28892000E-01 -1.44685062E+00  7.23425310E-01  7.23425310E-01 -2.15023140E+00
 -2.15023140E+00 -1.44685062E+00  7.41647610E-01  7.41647610E-01 -2.36889900E+00
  2.46001050E+00 -2.36889900E+00  2.46001050E+00 -1.44685062E+00  7.23425310E-01
  7.23425310E-01 -2.29600980E+00  2.41445475E+00  2.41445475E+00 -1.44685062E+00
  7.23425310E-01  7.23425310E-01  2.40534360E+00  7.23425310E-01  7.23425310E-01
 -1.44685062E+00 -1.46507292E+00  7.23425310E-01  7.23425310E-01  7.05203010E-01
 -1.67827383E+00  7.05203010E-01  5.95869210E-01  5.95869210E-01  5.95869210E-01
 -5.62704624E+00  2.48734395E+00  5.20975557E+00 -6.00242562E+00 -1.76756310E+00
 -4.79246490E-01  2.55112200E+00 -4.70135340E-01 -1.22636079E+00  2.51467740E+00
 -1.71289620E+00 -1.29560553E+00 -1.76756310E+00 -2.29600980E+00 -6.94269630E-01
  2.51467740E+00 -1.56711780E+00 -2.16845370E+00  2.53289970E+00  2.44178820E+00
 -1.39218372E+00  8.96537160E-01  8.96537160E-01 -5.28446700E-01  2.58756660E+00
  2.51467740E+00 -1.44685062E+00  8.23647960E-01  8.23647960E-01 -7.28892000E-01
 -1.44685062E+00  7.23425310E-01  7.23425310E-01 -2.15023140E+00 -2.15023140E+00
 -1.44685062E+00  7.41647610E-01  7.41647610E-01 -2.36889900E+00  2.46001050E+00
 -2.36889900E+00  2.46001050E+00 -1.44685062E+00  7.23425310E-01  7.23425310E-01
 -2.29600980E+00  2.41445475E+00  2.41445475E+00 -1.44685062E+00  7.23425310E-01
  7.23425310E-01  2.40534360E+00  7.23425310E-01  7.23425310E-01 -1.44685062E+00
 -1.46507292E+00  7.23425310E-01  7.23425310E-01  7.05203010E-01 -1.67827383E+00
  7.05203010E-01  5.95869210E-01  5.95869210E-01  5.95869210E-01 -5.62704624E+00
  2.48734395E+00  5.20975557E+00 -6.00242562E+00 -1.76756310E+00 -4.79246490E-01
  2.55112200E+00 -4.70135340E-01 -1.22636079E+00  2.51467740E+00 -1.71289620E+00
 -1.29560553E+00 -1.76756310E+00 -2.29600980E+00 -6.94269630E-01  2.51467740E+00
 -1.56711780E+00 -2.16845370E+00  2.53289970E+00  2.44178820E+00 -1.39218372E+00
  8.96537160E-01  8.96537160E-01 -5.28446700E-01  2.58756660E+00  2.51467740E+00
 -1.44685062E+00  8.23647960E-01  8.23647960E-01 -7.28892000E-01 -1.44685062E+00
  7.23425310E-01  7.23425310E-01 -2.15023140E+00 -2.15023140E+00 -1.44685062E+00
  7.41647610E-01  7.41647610E-01 -2.36889900E+00  2.46001050E+00 -2.36889900E+00
  2.46001050E+00 -1.44685062E+00  7.23425310E-01  7.23425310E-01 -2.29600980E+00
  2.41445475E+00  2.41445475E+00 -1.44685062E+00  7.23425310E-01  7.23425310E-01
  2.40534360E+00  7.23425310E-01  7.23425310E-01 -1.44685062E+00 -1.46507292E+00
  7.23425310E-01  7.23425310E-01  7.05203010E-01 -1.67827383E+00  7.05203010E-01
  5.95869210E-01  5.95869210E-01  5.95869210E-01 -5.62704624E+00  2.48734395E+00
  5.20975557E+00 -6.00242562E+00 -1.76756310E+00 -4.79246490E-01  2.55112200E+00
 -4.70135340E-01 -1.22636079E+00  2.51467740E+00 -1.71289620E+00 -1.29560553E+00
 -1.76756310E+00 -2.29600980E+00 -6.94269630E-01  2.51467740E+00 -1.56711780E+00
 -2.16845370E+00  2.53289970E+00  2.44178820E+00 -1.39218372E+00  8.96537160E-01
  8.96537160E-01 -5.28446700E-01  2.58756660E+00  2.51467740E+00 -1.44685062E+00
  8.23647960E-01  8.23647960E-01 -7.28892000E-01 -1.44685062E+00  7.23425310E-01
  7.23425310E-01 -2.15023140E+00 -2.15023140E+00 -1.44685062E+00  7.41647610E-01
  7.41647610E-01 -2.36889900E+00  2.46001050E+00 -2.36889900E+00  2.46001050E+00
 -1.44685062E+00  7.23425310E-01  7.23425310E-01 -2.29600980E+00  2.41445475E+00
  2.41445475E+00 -1.44685062E+00  7.23425310E-01  7.23425310E-01  2.40534360E+00
  7.23425310E-01  7.23425310E-01 -1.44685062E+00 -1.46507292E+00  7.23425310E-01
  7.23425310E-01  7.05203010E-01 -1.67827383E+00  7.05203010E-01  5.95869210E-01
  5.95869210E-01  5.95869210E-01 -5.62704624E+00  2.48734395E+00  5.20975557E+00
 -6.00242562E+00 -1.76756310E+00 -4.79246490E-01  2.55112200E+00 -4.70135340E-01
 -1.22636079E+00  2.51467740E+00 -1.71289620E+00 -1.29560553E+00 -1.76756310E+00
 -2.29600980E+00 -6.94269630E-01  2.51467740E+00 -1.56711780E+00 -2.16845370E+00
  2.53289970E+00  2.44178820E+00 -1.39218372E+00  8.96537160E-01  8.96537160E-01
 -5.28446700E-01  2.58756660E+00  2.51467740E+00 -1.44685062E+00  8.23647960E-01
  8.23647960E-01 -7.28892000E-01 -1.44685062E+00  7.23425310E-01  7.23425310E-01
 -2.15023140E+00 -2.15023140E+00 -1.44685062E+00  7.41647610E-01  7.41647610E-01
 -2.36889900E+00  2.46001050E+00 -2.36889900E+00  2.46001050E+00 -1.44685062E+00
  7.23425310E-01  7.23425310E-01 -2.29600980E+00  2.41445475E+00  2.41445475E+00
 -1.44685062E+00  7.23425310E-01  7.23425310E-01  2.40534360E+00  7.23425310E-01
  7.23425310E-01 -1.44685062E+00 -1.46507292E+00  7.23425310E-01  7.23425310E-01
  7.05203010E-01 -1.67827383E+00  7.05203010E-01  5.95869210E-01  5.95869210E-01
  5.95869210E-01 -5.62704624E+00  2.48734395E+00  5.20975557E+00 -6.00242562E+00
 -1.76756310E+00 -4.79246490E-01  2.55112200E+00 -4.70135340E-01 -1.22636079E+00
  2.51467740E+00 -1.71289620E+00 -1.29560553E+00 -1.76756310E+00 -2.29600980E+00
 -6.94269630E-01  2.51467740E+00 -1.56711780E+00 -2.16845370E+00  2.53289970E+00
  2.44178820E+00 -1.39218372E+00  8.96537160E-01  8.96537160E-01 -5.28446700E-01
  2.58756660E+00  2.51467740E+00 -1.44685062E+00  8.23647960E-01  8.23647960E-01
 -7.28892000E-01 -1.44685062E+00  7.23425310E-01  7.23425310E-01 -2.15023140E+00
 -2.15023140E+00 -1.44685062E+00  7.41647610E-01  7.41647610E-01 -2.36889900E+00
  2.46001050E+00 -2.36889900E+00  2.46001050E+00 -1.44685062E+00  7.23425310E-01
  7.23425310E-01 -2.29600980E+00  2.41445475E+00  2.41445475E+00 -1.44685062E+00
  7.23425310E-01  7.23425310E-01  2.40534360E+00  7.23425310E-01  7.23425310E-01
 -1.44685062E+00 -1.46507292E+00  7.23425310E-01  7.23425310E-01  7.05203010E-01
 -1.67827383E+00  7.05203010E-01  5.95869210E-01  5.95869210E-01  5.95869210E-01
 -5.62704624E+00  2.48734395E+00  5.20975557E+00 -6.00242562E+00 -1.76756310E+00
 -4.79246490E-01  2.55112200E+00 -4.70135340E-01 -1.22636079E+00  2.51467740E+00
 -1.71289620E+00 -1.29560553E+00 -1.76756310E+00 -2.29600980E+00 -6.94269630E-01
  2.51467740E+00 -1.56711780E+00 -2.16845370E+00  2.53289970E+00  2.44178820E+00
 -1.39218372E+00  8.96537160E-01  8.96537160E-01 -5.28446700E-01  2.58756660E+00
  2.51467740E+00 -1.44685062E+00  8.23647960E-01  8.23647960E-01 -7.28892000E-01
 -1.44685062E+00  7.23425310E-01  7.23425310E-01 -2.15023140E+00 -2.15023140E+00
 -1.44685062E+00  7.41647610E-01  7.41647610E-01 -2.36889900E+00  2.46001050E+00
 -2.36889900E+00  2.46001050E+00 -1.44685062E+00  7.23425310E-01  7.23425310E-01
 -2.29600980E+00  2.41445475E+00  2.41445475E+00 -1.44685062E+00  7.23425310E-01
  7.23425310E-01  2.40534360E+00  7.23425310E-01  7.23425310E-01 -1.44685062E+00
 -1.46507292E+00  7.23425310E-01  7.23425310E-01  7.05203010E-01 -1.67827383E+00
  7.05203010E-01  5.95869210E-01  5.95869210E-01  5.95869210E-01 -5.62704624E+00
  2.48734395E+00  5.20975557E+00 -6.00242562E+00 -1.76756310E+00 -4.79246490E-01
  2.55112200E+00 -4.70135340E-01 -1.22636079E+00  2.51467740E+00 -1.71289620E+00
 -1.29560553E+00 -1.76756310E+00 -2.29600980E+00 -6.94269630E-01  2.51467740E+00
 -1.56711780E+00 -2.16845370E+00  2.53289970E+00  2.44178820E+00 -1.39218372E+00
  8.96537160E-01  8.96537160E-01 -5.28446700E-01  2.58756660E+00  2.51467740E+00
 -1.44685062E+00  8.23647960E-01  8.23647960E-01 -7.28892000E-01 -1.44685062E+00
  7.23425310E-01  7.23425310E-01 -2.15023140E+00 -2.15023140E+00 -1.44685062E+00
  7.41647610E-01  7.41647610E-01 -2.36889900E+00  2.46001050E+00 -2.36889900E+00
  2.46001050E+00 -1.44685062E+00  7.23425310E-01  7.23425310E-01 -2.29600980E+00
  2.41445475E+00  2.41445475E+00 -1.44685062E+00  7.23425310E-01  7.23425310E-01
  2.40534360E+00  7.23425310E-01  7.23425310E-01 -1.44685062E+00 -1.46507292E+00
  7.23425310E-01  7.23425310E-01  7.05203010E-01 -1.67827383E+00  7.05203010E-01
  5.95869210E-01  5.95869210E-01  5.95869210E-01 -5.62704624E+00  2.48734395E+00
  5.20975557E+00 -6.00242562E+00 -1.76756310E+00 -4.79246490E-01  2.55112200E+00
 -4.70135340E-01 -1.22636079E+00  2.51467740E+00 -1.71289620E+00 -1.29560553E+00
 -1.76756310E+00 -2.29600980E+00 -6.94269630E-01  2.51467740E+00 -1.56711780E+00
 -2.16845370E+00  2.53289970E+00  2.44178820E+00 -1.39218372E+00  8.96537160E-01
  8.96537160E-01 -5.28446700E-01  2.58756660E+00  2.51467740E+00 -1.44685062E+00
  8.23647960E-01  8.23647960E-01 -7.28892000E-01 -1.44685062E+00  7.23425310E-01
  7.23425310E-01 -2.15023140E+00 -2.15023140E+00 -1.44685062E+00  7.41647610E-01
  7.41647610E-01 -2.36889900E+00  2.46001050E+00 -2.36889900E+00  2.46001050E+00
 -1.44685062E+00  7.23425310E-01  7.23425310E-01 -2.29600980E+00  2.41445475E+00
  2.41445475E+00 -1.44685062E+00  7.23425310E-01  7.23425310E-01  2.40534360E+00
  7.23425310E-01  7.23425310E-01 -1.44685062E+00 -1.46507292E+00  7.23425310E-01
  7.23425310E-01  7.05203010E-01 -1.67827383E+00  7.05203010E-01  5.95869210E-01
  5.95869210E-01  5.95869210E-01 -5.62704624E+00  2.48734395E+00  5.20975557E+00
 -6.00242562E+00 -1.76756310E+00 -4.79246490E-01  2.55112200E+00 -4.70135340E-01
 -1.22636079E+00  2.51467740E+00 -1.71289620E+00 -1.29560553E+00 -1.76756310E+00
 -2.29600980E+00 -6.94269630E-01  2.51467740E+00 -1.56711780E+00 -2.16845370E+00
  2.53289970E+00  2.44178820E+00 -1.39218372E+00  8.96537160E-01  8.96537160E-01
 -5.28446700E-01  2.58756660E+00  2.51467740E+00 -1.44685062E+00  8.23647960E-01
  8.23647960E-01 -7.28892000E-01 -1.44685062E+00  7.23425310E-01  7.23425310E-01
 -2.15023140E+00 -2.15023140E+00 -1.44685062E+00  7.41647610E-01  7.41647610E-01
 -2.36889900E+00  2.46001050E+00 -2.36889900E+00  2.46001050E+00 -1.44685062E+00
  7.23425310E-01  7.23425310E-01 -2.29600980E+00  2.41445475E+00  2.41445475E+00
 -1.44685062E+00  7.23425310E-01  7.23425310E-01  2.40534360E+00  7.23425310E-01
  7.23425310E-01 -1.44685062E+00 -1.46507292E+00  7.23425310E-01  7.23425310E-01
  7.05203010E-01 -1.67827383E+00  7.05203010E-01  5.95869210E-01  5.95869210E-01
  5.95869210E-01 -5.62704624E+00  2.48734395E+00  5.20975557E+00 -6.00242562E+00
 -1.76756310E+00 -4.79246490E-01  2.55112200E+00 -4.70135340E-01 -1.22636079E+00
  2.51467740E+00 -1.71289620E+00 -1.29560553E+00 -1.76756310E+00 -2.29600980E+00
 -6.94269630E-01  2.51467740E+00 -1.56711780E+00 -2.16845370E+00  2.53289970E+00
  2.44178820E+00 -1.39218372E+00  8.96537160E-01  8.96537160E-01 -5.28446700E-01
  2.58756660E+00  2.51467740E+00 -1.44685062E+00  8.23647960E-01  8.23647960E-01
 -7.28892000E-01 -1.44685062E+00  7.23425310E-01  7.23425310E-01 -2.15023140E+00
 -2.15023140E+00 -1.44685062E+00  7.41647610E-01  7.41647610E-01 -2.36889900E+00
  2.46001050E+00 -2.36889900E+00  2.46001050E+00 -1.44685062E+00  7.23425310E-01
  7.23425310E-01 -2.29600980E+00  2.41445475E+00  2.41445475E+00 -1.44685062E+00
  7.23425310E-01  7.23425310E-01  2.40534360E+00  7.23425310E-01  7.23425310E-01
 -1.44685062E+00 -1.46507292E+00  7.23425310E-01  7.23425310E-01  7.05203010E-01
 -1.67827383E+00  7.05203010E-01  5.95869210E-01  5.95869210E-01  5.95869210E-01
 -5.62704624E+00  2.48734395E+00  5.20975557E+00 -6.00242562E+00 -1.76756310E+00
 -4.79246490E-01  2.55112200E+00 -4.70135340E-01 -1.22636079E+00  2.51467740E+00
 -1.71289620E+00 -1.29560553E+00 -1.76756310E+00 -2.29600980E+00 -6.94269630E-01
  2.51467740E+00 -1.56711780E+00 -2.16845370E+00  2.53289970E+00  2.44178820E+00
 -1.39218372E+00  8.96537160E-01  8.96537160E-01 -5.28446700E-01  2.58756660E+00
  2.51467740E+00 -1.44685062E+00  8.23647960E-01  8.23647960E-01 -7.28892000E-01
 -1.44685062E+00  7.23425310E-01  7.23425310E-01 -2.15023140E+00 -2.15023140E+00
 -1.44685062E+00  7.41647610E-01  7.41647610E-01 -2.36889900E+00  2.46001050E+00
 -2.36889900E+00  2.46001050E+00 -1.44685062E+00  7.23425310E-01  7.23425310E-01
 -2.29600980E+00  2.41445475E+00  2.41445475E+00 -1.44685062E+00  7.23425310E-01
  7.23425310E-01  2.40534360E+00  7.23425310E-01  7.23425310E-01 -1.44685062E+00
 -1.46507292E+00  7.23425310E-01  7.23425310E-01  7.05203010E-01 -1.67827383E+00
  7.05203010E-01  5.95869210E-01  5.95869210E-01  5.95869210E-01 -5.62704624E+00
  2.48734395E+00  5.20975557E+00 -6.00242562E+00 -1.76756310E+00 -4.79246490E-01
  2.55112200E+00 -4.70135340E-01 -1.22636079E+00  2.51467740E+00 -1.71289620E+00
 -1.29560553E+00 -1.76756310E+00 -2.29600980E+00 -6.94269630E-01  2.51467740E+00
 -1.56711780E+00 -2.16845370E+00  2.53289970E+00  2.44178820E+00 -1.39218372E+00
  8.96537160E-01  8.96537160E-01 -5.28446700E-01  2.58756660E+00  2.51467740E+00
 -1.44685062E+00  8.23647960E-01  8.23647960E-01 -7.28892000E-01 -1.44685062E+00
  7.23425310E-01  7.23425310E-01 -2.15023140E+00 -2.15023140E+00 -1.44685062E+00
  7.41647610E-01  7.41647610E-01 -2.36889900E+00  2.46001050E+00 -2.36889900E+00
  2.46001050E+00 -1.44685062E+00  7.23425310E-01  7.23425310E-01 -2.29600980E+00
  2.41445475E+00  2.41445475E+00 -1.44685062E+00  7.23425310E-01  7.23425310E-01
  2.40534360E+00  7.23425310E-01  7.23425310E-01 -1.44685062E+00 -1.46507292E+00
  7.23425310E-01  7.23425310E-01  7.05203010E-01 -1.67827383E+00  7.05203010E-01
  5.95869210E-01  5.95869210E-01  5.95869210E-01 -5.62704624E+00  2.48734395E+00
  5.20975557E+00 -6.00242562E+00 -1.76756310E+00 -4.79246490E-01  2.55112200E+00
 -4.70135340E-01 -1.22636079E+00  2.51467740E+00 -1.71289620E+00 -1.29560553E+00
 -1.76756310E+00 -2.29600980E+00 -6.94269630E-01  2.51467740E+00 -1.56711780E+00
 -2.16845370E+00  2.53289970E+00  2.44178820E+00 -1.39218372E+00  8.96537160E-01
  8.96537160E-01 -5.28446700E-01  2.58756660E+00  2.51467740E+00 -1.44685062E+00
  8.23647960E-01  8.23647960E-01 -7.28892000E-01 -1.44685062E+00  7.23425310E-01
  7.23425310E-01 -2.15023140E+00 -2.15023140E+00 -1.44685062E+00  7.41647610E-01
  7.41647610E-01 -2.36889900E+00  2.46001050E+00 -2.36889900E+00  2.46001050E+00
 -1.44685062E+00  7.23425310E-01  7.23425310E-01 -2.29600980E+00  2.41445475E+00
  2.41445475E+00 -1.44685062E+00  7.23425310E-01  7.23425310E-01  2.40534360E+00
  7.23425310E-01  7.23425310E-01 -1.44685062E+00 -1.46507292E+00  7.23425310E-01
  7.23425310E-01  7.05203010E-01 -1.67827383E+00  7.05203010E-01  5.95869210E-01
  5.95869210E-01  5.95869210E-01 -5.62704624E+00  2.48734395E+00  5.20975557E+00
 -6.00242562E+00 -1.76756310E+00 -4.79246490E-01  2.55112200E+00 -4.70135340E-01
 -1.22636079E+00  2.51467740E+00 -1.71289620E+00 -1.29560553E+00 -1.76756310E+00
 -2.29600980E+00 -6.94269630E-01  2.51467740E+00 -1.56711780E+00 -2.16845370E+00
  2.53289970E+00  2.44178820E+00 -1.39218372E+00  8.96537160E-01  8.96537160E-01
 -5.28446700E-01  2.58756660E+00  2.51467740E+00 -1.44685062E+00  8.23647960E-01
  8.23647960E-01 -7.28892000E-01 -1.44685062E+00  7.23425310E-01  7.23425310E-01
 -2.15023140E+00 -2.15023140E+00 -1.44685062E+00  7.41647610E-01  7.41647610E-01
 -2.36889900E+00  2.46001050E+00 -2.36889900E+00  2.46001050E+00 -1.44685062E+00
  7.23425310E-01  7.23425310E-01 -2.29600980E+00  2.41445475E+00  2.41445475E+00
 -1.44685062E+00  7.23425310E-01  7.23425310E-01  2.40534360E+00  7.23425310E-01
  7.23425310E-01 -1.44685062E+00 -1.46507292E+00  7.23425310E-01  7.23425310E-01
  7.05203010E-01 -1.67827383E+00  7.05203010E-01  5.95869210E-01  5.95869210E-01
  5.95869210E-01 -5.62704624E+00  2.48734395E+00  5.20975557E+00 -6.00242562E+00
 -1.76756310E+00 -4.79246490E-01  2.55112200E+00 -4.70135340E-01 -1.22636079E+00
  2.51467740E+00 -1.71289620E+00 -1.29560553E+00 -1.76756310E+00 -2.29600980E+00
 -6.94269630E-01  2.51467740E+00 -1.56711780E+00 -2.16845370E+00  2.53289970E+00
  2.44178820E+00 -1.39218372E+00  8.96537160E-01  8.96537160E-01 -5.28446700E-01
  2.58756660E+00  2.51467740E+00 -1.44685062E+00  8.23647960E-01  8.23647960E-01
 -7.28892000E-01 -1.44685062E+00  7.23425310E-01  7.23425310E-01 -2.15023140E+00
 -2.15023140E+00 -1.44685062E+00  7.41647610E-01  7.41647610E-01 -2.36889900E+00
  2.46001050E+00 -2.36889900E+00  2.46001050E+00 -1.44685062E+00  7.23425310E-01
  7.23425310E-01 -2.29600980E+00  2.41445475E+00  2.41445475E+00 -1.44685062E+00
  7.23425310E-01  7.23425310E-01  2.40534360E+00  7.23425310E-01  7.23425310E-01
 -1.44685062E+00 -1.46507292E+00  7.23425310E-01  7.23425310E-01  7.05203010E-01
 -1.67827383E+00  7.05203010E-01  5.95869210E-01  5.95869210E-01  5.95869210E-01
 -5.62704624E+00  2.48734395E+00  5.20975557E+00 -6.00242562E+00 -1.76756310E+00
 -4.79246490E-01  2.55112200E+00 -4.70135340E-01 -1.22636079E+00  2.51467740E+00
 -1.71289620E+00 -1.29560553E+00 -1.76756310E+00 -2.29600980E+00 -6.94269630E-01
  2.51467740E+00 -1.56711780E+00 -2.16845370E+00  2.53289970E+00  2.44178820E+00
 -1.39218372E+00  8.96537160E-01  8.96537160E-01 -5.28446700E-01  2.58756660E+00
  2.51467740E+00 -1.44685062E+00  8.23647960E-01  8.23647960E-01 -7.28892000E-01
 -1.44685062E+00  7.23425310E-01  7.23425310E-01 -2.15023140E+00 -2.15023140E+00
 -1.44685062E+00  7.41647610E-01  7.41647610E-01 -2.36889900E+00  2.46001050E+00
 -2.36889900E+00  2.46001050E+00 -1.44685062E+00  7.23425310E-01  7.23425310E-01
 -2.29600980E+00  2.41445475E+00  2.41445475E+00 -1.44685062E+00  7.23425310E-01
  7.23425310E-01  2.40534360E+00  7.23425310E-01  7.23425310E-01 -1.44685062E+00
 -1.46507292E+00  7.23425310E-01  7.23425310E-01  7.05203010E-01 -1.67827383E+00
  7.05203010E-01  5.95869210E-01  5.95869210E-01  5.95869210E-01 -5.62704624E+00
  2.48734395E+00  5.20975557E+00 -6.00242562E+00 -1.76756310E+00 -4.79246490E-01
  2.55112200E+00 -4.70135340E-01 -1.22636079E+00  2.51467740E+00 -1.71289620E+00
 -1.29560553E+00 -1.76756310E+00 -2.29600980E+00 -6.94269630E-01  2.51467740E+00
 -1.56711780E+00 -2.16845370E+00  2.53289970E+00  2.44178820E+00 -1.39218372E+00
  8.96537160E-01  8.96537160E-01 -5.28446700E-01  2.58756660E+00  2.51467740E+00
 -1.44685062E+00  8.23647960E-01  8.23647960E-01 -7.28892000E-01 -1.44685062E+00
  7.23425310E-01  7.23425310E-01 -2.15023140E+00 -2.15023140E+00 -1.44685062E+00
  7.41647610E-01  7.41647610E-01 -2.36889900E+00  2.46001050E+00 -2.36889900E+00
  2.46001050E+00 -1.44685062E+00  7.23425310E-01  7.23425310E-01 -2.29600980E+00
  2.41445475E+00  2.41445475E+00 -1.44685062E+00  7.23425310E-01  7.23425310E-01
  2.40534360E+00  7.23425310E-01  7.23425310E-01 -1.44685062E+00 -1.46507292E+00
  7.23425310E-01  7.23425310E-01  7.05203010E-01 -1.67827383E+00  7.05203010E-01
  5.95869210E-01  5.95869210E-01  5.95869210E-01 -5.62704624E+00  2.48734395E+00
  5.20975557E+00 -6.00242562E+00 -1.76756310E+00 -4.79246490E-01  2.55112200E+00
 -4.70135340E-01 -1.22636079E+00  2.51467740E+00 -1.71289620E+00 -1.29560553E+00
 -1.76756310E+00 -2.29600980E+00 -6.94269630E-01  2.51467740E+00 -1.56711780E+00
 -2.16845370E+00  2.53289970E+00  2.44178820E+00 -1.39218372E+00  8.96537160E-01
  8.96537160E-01 -5.28446700E-01  2.58756660E+00  2.51467740E+00 -1.44685062E+00
  8.23647960E-01  8.23647960E-01 -7.28892000E-01 -1.44685062E+00  7.23425310E-01
  7.23425310E-01 -2.15023140E+00 -2.15023140E+00 -1.44685062E+00  7.41647610E-01
  7.41647610E-01 -2.36889900E+00  2.46001050E+00 -2.36889900E+00  2.46001050E+00
 -1.44685062E+00  7.23425310E-01  7.23425310E-01 -2.29600980E+00  2.41445475E+00
  2.41445475E+00 -1.44685062E+00  7.23425310E-01  7.23425310E-01  2.40534360E+00
  7.23425310E-01  7.23425310E-01 -1.44685062E+00 -1.46507292E+00  7.23425310E-01
  7.23425310E-01  7.05203010E-01 -1.67827383E+00  7.05203010E-01  5.95869210E-01
  5.95869210E-01  5.95869210E-01 -5.62704624E+00  2.48734395E+00  5.20975557E+00
 -6.00242562E+00 -1.76756310E+00 -4.79246490E-01  2.55112200E+00 -4.70135340E-01
 -1.22636079E+00  2.51467740E+00 -1.71289620E+00 -1.29560553E+00 -1.76756310E+00
 -2.29600980E+00 -6.94269630E-01  2.51467740E+00 -1.56711780E+00 -2.16845370E+00
  2.53289970E+00  2.44178820E+00 -1.39218372E+00  8.96537160E-01  8.96537160E-01
 -5.28446700E-01  2.58756660E+00  2.51467740E+00 -1.44685062E+00  8.23647960E-01
  8.23647960E-01 -7.28892000E-01 -1.44685062E+00  7.23425310E-01  7.23425310E-01
 -2.15023140E+00 -2.15023140E+00 -1.44685062E+00  7.41647610E-01  7.41647610E-01
 -2.36889900E+00  2.46001050E+00 -2.36889900E+00  2.46001050E+00 -1.44685062E+00
  7.23425310E-01  7.23425310E-01 -2.29600980E+00  2.41445475E+00  2.41445475E+00
 -1.44685062E+00  7.23425310E-01  7.23425310E-01  2.40534360E+00  7.23425310E-01
  7.23425310E-01 -1.44685062E+00 -1.46507292E+00  7.23425310E-01  7.23425310E-01
  7.05203010E-01 -1.67827383E+00  7.05203010E-01  5.95869210E-01  5.95869210E-01
  5.95869210E-01 -5.62704624E+00  2.48734395E+00  5.20975557E+00 -6.00242562E+00
 -1.76756310E+00 -4.79246490E-01  2.55112200E+00 -4.70135340E-01 -1.22636079E+00
  2.51467740E+00 -1.71289620E+00 -1.29560553E+00 -1.76756310E+00 -2.29600980E+00
 -6.94269630E-01  2.51467740E+00 -1.56711780E+00 -2.16845370E+00  2.53289970E+00
  2.44178820E+00 -1.39218372E+00  8.96537160E-01  8.96537160E-01 -5.28446700E-01
  2.58756660E+00  2.51467740E+00 -1.44685062E+00  8.23647960E-01  8.23647960E-01
 -7.28892000E-01 -1.44685062E+00  7.23425310E-01  7.23425310E-01 -2.15023140E+00
 -2.15023140E+00 -1.44685062E+00  7.41647610E-01  7.41647610E-01 -2.36889900E+00
  2.46001050E+00 -2.36889900E+00  2.46001050E+00 -1.44685062E+00  7.23425310E-01
  7.23425310E-01 -2.29600980E+00  2.41445475E+00  2.41445475E+00 -1.44685062E+00
  7.23425310E-01  7.23425310E-01  2.40534360E+00  7.23425310E-01  7.23425310E-01
 -1.44685062E+00 -1.46507292E+00  7.23425310E-01  7.23425310E-01  7.05203010E-01
 -1.67827383E+00  7.05203010E-01  5.95869210E-01  5.95869210E-01  5.95869210E-01
 -5.62704624E+00  2.48734395E+00  5.20975557E+00 -6.00242562E+00 -1.76756310E+00
 -4.79246490E-01  2.55112200E+00 -4.70135340E-01 -1.22636079E+00  2.51467740E+00
 -1.71289620E+00 -1.29560553E+00 -1.76756310E+00 -2.29600980E+00 -6.94269630E-01
  2.51467740E+00 -1.56711780E+00 -2.16845370E+00  2.53289970E+00  2.44178820E+00
 -1.39218372E+00  8.96537160E-01  8.96537160E-01 -5.28446700E-01  2.58756660E+00
  2.51467740E+00 -1.44685062E+00  8.23647960E-01  8.23647960E-01 -7.28892000E-01
 -1.44685062E+00  7.23425310E-01  7.23425310E-01 -2.15023140E+00 -2.15023140E+00
 -1.44685062E+00  7.41647610E-01  7.41647610E-01 -2.36889900E+00  2.46001050E+00
 -2.36889900E+00  2.46001050E+00 -1.44685062E+00  7.23425310E-01  7.23425310E-01
 -2.29600980E+00  2.41445475E+00  2.41445475E+00 -1.44685062E+00  7.23425310E-01
  7.23425310E-01  2.40534360E+00  7.23425310E-01  7.23425310E-01 -1.44685062E+00
 -1.46507292E+00  7.23425310E-01  7.23425310E-01  7.05203010E-01 -1.67827383E+00
  7.05203010E-01  5.95869210E-01  5.95869210E-01  5.95869210E-01 -5.62704624E+00
  2.48734395E+00  5.20975557E+00 -6.00242562E+00 -1.76756310E+00 -4.79246490E-01
  2.55112200E+00 -4.70135340E-01 -1.22636079E+00  2.51467740E+00 -1.71289620E+00
 -1.29560553E+00 -1.76756310E+00 -2.29600980E+00 -6.94269630E-01  2.51467740E+00
 -1.56711780E+00 -2.16845370E+00  2.53289970E+00  2.44178820E+00 -1.39218372E+00
  8.96537160E-01  8.96537160E-01 -5.28446700E-01  2.58756660E+00  2.51467740E+00
 -1.44685062E+00  8.23647960E-01  8.23647960E-01 -7.28892000E-01 -1.44685062E+00
  7.23425310E-01  7.23425310E-01 -2.15023140E+00 -2.15023140E+00 -1.44685062E+00
  7.41647610E-01  7.41647610E-01 -2.36889900E+00  2.46001050E+00 -2.36889900E+00
  2.46001050E+00 -1.44685062E+00  7.23425310E-01  7.23425310E-01 -2.29600980E+00
  2.41445475E+00  2.41445475E+00 -1.44685062E+00  7.23425310E-01  7.23425310E-01
  2.40534360E+00  7.23425310E-01  7.23425310E-01 -1.44685062E+00 -1.46507292E+00
  7.23425310E-01  7.23425310E-01  7.05203010E-01 -1.67827383E+00  7.05203010E-01
  5.95869210E-01  5.95869210E-01  5.95869210E-01 -5.62704624E+00  2.48734395E+00
  5.20975557E+00 -6.00242562E+00 -1.76756310E+00 -4.79246490E-01  2.55112200E+00
 -4.70135340E-01 -1.22636079E+00  2.51467740E+00 -1.71289620E+00 -1.29560553E+00
 -1.76756310E+00 -2.29600980E+00 -6.94269630E-01  2.51467740E+00 -1.56711780E+00
 -2.16845370E+00  2.53289970E+00  2.44178820E+00 -1.39218372E+00  8.96537160E-01
  8.96537160E-01 -5.28446700E-01  2.58756660E+00  2.51467740E+00 -1.44685062E+00
  8.23647960E-01  8.23647960E-01 -7.28892000E-01 -1.44685062E+00  7.23425310E-01
  7.23425310E-01 -2.15023140E+00 -2.15023140E+00 -1.44685062E+00  7.41647610E-01
  7.41647610E-01 -2.36889900E+00  2.46001050E+00 -2.36889900E+00  2.46001050E+00
 -1.44685062E+00  7.23425310E-01  7.23425310E-01 -2.29600980E+00  2.41445475E+00
  2.41445475E+00 -1.44685062E+00  7.23425310E-01  7.23425310E-01  2.40534360E+00
  7.23425310E-01  7.23425310E-01 -1.44685062E+00 -1.46507292E+00  7.23425310E-01
  7.23425310E-01  7.05203010E-01 -1.67827383E+00  7.05203010E-01  5.95869210E-01
  5.95869210E-01  5.95869210E-01 -5.62704624E+00  2.48734395E+00  5.20975557E+00
 -6.00242562E+00 -1.76756310E+00 -4.79246490E-01  2.55112200E+00 -4.70135340E-01
 -1.22636079E+00  2.51467740E+00 -1.71289620E+00 -1.29560553E+00 -1.76756310E+00
 -2.29600980E+00 -6.94269630E-01  2.51467740E+00 -1.56711780E+00 -2.16845370E+00
  2.53289970E+00  2.44178820E+00 -1.39218372E+00  8.96537160E-01  8.96537160E-01
 -5.28446700E-01  2.58756660E+00  2.51467740E+00 -1.44685062E+00  8.23647960E-01
  8.23647960E-01 -7.28892000E-01 -1.44685062E+00  7.23425310E-01  7.23425310E-01
 -2.15023140E+00 -2.15023140E+00 -1.44685062E+00  7.41647610E-01  7.41647610E-01
 -2.36889900E+00  2.46001050E+00 -2.36889900E+00  2.46001050E+00 -1.44685062E+00
  7.23425310E-01  7.23425310E-01 -2.29600980E+00  2.41445475E+00  2.41445475E+00
 -1.44685062E+00  7.23425310E-01  7.23425310E-01  2.40534360E+00  7.23425310E-01
  7.23425310E-01 -1.44685062E+00 -1.46507292E+00  7.23425310E-01  7.23425310E-01
  7.05203010E-01 -1.67827383E+00  7.05203010E-01  5.95869210E-01  5.95869210E-01
  5.95869210E-01 -5.62704624E+00  2.48734395E+00  5.20975557E+00 -6.00242562E+00
 -1.76756310E+00 -4.79246490E-01  2.55112200E+00 -4.70135340E-01 -1.22636079E+00
  2.51467740E+00 -1.71289620E+00 -1.29560553E+00 -1.76756310E+00 -2.29600980E+00
 -6.94269630E-01  2.51467740E+00 -1.56711780E+00 -2.16845370E+00  2.53289970E+00
  2.44178820E+00 -1.39218372E+00  8.96537160E-01  8.96537160E-01 -5.28446700E-01
  2.58756660E+00  2.51467740E+00 -1.44685062E+00  8.23647960E-01  8.23647960E-01
 -7.28892000E-01 -1.44685062E+00  7.23425310E-01  7.23425310E-01 -2.15023140E+00
 -2.15023140E+00 -1.44685062E+00  7.41647610E-01  7.41647610E-01 -2.36889900E+00
  2.46001050E+00 -2.36889900E+00  2.46001050E+00 -1.44685062E+00  7.23425310E-01
  7.23425310E-01 -2.29600980E+00  2.41445475E+00  2.41445475E+00 -1.44685062E+00
  7.23425310E-01  7.23425310E-01  2.40534360E+00  7.23425310E-01  7.23425310E-01
 -1.44685062E+00 -1.46507292E+00  7.23425310E-01  7.23425310E-01  7.05203010E-01
 -1.67827383E+00  7.05203010E-01  5.95869210E-01  5.95869210E-01  5.95869210E-01
 -5.62704624E+00  2.48734395E+00  5.20975557E+00 -6.00242562E+00 -1.76756310E+00
 -4.79246490E-01  2.55112200E+00 -4.70135340E-01 -1.22636079E+00  2.51467740E+00
 -1.71289620E+00 -1.29560553E+00 -1.76756310E+00 -2.29600980E+00 -6.94269630E-01
  2.51467740E+00 -1.56711780E+00 -2.16845370E+00  2.53289970E+00  2.44178820E+00
 -1.39218372E+00  8.96537160E-01  8.96537160E-01 -5.28446700E-01  2.58756660E+00
  2.51467740E+00 -1.44685062E+00  8.23647960E-01  8.23647960E-01 -7.28892000E-01
 -1.44685062E+00  7.23425310E-01  7.23425310E-01 -2.15023140E+00 -2.15023140E+00
 -1.44685062E+00  7.41647610E-01  7.41647610E-01 -2.36889900E+00  2.46001050E+00
 -2.36889900E+00  2.46001050E+00 -1.44685062E+00  7.23425310E-01  7.23425310E-01
 -2.29600980E+00  2.41445475E+00  2.41445475E+00 -1.44685062E+00  7.23425310E-01
  7.23425310E-01  2.40534360E+00  7.23425310E-01  7.23425310E-01 -1.44685062E+00
 -1.46507292E+00  7.23425310E-01  7.23425310E-01  7.05203010E-01 -1.67827383E+00
  7.05203010E-01  5.95869210E-01  5.95869210E-01  5.95869210E-01 -5.62704624E+00
  2.48734395E+00  5.20975557E+00 -6.00242562E+00 -1.76756310E+00 -4.79246490E-01
  2.55112200E+00 -4.70135340E-01 -1.22636079E+00  2.51467740E+00 -1.71289620E+00
 -1.29560553E+00 -1.76756310E+00 -2.29600980E+00 -6.94269630E-01  2.51467740E+00
 -1.56711780E+00 -2.16845370E+00  2.53289970E+00  2.44178820E+00 -1.39218372E+00
  8.96537160E-01  8.96537160E-01 -5.28446700E-01  2.58756660E+00  2.51467740E+00
 -1.44685062E+00  8.23647960E-01  8.23647960E-01 -7.28892000E-01 -1.44685062E+00
  7.23425310E-01  7.23425310E-01 -2.15023140E+00 -2.15023140E+00 -1.44685062E+00
  7.41647610E-01  7.41647610E-01 -2.36889900E+00  2.46001050E+00 -2.36889900E+00
  2.46001050E+00 -1.44685062E+00  7.23425310E-01  7.23425310E-01 -2.29600980E+00
  2.41445475E+00  2.41445475E+00 -1.44685062E+00  7.23425310E-01  7.23425310E-01
  2.40534360E+00  7.23425310E-01  7.23425310E-01 -1.44685062E+00 -1.46507292E+00
  7.23425310E-01  7.23425310E-01  7.05203010E-01 -1.67827383E+00  7.05203010E-01
  5.95869210E-01  5.95869210E-01  5.95869210E-01 -5.62704624E+00  2.48734395E+00
  5.20975557E+00 -6.00242562E+00 -1.76756310E+00 -4.79246490E-01  2.55112200E+00
 -4.70135340E-01 -1.22636079E+00  2.51467740E+00 -1.71289620E+00 -1.29560553E+00
 -1.76756310E+00 -2.29600980E+00 -6.94269630E-01  2.51467740E+00 -1.56711780E+00
 -2.16845370E+00  2.53289970E+00  2.44178820E+00 -1.39218372E+00  8.96537160E-01
  8.96537160E-01 -5.28446700E-01  2.58756660E+00  2.51467740E+00 -1.44685062E+00
  8.23647960E-01  8.23647960E-01 -7.28892000E-01 -1.44685062E+00  7.23425310E-01
  7.23425310E-01 -2.15023140E+00 -2.15023140E+00 -1.44685062E+00  7.41647610E-01
  7.41647610E-01 -2.36889900E+00  2.46001050E+00 -2.36889900E+00  2.46001050E+00
 -1.44685062E+00  7.23425310E-01  7.23425310E-01 -2.29600980E+00  2.41445475E+00
  2.41445475E+00 -1.44685062E+00  7.23425310E-01  7.23425310E-01  2.40534360E+00
  7.23425310E-01  7.23425310E-01 -1.44685062E+00 -1.46507292E+00  7.23425310E-01
  7.23425310E-01  7.05203010E-01 -1.67827383E+00  7.05203010E-01  5.95869210E-01
  5.95869210E-01  5.95869210E-01 -5.62704624E+00  2.48734395E+00  5.20975557E+00
 -6.00242562E+00 -1.76756310E+00 -4.79246490E-01  2.55112200E+00 -4.70135340E-01
 -1.22636079E+00  2.51467740E+00 -1.71289620E+00 -1.29560553E+00 -1.76756310E+00
 -2.29600980E+00 -6.94269630E-01  2.51467740E+00 -1.56711780E+00 -2.16845370E+00
  2.53289970E+00  2.44178820E+00 -1.39218372E+00  8.96537160E-01  8.96537160E-01
 -5.28446700E-01  2.58756660E+00  2.51467740E+00 -1.44685062E+00  8.23647960E-01
  8.23647960E-01 -7.28892000E-01 -1.44685062E+00  7.23425310E-01  7.23425310E-01
 -2.15023140E+00 -2.15023140E+00 -1.44685062E+00  7.41647610E-01  7.41647610E-01
 -2.36889900E+00  2.46001050E+00 -2.36889900E+00  2.46001050E+00 -1.44685062E+00
  7.23425310E-01  7.23425310E-01 -2.29600980E+00  2.41445475E+00  2.41445475E+00
 -1.44685062E+00  7.23425310E-01  7.23425310E-01  2.40534360E+00  7.23425310E-01
  7.23425310E-01 -1.44685062E+00 -1.46507292E+00  7.23425310E-01  7.23425310E-01
  7.05203010E-01 -1.67827383E+00  7.05203010E-01  5.95869210E-01  5.95869210E-01
  5.95869210E-01 -5.62704624E+00  2.48734395E+00  5.20975557E+00 -6.00242562E+00
 -1.76756310E+00 -4.79246490E-01  2.55112200E+00 -4.70135340E-01 -1.22636079E+00
  2.51467740E+00 -1.71289620E+00 -1.29560553E+00 -1.76756310E+00 -2.29600980E+00
 -6.94269630E-01  2.51467740E+00 -1.56711780E+00 -2.16845370E+00  2.53289970E+00
  2.44178820E+00 -1.39218372E+00  8.96537160E-01  8.96537160E-01 -5.28446700E-01
  2.58756660E+00  2.51467740E+00 -1.44685062E+00  8.23647960E-01  8.23647960E-01
 -7.28892000E-01 -1.44685062E+00  7.23425310E-01  7.23425310E-01 -2.15023140E+00
 -2.15023140E+00 -1.44685062E+00  7.41647610E-01  7.41647610E-01 -2.36889900E+00
  2.46001050E+00 -2.36889900E+00  2.46001050E+00 -1.44685062E+00  7.23425310E-01
  7.23425310E-01 -2.29600980E+00  2.41445475E+00  2.41445475E+00 -1.44685062E+00
  7.23425310E-01  7.23425310E-01  2.40534360E+00  7.23425310E-01  7.23425310E-01
 -1.44685062E+00 -1.46507292E+00  7.23425310E-01  7.23425310E-01  7.05203010E-01
 -1.67827383E+00  7.05203010E-01  5.95869210E-01  5.95869210E-01  5.95869210E-01
 -5.62704624E+00  2.48734395E+00  5.20975557E+00 -6.00242562E+00 -1.76756310E+00
 -4.79246490E-01  2.55112200E+00 -4.70135340E-01 -1.22636079E+00  2.51467740E+00
 -1.71289620E+00 -1.29560553E+00 -1.76756310E+00 -2.29600980E+00 -6.94269630E-01
  2.51467740E+00 -1.56711780E+00 -2.16845370E+00  2.53289970E+00  2.44178820E+00
 -1.39218372E+00  8.96537160E-01  8.96537160E-01 -5.28446700E-01  2.58756660E+00
  2.51467740E+00 -1.44685062E+00  8.23647960E-01  8.23647960E-01 -7.28892000E-01
 -1.44685062E+00  7.23425310E-01  7.23425310E-01 -2.15023140E+00 -2.15023140E+00
 -1.44685062E+00  7.41647610E-01  7.41647610E-01 -2.36889900E+00  2.46001050E+00
 -2.36889900E+00  2.46001050E+00 -1.44685062E+00  7.23425310E-01  7.23425310E-01
 -2.29600980E+00  2.41445475E+00  2.41445475E+00 -1.44685062E+00  7.23425310E-01
  7.23425310E-01  2.40534360E+00  7.23425310E-01  7.23425310E-01 -1.44685062E+00
 -1.46507292E+00  7.23425310E-01  7.23425310E-01  7.05203010E-01 -1.67827383E+00
  7.05203010E-01  5.95869210E-01  5.95869210E-01  5.95869210E-01 -5.62704624E+00
  2.48734395E+00  5.20975557E+00 -6.00242562E+00 -1.76756310E+00 -4.79246490E-01
  2.55112200E+00 -4.70135340E-01 -1.22636079E+00  2.51467740E+00 -1.71289620E+00
 -1.29560553E+00 -1.76756310E+00 -2.29600980E+00 -6.94269630E-01  2.51467740E+00
 -1.56711780E+00 -2.16845370E+00  2.53289970E+00  2.44178820E+00 -1.39218372E+00
  8.96537160E-01  8.96537160E-01 -5.28446700E-01  2.58756660E+00  2.51467740E+00
 -1.44685062E+00  8.23647960E-01  8.23647960E-01 -7.28892000E-01 -1.44685062E+00
  7.23425310E-01  7.23425310E-01 -2.15023140E+00 -2.15023140E+00 -1.44685062E+00
  7.41647610E-01  7.41647610E-01 -2.36889900E+00  2.46001050E+00 -2.36889900E+00
  2.46001050E+00 -1.44685062E+00  7.23425310E-01  7.23425310E-01 -2.29600980E+00
  2.41445475E+00  2.41445475E+00 -1.44685062E+00  7.23425310E-01  7.23425310E-01
  2.40534360E+00  7.23425310E-01  7.23425310E-01 -1.44685062E+00 -1.46507292E+00
  7.23425310E-01  7.23425310E-01  7.05203010E-01 -1.67827383E+00  7.05203010E-01
  5.95869210E-01  5.95869210E-01  5.95869210E-01 -5.62704624E+00  2.48734395E+00
  5.20975557E+00 -6.00242562E+00 -1.76756310E+00 -4.79246490E-01  2.55112200E+00
 -4.70135340E-01 -1.22636079E+00  2.51467740E+00 -1.71289620E+00 -1.29560553E+00
 -1.76756310E+00 -2.29600980E+00 -6.94269630E-01  2.51467740E+00 -1.56711780E+00
 -2.16845370E+00  2.53289970E+00  2.44178820E+00 -1.39218372E+00  8.96537160E-01
  8.96537160E-01 -5.28446700E-01  2.58756660E+00  2.51467740E+00 -1.44685062E+00
  8.23647960E-01  8.23647960E-01 -7.28892000E-01 -1.44685062E+00  7.23425310E-01
  7.23425310E-01 -2.15023140E+00 -2.15023140E+00 -1.44685062E+00  7.41647610E-01
  7.41647610E-01 -2.36889900E+00  2.46001050E+00 -2.36889900E+00  2.46001050E+00
 -1.44685062E+00  7.23425310E-01  7.23425310E-01 -2.29600980E+00  2.41445475E+00
  2.41445475E+00 -1.44685062E+00  7.23425310E-01  7.23425310E-01  2.40534360E+00
  7.23425310E-01  7.23425310E-01 -1.44685062E+00 -1.46507292E+00  7.23425310E-01
  7.23425310E-01  7.05203010E-01 -1.67827383E+00  7.05203010E-01  5.95869210E-01
  5.95869210E-01  5.95869210E-01 -5.62704624E+00  2.48734395E+00  5.20975557E+00
 -6.00242562E+00 -1.76756310E+00 -4.79246490E-01  2.55112200E+00 -4.70135340E-01
 -1.22636079E+00  2.51467740E+00 -1.71289620E+00 -1.29560553E+00 -1.76756310E+00
 -2.29600980E+00 -6.94269630E-01  2.51467740E+00 -1.56711780E+00 -2.16845370E+00
  2.53289970E+00  2.44178820E+00 -1.39218372E+00  8.96537160E-01  8.96537160E-01
 -5.28446700E-01  2.58756660E+00  2.51467740E+00 -1.44685062E+00  8.23647960E-01
  8.23647960E-01 -7.28892000E-01 -1.44685062E+00  7.23425310E-01  7.23425310E-01
 -2.15023140E+00 -2.15023140E+00 -1.44685062E+00  7.41647610E-01  7.41647610E-01
 -2.36889900E+00  2.46001050E+00 -2.36889900E+00  2.46001050E+00 -1.44685062E+00
  7.23425310E-01  7.23425310E-01 -2.29600980E+00  2.41445475E+00  2.41445475E+00
 -1.44685062E+00  7.23425310E-01  7.23425310E-01  2.40534360E+00  7.23425310E-01
  7.23425310E-01 -1.44685062E+00 -1.46507292E+00  7.23425310E-01  7.23425310E-01
  7.05203010E-01 -1.67827383E+00  7.05203010E-01  5.95869210E-01  5.95869210E-01
  5.95869210E-01 -5.62704624E+00  2.48734395E+00  5.20975557E+00 -6.00242562E+00
 -1.76756310E+00 -4.79246490E-01  2.55112200E+00 -4.70135340E-01 -1.22636079E+00
  2.51467740E+00 -1.71289620E+00 -1.29560553E+00 -1.76756310E+00 -2.29600980E+00
 -6.94269630E-01  2.51467740E+00 -1.56711780E+00 -2.16845370E+00  2.53289970E+00
  2.44178820E+00 -1.39218372E+00  8.96537160E-01  8.96537160E-01 -5.28446700E-01
  2.58756660E+00  2.51467740E+00 -1.44685062E+00  8.23647960E-01  8.23647960E-01
 -7.28892000E-01 -1.44685062E+00  7.23425310E-01  7.23425310E-01 -2.15023140E+00
 -2.15023140E+00 -1.44685062E+00  7.41647610E-01  7.41647610E-01 -2.36889900E+00
  2.46001050E+00 -2.36889900E+00  2.46001050E+00 -1.44685062E+00  7.23425310E-01
  7.23425310E-01 -2.29600980E+00  2.41445475E+00  2.41445475E+00 -1.44685062E+00
  7.23425310E-01  7.23425310E-01  2.40534360E+00  7.23425310E-01  7.23425310E-01
 -1.44685062E+00 -1.46507292E+00  7.23425310E-01  7.23425310E-01  7.05203010E-01
 -1.67827383E+00  7.05203010E-01  5.95869210E-01  5.95869210E-01  5.95869210E-01
 -5.62704624E+00  2.48734395E+00  5.20975557E+00 -6.00242562E+00 -1.76756310E+00
 -4.79246490E-01  2.55112200E+00 -4.70135340E-01 -1.22636079E+00  2.51467740E+00
 -1.71289620E+00 -1.29560553E+00 -1.76756310E+00 -2.29600980E+00 -6.94269630E-01
  2.51467740E+00 -1.56711780E+00 -2.16845370E+00  2.53289970E+00  2.44178820E+00
 -1.39218372E+00  8.96537160E-01  8.96537160E-01 -5.28446700E-01  2.58756660E+00
  2.51467740E+00 -1.44685062E+00  8.23647960E-01  8.23647960E-01 -7.28892000E-01
 -1.44685062E+00  7.23425310E-01  7.23425310E-01 -2.15023140E+00 -2.15023140E+00
 -1.44685062E+00  7.41647610E-01  7.41647610E-01 -2.36889900E+00  2.46001050E+00
 -2.36889900E+00  2.46001050E+00 -1.44685062E+00  7.23425310E-01  7.23425310E-01
 -2.29600980E+00  2.41445475E+00  2.41445475E+00 -1.44685062E+00  7.23425310E-01
  7.23425310E-01  2.40534360E+00  7.23425310E-01  7.23425310E-01 -1.44685062E+00
 -1.46507292E+00  7.23425310E-01  7.23425310E-01  7.05203010E-01 -1.67827383E+00
  7.05203010E-01  5.95869210E-01  5.95869210E-01  5.95869210E-01 -5.62704624E+00
  2.48734395E+00  5.20975557E+00 -6.00242562E+00 -1.76756310E+00 -4.79246490E-01
  2.55112200E+00 -4.70135340E-01 -1.22636079E+00  2.51467740E+00 -1.71289620E+00
 -1.29560553E+00 -1.76756310E+00 -2.29600980E+00 -6.94269630E-01  2.51467740E+00
 -1.56711780E+00 -2.16845370E+00  2.53289970E+00  2.44178820E+00 -1.39218372E+00
  8.96537160E-01  8.96537160E-01 -5.28446700E-01  2.58756660E+00  2.51467740E+00
 -1.44685062E+00  8.23647960E-01  8.23647960E-01 -7.28892000E-01 -1.44685062E+00
  7.23425310E-01  7.23425310E-01 -2.15023140E+00 -2.15023140E+00 -1.44685062E+00
  7.41647610E-01  7.41647610E-01 -2.36889900E+00  2.46001050E+00 -2.36889900E+00
  2.46001050E+00 -1.44685062E+00  7.23425310E-01  7.23425310E-01 -2.29600980E+00
  2.41445475E+00  2.41445475E+00 -1.44685062E+00  7.23425310E-01  7.23425310E-01
  2.40534360E+00  7.23425310E-01  7.23425310E-01 -1.44685062E+00 -1.46507292E+00
  7.23425310E-01  7.23425310E-01  7.05203010E-01 -1.67827383E+00  7.05203010E-01
  5.95869210E-01  5.95869210E-01  5.95869210E-01 -5.62704624E+00  2.48734395E+00
  5.20975557E+00 -6.00242562E+00 -1.76756310E+00 -4.79246490E-01  2.55112200E+00
 -4.70135340E-01 -1.22636079E+00  2.51467740E+00 -1.71289620E+00 -1.29560553E+00
 -1.76756310E+00 -2.29600980E+00 -6.94269630E-01  2.51467740E+00 -1.56711780E+00
 -2.16845370E+00  2.53289970E+00  2.44178820E+00 -1.39218372E+00  8.96537160E-01
  8.96537160E-01 -5.28446700E-01  2.58756660E+00  2.51467740E+00 -1.44685062E+00
  8.23647960E-01  8.23647960E-01 -7.28892000E-01 -1.44685062E+00  7.23425310E-01
  7.23425310E-01 -2.15023140E+00 -2.15023140E+00 -1.44685062E+00  7.41647610E-01
  7.41647610E-01 -2.36889900E+00  2.46001050E+00 -2.36889900E+00  2.46001050E+00
 -1.44685062E+00  7.23425310E-01  7.23425310E-01 -2.29600980E+00  2.41445475E+00
  2.41445475E+00 -1.44685062E+00  7.23425310E-01  7.23425310E-01  2.40534360E+00
  7.23425310E-01  7.23425310E-01 -1.44685062E+00 -1.46507292E+00  7.23425310E-01
  7.23425310E-01  7.05203010E-01 -1.67827383E+00  7.05203010E-01  5.95869210E-01
  5.95869210E-01  5.95869210E-01 -5.62704624E+00  2.48734395E+00  5.20975557E+00
 -6.00242562E+00 -1.76756310E+00 -4.79246490E-01  2.55112200E+00 -4.70135340E-01
 -1.22636079E+00  2.51467740E+00 -1.71289620E+00 -1.29560553E+00 -1.76756310E+00
 -2.29600980E+00 -6.94269630E-01  2.51467740E+00 -1.56711780E+00 -2.16845370E+00
  2.53289970E+00  2.44178820E+00 -1.39218372E+00  8.96537160E-01  8.96537160E-01
 -5.28446700E-01  2.58756660E+00  2.51467740E+00 -1.44685062E+00  8.23647960E-01
  8.23647960E-01 -7.28892000E-01 -1.44685062E+00  7.23425310E-01  7.23425310E-01
 -2.15023140E+00 -2.15023140E+00 -1.44685062E+00  7.41647610E-01  7.41647610E-01
 -2.36889900E+00  2.46001050E+00 -2.36889900E+00  2.46001050E+00 -1.44685062E+00
  7.23425310E-01  7.23425310E-01 -2.29600980E+00  2.41445475E+00  2.41445475E+00
 -1.44685062E+00  7.23425310E-01  7.23425310E-01  2.40534360E+00  7.23425310E-01
  7.23425310E-01 -1.44685062E+00 -1.46507292E+00  7.23425310E-01  7.23425310E-01
  7.05203010E-01 -1.67827383E+00  7.05203010E-01  5.95869210E-01  5.95869210E-01
  5.95869210E-01 -5.62704624E+00  2.48734395E+00  5.20975557E+00 -6.00242562E+00
 -1.76756310E+00 -4.79246490E-01  2.55112200E+00 -4.70135340E-01 -1.22636079E+00
  2.51467740E+00 -1.71289620E+00 -1.29560553E+00 -1.76756310E+00 -2.29600980E+00
 -6.94269630E-01  2.51467740E+00 -1.56711780E+00 -2.16845370E+00  2.53289970E+00
  2.44178820E+00 -1.39218372E+00  8.96537160E-01  8.96537160E-01 -5.28446700E-01
  2.58756660E+00  2.51467740E+00 -1.44685062E+00  8.23647960E-01  8.23647960E-01
 -7.28892000E-01 -1.44685062E+00  7.23425310E-01  7.23425310E-01 -2.15023140E+00
 -2.15023140E+00 -1.44685062E+00  7.41647610E-01  7.41647610E-01 -2.36889900E+00
  2.46001050E+00 -2.36889900E+00  2.46001050E+00 -1.44685062E+00  7.23425310E-01
  7.23425310E-01 -2.29600980E+00  2.41445475E+00  2.41445475E+00 -1.44685062E+00
  7.23425310E-01  7.23425310E-01  2.40534360E+00  7.23425310E-01  7.23425310E-01
 -1.44685062E+00 -1.46507292E+00  7.23425310E-01  7.23425310E-01  7.05203010E-01
 -1.67827383E+00  7.05203010E-01  5.95869210E-01  5.95869210E-01  5.95869210E-01
 -5.62704624E+00  2.48734395E+00  5.20975557E+00 -6.00242562E+00 -1.76756310E+00
 -4.79246490E-01  2.55112200E+00 -4.70135340E-01 -1.22636079E+00  2.51467740E+00
 -1.71289620E+00 -1.29560553E+00 -1.76756310E+00 -2.29600980E+00 -6.94269630E-01
  2.51467740E+00 -1.56711780E+00 -2.16845370E+00  2.53289970E+00  2.44178820E+00
 -1.39218372E+00  8.96537160E-01  8.96537160E-01 -5.28446700E-01  2.58756660E+00
  2.51467740E+00 -1.44685062E+00  8.23647960E-01  8.23647960E-01 -7.28892000E-01
 -1.44685062E+00  7.23425310E-01  7.23425310E-01 -2.15023140E+00 -2.15023140E+00
 -1.44685062E+00  7.41647610E-01  7.41647610E-01 -2.36889900E+00  2.46001050E+00
 -2.36889900E+00  2.46001050E+00 -1.44685062E+00  7.23425310E-01  7.23425310E-01
 -2.29600980E+00  2.41445475E+00  2.41445475E+00 -1.44685062E+00  7.23425310E-01
  7.23425310E-01  2.40534360E+00  7.23425310E-01  7.23425310E-01 -1.44685062E+00
 -1.46507292E+00  7.23425310E-01  7.23425310E-01  7.05203010E-01 -1.67827383E+00
  7.05203010E-01  5.95869210E-01  5.95869210E-01  5.95869210E-01 -5.62704624E+00
  2.48734395E+00  5.20975557E+00 -6.00242562E+00 -1.76756310E+00 -4.79246490E-01
  2.55112200E+00 -4.70135340E-01 -1.22636079E+00  2.51467740E+00 -1.71289620E+00
 -1.29560553E+00 -1.76756310E+00 -2.29600980E+00 -6.94269630E-01  2.51467740E+00
 -1.56711780E+00 -2.16845370E+00  2.53289970E+00  2.44178820E+00 -1.39218372E+00
  8.96537160E-01  8.96537160E-01 -5.28446700E-01  2.58756660E+00  2.51467740E+00
 -1.44685062E+00  8.23647960E-01  8.23647960E-01 -7.28892000E-01 -1.44685062E+00
  7.23425310E-01  7.23425310E-01 -2.15023140E+00 -2.15023140E+00 -1.44685062E+00
  7.41647610E-01  7.41647610E-01 -2.36889900E+00  2.46001050E+00 -2.36889900E+00
  2.46001050E+00 -1.44685062E+00  7.23425310E-01  7.23425310E-01 -2.29600980E+00
  2.41445475E+00  2.41445475E+00 -1.44685062E+00  7.23425310E-01  7.23425310E-01
  2.40534360E+00  7.23425310E-01  7.23425310E-01 -1.44685062E+00 -1.46507292E+00
  7.23425310E-01  7.23425310E-01  7.05203010E-01 -1.67827383E+00  7.05203010E-01
  5.95869210E-01  5.95869210E-01  5.95869210E-01 -5.62704624E+00  2.48734395E+00
  5.20975557E+00 -6.00242562E+00 -1.76756310E+00 -4.79246490E-01  2.55112200E+00
 -4.70135340E-01 -1.22636079E+00  2.51467740E+00 -1.71289620E+00 -1.29560553E+00
 -1.76756310E+00 -2.29600980E+00 -6.94269630E-01  2.51467740E+00 -1.56711780E+00
 -2.16845370E+00  2.53289970E+00  2.44178820E+00 -1.39218372E+00  8.96537160E-01
  8.96537160E-01 -5.28446700E-01  2.58756660E+00  2.51467740E+00 -1.44685062E+00
  8.23647960E-01  8.23647960E-01 -7.28892000E-01 -1.44685062E+00  7.23425310E-01
  7.23425310E-01 -2.15023140E+00 -2.15023140E+00 -1.44685062E+00  7.41647610E-01
  7.41647610E-01 -2.36889900E+00  2.46001050E+00 -2.36889900E+00  2.46001050E+00
 -1.44685062E+00  7.23425310E-01  7.23425310E-01 -2.29600980E+00  2.41445475E+00
  2.41445475E+00 -1.44685062E+00  7.23425310E-01  7.23425310E-01  2.40534360E+00
  7.23425310E-01  7.23425310E-01 -1.44685062E+00 -1.46507292E+00  7.23425310E-01
  7.23425310E-01  7.05203010E-01 -1.67827383E+00  7.05203010E-01  5.95869210E-01
  5.95869210E-01  5.95869210E-01 -5.62704624E+00  2.48734395E+00  5.20975557E+00
 -6.00242562E+00 -1.76756310E+00 -4.79246490E-01  2.55112200E+00 -4.70135340E-01
 -1.22636079E+00  2.51467740E+00 -1.71289620E+00 -1.29560553E+00 -1.76756310E+00
 -2.29600980E+00 -6.94269630E-01  2.51467740E+00 -1.56711780E+00 -2.16845370E+00
  2.53289970E+00  2.44178820E+00 -1.39218372E+00  8.96537160E-01  8.96537160E-01
 -5.28446700E-01  2.58756660E+00  2.51467740E+00 -1.44685062E+00  8.23647960E-01
  8.23647960E-01 -7.28892000E-01 -1.44685062E+00  7.23425310E-01  7.23425310E-01
 -2.15023140E+00 -2.15023140E+00 -1.44685062E+00  7.41647610E-01  7.41647610E-01
 -2.36889900E+00  2.46001050E+00 -2.36889900E+00  2.46001050E+00 -1.44685062E+00
  7.23425310E-01  7.23425310E-01 -2.29600980E+00  2.41445475E+00  2.41445475E+00
 -1.44685062E+00  7.23425310E-01  7.23425310E-01  2.40534360E+00  7.23425310E-01
  7.23425310E-01 -1.44685062E+00 -1.46507292E+00  7.23425310E-01  7.23425310E-01
  7.05203010E-01 -1.67827383E+00  7.05203010E-01  5.95869210E-01  5.95869210E-01
  5.95869210E-01 -5.62704624E+00  2.48734395E+00  5.20975557E+00 -6.00242562E+00
 -1.76756310E+00 -4.79246490E-01  2.55112200E+00 -4.70135340E-01 -1.22636079E+00
  2.51467740E+00 -1.71289620E+00 -1.29560553E+00 -1.76756310E+00 -2.29600980E+00
 -6.94269630E-01  2.51467740E+00 -1.56711780E+00 -2.16845370E+00  2.53289970E+00
  2.44178820E+00 -1.39218372E+00  8.96537160E-01  8.96537160E-01 -5.28446700E-01
  2.58756660E+00  2.51467740E+00 -1.44685062E+00  8.23647960E-01  8.23647960E-01
 -7.28892000E-01 -1.44685062E+00  7.23425310E-01  7.23425310E-01 -2.15023140E+00
 -2.15023140E+00 -1.44685062E+00  7.41647610E-01  7.41647610E-01 -2.36889900E+00
  2.46001050E+00 -2.36889900E+00  2.46001050E+00 -1.44685062E+00  7.23425310E-01
  7.23425310E-01 -2.29600980E+00  2.41445475E+00  2.41445475E+00 -1.44685062E+00
  7.23425310E-01  7.23425310E-01  2.40534360E+00  7.23425310E-01  7.23425310E-01
 -1.44685062E+00 -1.46507292E+00  7.23425310E-01  7.23425310E-01  7.05203010E-01
 -1.67827383E+00  7.05203010E-01  5.95869210E-01  5.95869210E-01  5.95869210E-01
 -5.62704624E+00  2.48734395E+00  5.20975557E+00 -6.00242562E+00 -1.76756310E+00
 -4.79246490E-01  2.55112200E+00 -4.70135340E-01 -1.22636079E+00  2.51467740E+00
 -1.71289620E+00 -1.29560553E+00 -1.76756310E+00 -2.29600980E+00 -6.94269630E-01
  2.51467740E+00 -1.56711780E+00 -2.16845370E+00  2.53289970E+00  2.44178820E+00
 -1.39218372E+00  8.96537160E-01  8.96537160E-01 -5.28446700E-01  2.58756660E+00
  2.51467740E+00 -1.44685062E+00  8.23647960E-01  8.23647960E-01 -7.28892000E-01
 -1.44685062E+00  7.23425310E-01  7.23425310E-01 -2.15023140E+00 -2.15023140E+00
 -1.44685062E+00  7.41647610E-01  7.41647610E-01 -2.36889900E+00  2.46001050E+00
 -2.36889900E+00  2.46001050E+00 -1.44685062E+00  7.23425310E-01  7.23425310E-01
 -2.29600980E+00  2.41445475E+00  2.41445475E+00 -1.44685062E+00  7.23425310E-01
  7.23425310E-01  2.40534360E+00  7.23425310E-01  7.23425310E-01 -1.44685062E+00
 -1.46507292E+00  7.23425310E-01  7.23425310E-01  7.05203010E-01 -1.67827383E+00
  7.05203010E-01  5.95869210E-01  5.95869210E-01  5.95869210E-01 -5.62704624E+00
  2.48734395E+00  5.20975557E+00 -6.00242562E+00 -1.76756310E+00 -4.79246490E-01
  2.55112200E+00 -4.70135340E-01 -1.22636079E+00  2.51467740E+00 -1.71289620E+00
 -1.29560553E+00 -1.76756310E+00 -2.29600980E+00 -6.94269630E-01  2.51467740E+00
 -1.56711780E+00 -2.16845370E+00  2.53289970E+00  2.44178820E+00 -1.39218372E+00
  8.96537160E-01  8.96537160E-01 -5.28446700E-01  2.58756660E+00  2.51467740E+00
 -1.44685062E+00  8.23647960E-01  8.23647960E-01 -7.28892000E-01 -1.44685062E+00
  7.23425310E-01  7.23425310E-01 -2.15023140E+00 -2.15023140E+00 -1.44685062E+00
  7.41647610E-01  7.41647610E-01 -2.36889900E+00  2.46001050E+00 -2.36889900E+00
  2.46001050E+00 -1.44685062E+00  7.23425310E-01  7.23425310E-01 -2.29600980E+00
  2.41445475E+00  2.41445475E+00 -1.44685062E+00  7.23425310E-01  7.23425310E-01
  2.40534360E+00  7.23425310E-01  7.23425310E-01 -1.44685062E+00 -1.46507292E+00
  7.23425310E-01  7.23425310E-01  7.05203010E-01 -1.67827383E+00  7.05203010E-01
  5.95869210E-01  5.95869210E-01  5.95869210E-01 -5.62704624E+00  2.48734395E+00
  5.20975557E+00 -6.00242562E+00 -1.76756310E+00 -4.79246490E-01  2.55112200E+00
 -4.70135340E-01 -1.22636079E+00  2.51467740E+00 -1.71289620E+00 -1.29560553E+00
 -1.76756310E+00 -2.29600980E+00 -6.94269630E-01  2.51467740E+00 -1.56711780E+00
 -2.16845370E+00  2.53289970E+00  2.44178820E+00 -1.39218372E+00  8.96537160E-01
  8.96537160E-01 -5.28446700E-01  2.58756660E+00  2.51467740E+00 -1.44685062E+00
  8.23647960E-01  8.23647960E-01 -7.28892000E-01 -1.44685062E+00  7.23425310E-01
  7.23425310E-01 -2.15023140E+00 -2.15023140E+00 -1.44685062E+00  7.41647610E-01
  7.41647610E-01 -2.36889900E+00  2.46001050E+00 -2.36889900E+00  2.46001050E+00
 -1.44685062E+00  7.23425310E-01  7.23425310E-01 -2.29600980E+00  2.41445475E+00
  2.41445475E+00 -1.44685062E+00  7.23425310E-01  7.23425310E-01  2.40534360E+00
  7.23425310E-01  7.23425310E-01 -1.44685062E+00 -1.46507292E+00  7.23425310E-01
  7.23425310E-01  7.05203010E-01 -1.67827383E+00  7.05203010E-01  5.95869210E-01
  5.95869210E-01  5.95869210E-01 -5.62704624E+00  2.48734395E+00  5.20975557E+00
 -6.00242562E+00 -1.76756310E+00 -4.79246490E-01  2.55112200E+00 -4.70135340E-01
 -1.22636079E+00  2.51467740E+00 -1.71289620E+00 -1.29560553E+00 -1.76756310E+00
 -2.29600980E+00 -6.94269630E-01  2.51467740E+00 -1.56711780E+00 -2.16845370E+00
  2.53289970E+00  2.44178820E+00 -1.39218372E+00  8.96537160E-01  8.96537160E-01
 -5.28446700E-01  2.58756660E+00  2.51467740E+00 -1.44685062E+00  8.23647960E-01
  8.23647960E-01 -7.28892000E-01 -1.44685062E+00  7.23425310E-01  7.23425310E-01
 -2.15023140E+00 -2.15023140E+00 -1.44685062E+00  7.41647610E-01  7.41647610E-01
 -2.36889900E+00  2.46001050E+00 -2.36889900E+00  2.46001050E+00 -1.44685062E+00
  7.23425310E-01  7.23425310E-01 -2.29600980E+00  2.41445475E+00  2.41445475E+00
 -1.44685062E+00  7.23425310E-01  7.23425310E-01  2.40534360E+00  7.23425310E-01
  7.23425310E-01 -1.44685062E+00 -1.46507292E+00  7.23425310E-01  7.23425310E-01
  7.05203010E-01 -1.67827383E+00  7.05203010E-01  5.95869210E-01  5.95869210E-01
  5.95869210E-01 -5.62704624E+00  2.48734395E+00  5.20975557E+00 -6.00242562E+00
 -1.76756310E+00 -4.79246490E-01  2.55112200E+00 -4.70135340E-01 -1.22636079E+00
  2.51467740E+00 -1.71289620E+00 -1.29560553E+00 -1.76756310E+00 -2.29600980E+00
 -6.94269630E-01  2.51467740E+00 -1.56711780E+00 -2.16845370E+00  2.53289970E+00
  2.44178820E+00 -1.39218372E+00  8.96537160E-01  8.96537160E-01 -5.28446700E-01
  2.58756660E+00  2.51467740E+00 -1.44685062E+00  8.23647960E-01  8.23647960E-01
 -7.28892000E-01 -1.44685062E+00  7.23425310E-01  7.23425310E-01 -2.15023140E+00
 -2.15023140E+00 -1.44685062E+00  7.41647610E-01  7.41647610E-01 -2.36889900E+00
  2.46001050E+00 -2.36889900E+00  2.46001050E+00 -1.44685062E+00  7.23425310E-01
  7.23425310E-01 -2.29600980E+00  2.41445475E+00  2.41445475E+00 -1.44685062E+00
  7.23425310E-01  7.23425310E-01  2.40534360E+00  7.23425310E-01  7.23425310E-01
 -1.44685062E+00 -1.46507292E+00  7.23425310E-01  7.23425310E-01  7.05203010E-01
 -1.67827383E+00  7.05203010E-01  5.95869210E-01  5.95869210E-01  5.95869210E-01
 -5.62704624E+00  2.48734395E+00  5.20975557E+00 -6.00242562E+00 -1.76756310E+00
 -4.79246490E-01  2.55112200E+00 -4.70135340E-01 -1.22636079E+00  2.51467740E+00
 -1.71289620E+00 -1.29560553E+00 -1.76756310E+00 -2.29600980E+00 -6.94269630E-01
  2.51467740E+00 -1.56711780E+00 -2.16845370E+00  2.53289970E+00  2.44178820E+00
 -1.39218372E+00  8.96537160E-01  8.96537160E-01 -5.28446700E-01  2.58756660E+00
  2.51467740E+00 -1.44685062E+00  8.23647960E-01  8.23647960E-01 -7.28892000E-01
 -1.44685062E+00  7.23425310E-01  7.23425310E-01 -2.15023140E+00 -2.15023140E+00
 -1.44685062E+00  7.41647610E-01  7.41647610E-01 -2.36889900E+00  2.46001050E+00
 -2.36889900E+00  2.46001050E+00 -1.44685062E+00  7.23425310E-01  7.23425310E-01
 -2.29600980E+00  2.41445475E+00  2.41445475E+00 -1.44685062E+00  7.23425310E-01
  7.23425310E-01  2.40534360E+00  7.23425310E-01  7.23425310E-01 -1.44685062E+00
 -1.46507292E+00  7.23425310E-01  7.23425310E-01  7.05203010E-01 -1.67827383E+00
  7.05203010E-01  5.95869210E-01  5.95869210E-01  5.95869210E-01 -5.62704624E+00
  2.48734395E+00  5.20975557E+00 -6.00242562E+00 -1.76756310E+00 -4.79246490E-01
  2.55112200E+00 -4.70135340E-01 -1.22636079E+00  2.51467740E+00 -1.71289620E+00
 -1.29560553E+00 -1.76756310E+00 -2.29600980E+00 -6.94269630E-01  2.51467740E+00
 -1.56711780E+00 -2.16845370E+00  2.53289970E+00  2.44178820E+00 -1.39218372E+00
  8.96537160E-01  8.96537160E-01 -5.28446700E-01  2.58756660E+00  2.51467740E+00
 -1.44685062E+00  8.23647960E-01  8.23647960E-01 -7.28892000E-01 -1.44685062E+00
  7.23425310E-01  7.23425310E-01 -2.15023140E+00 -2.15023140E+00 -1.44685062E+00
  7.41647610E-01  7.41647610E-01 -2.36889900E+00  2.46001050E+00 -2.36889900E+00
  2.46001050E+00 -1.44685062E+00  7.23425310E-01  7.23425310E-01 -2.29600980E+00
  2.41445475E+00  2.41445475E+00 -1.44685062E+00  7.23425310E-01  7.23425310E-01
  2.40534360E+00  7.23425310E-01  7.23425310E-01 -1.44685062E+00 -1.46507292E+00
  7.23425310E-01  7.23425310E-01  7.05203010E-01 -1.67827383E+00  7.05203010E-01
  5.95869210E-01  5.95869210E-01  5.95869210E-01 -5.62704624E+00  2.48734395E+00
  5.20975557E+00 -6.00242562E+00 -1.76756310E+00 -4.79246490E-01  2.55112200E+00
 -4.70135340E-01 -1.22636079E+00  2.51467740E+00 -1.71289620E+00 -1.29560553E+00
 -1.76756310E+00 -2.29600980E+00 -6.94269630E-01  2.51467740E+00 -1.56711780E+00
 -2.16845370E+00  2.53289970E+00  2.44178820E+00 -1.39218372E+00  8.96537160E-01
  8.96537160E-01 -5.28446700E-01  2.58756660E+00  2.51467740E+00 -1.44685062E+00
  8.23647960E-01  8.23647960E-01 -7.28892000E-01 -1.44685062E+00  7.23425310E-01
  7.23425310E-01 -2.15023140E+00 -2.15023140E+00 -1.44685062E+00  7.41647610E-01
  7.41647610E-01 -2.36889900E+00  2.46001050E+00 -2.36889900E+00  2.46001050E+00
 -1.44685062E+00  7.23425310E-01  7.23425310E-01 -2.29600980E+00  2.41445475E+00
  2.41445475E+00 -1.44685062E+00  7.23425310E-01  7.23425310E-01  2.40534360E+00
  7.23425310E-01  7.23425310E-01 -1.44685062E+00 -1.46507292E+00  7.23425310E-01
  7.23425310E-01  7.05203010E-01 -1.67827383E+00  7.05203010E-01  5.95869210E-01
  5.95869210E-01  5.95869210E-01 -5.62704624E+00  2.48734395E+00  5.20975557E+00
 -6.00242562E+00 -1.76756310E+00 -4.79246490E-01  2.55112200E+00 -4.70135340E-01
 -1.22636079E+00  2.51467740E+00 -1.71289620E+00 -1.29560553E+00 -1.76756310E+00
 -2.29600980E+00 -6.94269630E-01  2.51467740E+00 -1.56711780E+00 -2.16845370E+00
  2.53289970E+00  2.44178820E+00 -1.39218372E+00  8.96537160E-01  8.96537160E-01
 -5.28446700E-01  2.58756660E+00  2.51467740E+00 -1.44685062E+00  8.23647960E-01
  8.23647960E-01 -7.28892000E-01 -1.44685062E+00  7.23425310E-01  7.23425310E-01
 -2.15023140E+00 -2.15023140E+00 -1.44685062E+00  7.41647610E-01  7.41647610E-01
 -2.36889900E+00  2.46001050E+00 -2.36889900E+00  2.46001050E+00 -1.44685062E+00
  7.23425310E-01  7.23425310E-01 -2.29600980E+00  2.41445475E+00  2.41445475E+00
 -1.44685062E+00  7.23425310E-01  7.23425310E-01  2.40534360E+00  7.23425310E-01
  7.23425310E-01 -1.44685062E+00 -1.46507292E+00  7.23425310E-01  7.23425310E-01
  7.05203010E-01 -1.67827383E+00  7.05203010E-01  5.95869210E-01  5.95869210E-01
  5.95869210E-01 -5.62704624E+00  2.48734395E+00  5.20975557E+00 -6.00242562E+00
 -1.76756310E+00 -4.79246490E-01  2.55112200E+00 -4.70135340E-01 -1.22636079E+00
  2.51467740E+00 -1.71289620E+00 -1.29560553E+00 -1.76756310E+00 -2.29600980E+00
 -6.94269630E-01  2.51467740E+00 -1.56711780E+00 -2.16845370E+00  2.53289970E+00
  2.44178820E+00 -1.39218372E+00  8.96537160E-01  8.96537160E-01 -5.28446700E-01
  2.58756660E+00  2.51467740E+00 -1.44685062E+00  8.23647960E-01  8.23647960E-01
 -7.28892000E-01 -1.44685062E+00  7.23425310E-01  7.23425310E-01 -2.15023140E+00
 -2.15023140E+00 -1.44685062E+00  7.41647610E-01  7.41647610E-01 -2.36889900E+00
  2.46001050E+00 -2.36889900E+00  2.46001050E+00 -1.44685062E+00  7.23425310E-01
  7.23425310E-01 -2.29600980E+00  2.41445475E+00  2.41445475E+00 -1.44685062E+00
  7.23425310E-01  7.23425310E-01  2.40534360E+00  7.23425310E-01  7.23425310E-01
 -1.44685062E+00 -1.46507292E+00  7.23425310E-01  7.23425310E-01  7.05203010E-01
 -1.67827383E+00  7.05203010E-01  5.95869210E-01  5.95869210E-01  5.95869210E-01
 -5.62704624E+00  2.48734395E+00  5.20975557E+00 -6.00242562E+00 -1.76756310E+00
 -4.79246490E-01  2.55112200E+00 -4.70135340E-01 -1.22636079E+00  2.51467740E+00
 -1.71289620E+00 -1.29560553E+00 -1.76756310E+00 -2.29600980E+00 -6.94269630E-01
  2.51467740E+00 -1.56711780E+00 -2.16845370E+00  2.53289970E+00  2.44178820E+00
 -1.39218372E+00  8.96537160E-01  8.96537160E-01 -5.28446700E-01  2.58756660E+00
  2.51467740E+00 -1.44685062E+00  8.23647960E-01  8.23647960E-01 -7.28892000E-01
 -1.44685062E+00  7.23425310E-01  7.23425310E-01 -2.15023140E+00 -2.15023140E+00
 -1.44685062E+00  7.41647610E-01  7.41647610E-01 -2.36889900E+00  2.46001050E+00
 -2.36889900E+00  2.46001050E+00 -1.44685062E+00  7.23425310E-01  7.23425310E-01
 -2.29600980E+00  2.41445475E+00  2.41445475E+00 -1.44685062E+00  7.23425310E-01
  7.23425310E-01  2.40534360E+00  7.23425310E-01  7.23425310E-01 -1.44685062E+00
 -1.46507292E+00  7.23425310E-01  7.23425310E-01  7.05203010E-01 -1.67827383E+00
  7.05203010E-01  5.95869210E-01  5.95869210E-01  5.95869210E-01 -5.62704624E+00
  2.48734395E+00  5.20975557E+00 -6.00242562E+00 -1.76756310E+00 -4.79246490E-01
  2.55112200E+00 -4.70135340E-01 -1.22636079E+00  2.51467740E+00 -1.71289620E+00
 -1.29560553E+00 -1.76756310E+00 -2.29600980E+00 -6.94269630E-01  2.51467740E+00
 -1.56711780E+00 -2.16845370E+00  2.53289970E+00  2.44178820E+00 -1.39218372E+00
  8.96537160E-01  8.96537160E-01 -5.28446700E-01  2.58756660E+00  2.51467740E+00
 -1.44685062E+00  8.23647960E-01  8.23647960E-01 -7.28892000E-01 -1.44685062E+00
  7.23425310E-01  7.23425310E-01 -2.15023140E+00 -2.15023140E+00 -1.44685062E+00
  7.41647610E-01  7.41647610E-01 -2.36889900E+00  2.46001050E+00 -2.36889900E+00
  2.46001050E+00 -1.44685062E+00  7.23425310E-01  7.23425310E-01 -2.29600980E+00
  2.41445475E+00  2.41445475E+00 -1.44685062E+00  7.23425310E-01  7.23425310E-01
  2.40534360E+00  7.23425310E-01  7.23425310E-01 -1.44685062E+00 -1.46507292E+00
  7.23425310E-01  7.23425310E-01  7.05203010E-01 -1.67827383E+00  7.05203010E-01
  5.95869210E-01  5.95869210E-01  5.95869210E-01 -5.62704624E+00  2.48734395E+00
  5.20975557E+00 -6.00242562E+00 -1.76756310E+00 -4.79246490E-01  2.55112200E+00
 -4.70135340E-01 -1.22636079E+00  2.51467740E+00 -1.71289620E+00 -1.29560553E+00
 -1.76756310E+00 -2.29600980E+00 -6.94269630E-01  2.51467740E+00 -1.56711780E+00
 -2.16845370E+00  2.53289970E+00  2.44178820E+00 -1.39218372E+00  8.96537160E-01
  8.96537160E-01 -5.28446700E-01  2.58756660E+00  2.51467740E+00 -1.44685062E+00
  8.23647960E-01  8.23647960E-01 -7.28892000E-01 -1.44685062E+00  7.23425310E-01
  7.23425310E-01 -2.15023140E+00 -2.15023140E+00 -1.44685062E+00  7.41647610E-01
  7.41647610E-01 -2.36889900E+00  2.46001050E+00 -2.36889900E+00  2.46001050E+00
 -1.44685062E+00  7.23425310E-01  7.23425310E-01 -2.29600980E+00  2.41445475E+00
  2.41445475E+00 -1.44685062E+00  7.23425310E-01  7.23425310E-01  2.40534360E+00
  7.23425310E-01  7.23425310E-01 -1.44685062E+00 -1.46507292E+00  7.23425310E-01
  7.23425310E-01  7.05203010E-01 -1.67827383E+00  7.05203010E-01  5.95869210E-01
  5.95869210E-01  5.95869210E-01 -5.62704624E+00  2.48734395E+00  5.20975557E+00
 -6.00242562E+00 -1.76756310E+00 -4.79246490E-01  2.55112200E+00 -4.70135340E-01
 -1.22636079E+00  2.51467740E+00 -1.71289620E+00 -1.29560553E+00 -1.76756310E+00
 -2.29600980E+00 -6.94269630E-01  2.51467740E+00 -1.56711780E+00 -2.16845370E+00
  2.53289970E+00  2.44178820E+00 -1.39218372E+00  8.96537160E-01  8.96537160E-01
 -5.28446700E-01  2.58756660E+00  2.51467740E+00 -1.44685062E+00  8.23647960E-01
  8.23647960E-01 -7.28892000E-01 -1.44685062E+00  7.23425310E-01  7.23425310E-01
 -2.15023140E+00 -2.15023140E+00 -1.44685062E+00  7.41647610E-01  7.41647610E-01
 -2.36889900E+00  2.46001050E+00 -2.36889900E+00  2.46001050E+00 -1.44685062E+00
  7.23425310E-01  7.23425310E-01 -2.29600980E+00  2.41445475E+00  2.41445475E+00
 -1.44685062E+00  7.23425310E-01  7.23425310E-01  2.40534360E+00  7.23425310E-01
  7.23425310E-01 -1.44685062E+00 -1.46507292E+00  7.23425310E-01  7.23425310E-01
  7.05203010E-01 -1.67827383E+00  7.05203010E-01  5.95869210E-01  5.95869210E-01
  5.95869210E-01 -5.62704624E+00  2.48734395E+00  5.20975557E+00 -6.00242562E+00
 -1.76756310E+00 -4.79246490E-01  2.55112200E+00 -4.70135340E-01 -1.22636079E+00
  2.51467740E+00 -1.71289620E+00 -1.29560553E+00 -1.76756310E+00 -2.29600980E+00
 -6.94269630E-01  2.51467740E+00 -1.56711780E+00 -2.16845370E+00  2.53289970E+00
  2.44178820E+00 -1.39218372E+00  8.96537160E-01  8.96537160E-01 -5.28446700E-01
  2.58756660E+00  2.51467740E+00 -1.44685062E+00  8.23647960E-01  8.23647960E-01
 -7.28892000E-01 -1.44685062E+00  7.23425310E-01  7.23425310E-01 -2.15023140E+00
 -2.15023140E+00 -1.44685062E+00  7.41647610E-01  7.41647610E-01 -2.36889900E+00
  2.46001050E+00 -2.36889900E+00  2.46001050E+00 -1.44685062E+00  7.23425310E-01
  7.23425310E-01 -2.29600980E+00  2.41445475E+00  2.41445475E+00 -1.44685062E+00
  7.23425310E-01  7.23425310E-01  2.40534360E+00  7.23425310E-01  7.23425310E-01
 -1.44685062E+00 -1.46507292E+00  7.23425310E-01  7.23425310E-01  7.05203010E-01
 -1.67827383E+00  7.05203010E-01  5.95869210E-01  5.95869210E-01  5.95869210E-01
 -5.62704624E+00  2.48734395E+00  5.20975557E+00 -6.00242562E+00 -1.76756310E+00
 -4.79246490E-01  2.55112200E+00 -4.70135340E-01 -1.22636079E+00  2.51467740E+00
 -1.71289620E+00 -1.29560553E+00 -1.76756310E+00 -2.29600980E+00 -6.94269630E-01
  2.51467740E+00 -1.56711780E+00 -2.16845370E+00  2.53289970E+00  2.44178820E+00
 -1.39218372E+00  8.96537160E-01  8.96537160E-01 -5.28446700E-01  2.58756660E+00
  2.51467740E+00 -1.44685062E+00  8.23647960E-01  8.23647960E-01 -7.28892000E-01
 -1.44685062E+00  7.23425310E-01  7.23425310E-01 -2.15023140E+00 -2.15023140E+00
 -1.44685062E+00  7.41647610E-01  7.41647610E-01 -2.36889900E+00  2.46001050E+00
 -2.36889900E+00  2.46001050E+00 -1.44685062E+00  7.23425310E-01  7.23425310E-01
 -2.29600980E+00  2.41445475E+00  2.41445475E+00 -1.44685062E+00  7.23425310E-01
  7.23425310E-01  2.40534360E+00  7.23425310E-01  7.23425310E-01 -1.44685062E+00
 -1.46507292E+00  7.23425310E-01  7.23425310E-01  7.05203010E-01 -1.67827383E+00
  7.05203010E-01  5.95869210E-01  5.95869210E-01  5.95869210E-01 -5.62704624E+00
  2.48734395E+00  5.20975557E+00 -6.00242562E+00 -1.76756310E+00 -4.79246490E-01
  2.55112200E+00 -4.70135340E-01 -1.22636079E+00  2.51467740E+00 -1.71289620E+00
 -1.29560553E+00 -1.76756310E+00 -2.29600980E+00 -6.94269630E-01  2.51467740E+00
 -1.56711780E+00 -2.16845370E+00  2.53289970E+00  2.44178820E+00 -1.39218372E+00
  8.96537160E-01  8.96537160E-01 -5.28446700E-01  2.58756660E+00  2.51467740E+00
 -1.44685062E+00  8.23647960E-01  8.23647960E-01 -7.28892000E-01 -1.44685062E+00
  7.23425310E-01  7.23425310E-01 -2.15023140E+00 -2.15023140E+00 -1.44685062E+00
  7.41647610E-01  7.41647610E-01 -2.36889900E+00  2.46001050E+00 -2.36889900E+00
  2.46001050E+00 -1.44685062E+00  7.23425310E-01  7.23425310E-01 -2.29600980E+00
  2.41445475E+00  2.41445475E+00 -1.44685062E+00  7.23425310E-01  7.23425310E-01
  2.40534360E+00  7.23425310E-01  7.23425310E-01 -1.44685062E+00 -1.46507292E+00
  7.23425310E-01  7.23425310E-01  7.05203010E-01 -1.67827383E+00  7.05203010E-01
  5.95869210E-01  5.95869210E-01  5.95869210E-01 -5.62704624E+00  2.48734395E+00
  5.20975557E+00 -6.00242562E+00 -1.76756310E+00 -4.79246490E-01  2.55112200E+00
 -4.70135340E-01 -1.22636079E+00  2.51467740E+00 -1.71289620E+00 -1.29560553E+00
 -1.76756310E+00 -2.29600980E+00 -6.94269630E-01  2.51467740E+00 -1.56711780E+00
 -2.16845370E+00  2.53289970E+00  2.44178820E+00 -1.39218372E+00  8.96537160E-01
  8.96537160E-01 -5.28446700E-01  2.58756660E+00  2.51467740E+00 -1.44685062E+00
  8.23647960E-01  8.23647960E-01 -7.28892000E-01 -1.44685062E+00  7.23425310E-01
  7.23425310E-01 -2.15023140E+00 -2.15023140E+00 -1.44685062E+00  7.41647610E-01
  7.41647610E-01 -2.36889900E+00  2.46001050E+00 -2.36889900E+00  2.46001050E+00
 -1.44685062E+00  7.23425310E-01  7.23425310E-01 -2.29600980E+00  2.41445475E+00
  2.41445475E+00 -1.44685062E+00  7.23425310E-01  7.23425310E-01  2.40534360E+00
  7.23425310E-01  7.23425310E-01 -1.44685062E+00 -1.46507292E+00  7.23425310E-01
  7.23425310E-01  7.05203010E-01 -1.67827383E+00  7.05203010E-01  5.95869210E-01
  5.95869210E-01  5.95869210E-01 -5.62704624E+00  2.48734395E+00  5.20975557E+00
 -6.00242562E+00 -1.76756310E+00 -4.79246490E-01  2.55112200E+00 -4.70135340E-01
 -1.22636079E+00  2.51467740E+00 -1.71289620E+00 -1.29560553E+00 -1.76756310E+00
 -2.29600980E+00 -6.94269630E-01  2.51467740E+00 -1.56711780E+00 -2.16845370E+00
  2.53289970E+00  2.44178820E+00 -1.39218372E+00  8.96537160E-01  8.96537160E-01
 -5.28446700E-01  2.58756660E+00  2.51467740E+00 -1.44685062E+00  8.23647960E-01
  8.23647960E-01 -7.28892000E-01 -1.44685062E+00  7.23425310E-01  7.23425310E-01
 -2.15023140E+00 -2.15023140E+00 -1.44685062E+00  7.41647610E-01  7.41647610E-01
 -2.36889900E+00  2.46001050E+00 -2.36889900E+00  2.46001050E+00 -1.44685062E+00
  7.23425310E-01  7.23425310E-01 -2.29600980E+00  2.41445475E+00  2.41445475E+00
 -1.44685062E+00  7.23425310E-01  7.23425310E-01  2.40534360E+00  7.23425310E-01
  7.23425310E-01 -1.44685062E+00 -1.46507292E+00  7.23425310E-01  7.23425310E-01
  7.05203010E-01 -1.67827383E+00  7.05203010E-01  5.95869210E-01  5.95869210E-01
  5.95869210E-01 -5.62704624E+00  2.48734395E+00  5.20975557E+00 -6.00242562E+00
 -1.76756310E+00 -4.79246490E-01  2.55112200E+00 -4.70135340E-01 -1.22636079E+00
  2.51467740E+00 -1.71289620E+00 -1.29560553E+00 -1.76756310E+00 -2.29600980E+00
 -6.94269630E-01  2.51467740E+00 -1.56711780E+00 -2.16845370E+00  2.53289970E+00
  2.44178820E+00 -1.39218372E+00  8.96537160E-01  8.96537160E-01 -5.28446700E-01
  2.58756660E+00  2.51467740E+00 -1.44685062E+00  8.23647960E-01  8.23647960E-01
 -7.28892000E-01 -1.44685062E+00  7.23425310E-01  7.23425310E-01 -2.15023140E+00
 -2.15023140E+00 -1.44685062E+00  7.41647610E-01  7.41647610E-01 -2.36889900E+00
  2.46001050E+00 -2.36889900E+00  2.46001050E+00 -1.44685062E+00  7.23425310E-01
  7.23425310E-01 -2.29600980E+00  2.41445475E+00  2.41445475E+00 -1.44685062E+00
  7.23425310E-01  7.23425310E-01  2.40534360E+00  7.23425310E-01  7.23425310E-01
 -1.44685062E+00 -1.46507292E+00  7.23425310E-01  7.23425310E-01  7.05203010E-01
 -1.67827383E+00  7.05203010E-01  5.95869210E-01  5.95869210E-01  5.95869210E-01
 -5.62704624E+00  2.48734395E+00  5.20975557E+00 -6.00242562E+00 -1.76756310E+00
 -4.79246490E-01  2.55112200E+00 -4.70135340E-01 -1.22636079E+00  2.51467740E+00
 -1.71289620E+00 -1.29560553E+00 -1.76756310E+00 -2.29600980E+00 -6.94269630E-01
  2.51467740E+00 -1.56711780E+00 -2.16845370E+00  2.53289970E+00  2.44178820E+00
 -1.39218372E+00  8.96537160E-01  8.96537160E-01 -5.28446700E-01  2.58756660E+00
  2.51467740E+00 -1.44685062E+00  8.23647960E-01  8.23647960E-01 -7.28892000E-01
 -1.44685062E+00  7.23425310E-01  7.23425310E-01 -2.15023140E+00 -2.15023140E+00
 -1.44685062E+00  7.41647610E-01  7.41647610E-01 -2.36889900E+00  2.46001050E+00
 -2.36889900E+00  2.46001050E+00 -1.44685062E+00  7.23425310E-01  7.23425310E-01
 -2.29600980E+00  2.41445475E+00  2.41445475E+00 -1.44685062E+00  7.23425310E-01
  7.23425310E-01  2.40534360E+00  7.23425310E-01  7.23425310E-01 -1.44685062E+00
 -1.46507292E+00  7.23425310E-01  7.23425310E-01  7.05203010E-01 -1.67827383E+00
  7.05203010E-01  5.95869210E-01  5.95869210E-01  5.95869210E-01 -5.62704624E+00
  2.48734395E+00  5.20975557E+00 -6.00242562E+00 -1.76756310E+00 -4.79246490E-01
  2.55112200E+00 -4.70135340E-01 -1.22636079E+00  2.51467740E+00 -1.71289620E+00
 -1.29560553E+00 -1.76756310E+00 -2.29600980E+00 -6.94269630E-01  2.51467740E+00
 -1.56711780E+00 -2.16845370E+00  2.53289970E+00  2.44178820E+00 -1.39218372E+00
  8.96537160E-01  8.96537160E-01 -5.28446700E-01  2.58756660E+00  2.51467740E+00
 -1.44685062E+00  8.23647960E-01  8.23647960E-01 -7.28892000E-01 -1.44685062E+00
  7.23425310E-01  7.23425310E-01 -2.15023140E+00 -2.15023140E+00 -1.44685062E+00
  7.41647610E-01  7.41647610E-01 -2.36889900E+00  2.46001050E+00 -2.36889900E+00
  2.46001050E+00 -1.44685062E+00  7.23425310E-01  7.23425310E-01 -2.29600980E+00
  2.41445475E+00  2.41445475E+00 -1.44685062E+00  7.23425310E-01  7.23425310E-01
  2.40534360E+00  7.23425310E-01  7.23425310E-01 -1.44685062E+00 -1.46507292E+00
  7.23425310E-01  7.23425310E-01  7.05203010E-01 -1.67827383E+00  7.05203010E-01
  5.95869210E-01  5.95869210E-01  5.95869210E-01 -5.62704624E+00  2.48734395E+00
  5.20975557E+00 -6.00242562E+00 -1.76756310E+00 -4.79246490E-01  2.55112200E+00
 -4.70135340E-01 -1.22636079E+00  2.51467740E+00 -1.71289620E+00 -1.29560553E+00
 -1.76756310E+00 -2.29600980E+00 -6.94269630E-01  2.51467740E+00 -1.56711780E+00
 -2.16845370E+00  2.53289970E+00  2.44178820E+00 -1.39218372E+00  8.96537160E-01
  8.96537160E-01 -5.28446700E-01  2.58756660E+00  2.51467740E+00 -1.44685062E+00
  8.23647960E-01  8.23647960E-01 -7.28892000E-01 -1.44685062E+00  7.23425310E-01
  7.23425310E-01 -2.15023140E+00 -2.15023140E+00 -1.44685062E+00  7.41647610E-01
  7.41647610E-01 -2.36889900E+00  2.46001050E+00 -2.36889900E+00  2.46001050E+00
 -1.44685062E+00  7.23425310E-01  7.23425310E-01 -2.29600980E+00  2.41445475E+00
  2.41445475E+00 -1.44685062E+00  7.23425310E-01  7.23425310E-01  2.40534360E+00
  7.23425310E-01  7.23425310E-01 -1.44685062E+00 -1.46507292E+00  7.23425310E-01
  7.23425310E-01  7.05203010E-01 -1.67827383E+00  7.05203010E-01  5.95869210E-01
  5.95869210E-01  5.95869210E-01 -5.62704624E+00  2.48734395E+00  5.20975557E+00
 -6.00242562E+00 -1.76756310E+00 -4.79246490E-01  2.55112200E+00 -4.70135340E-01
 -1.22636079E+00  2.51467740E+00 -1.71289620E+00 -1.29560553E+00 -1.76756310E+00
 -2.29600980E+00 -6.94269630E-01  2.51467740E+00 -1.56711780E+00 -2.16845370E+00
  2.53289970E+00  2.44178820E+00 -1.39218372E+00  8.96537160E-01  8.96537160E-01
 -5.28446700E-01  2.58756660E+00  2.51467740E+00 -1.44685062E+00  8.23647960E-01
  8.23647960E-01 -7.28892000E-01 -1.44685062E+00  7.23425310E-01  7.23425310E-01
 -2.15023140E+00 -2.15023140E+00 -1.44685062E+00  7.41647610E-01  7.41647610E-01
 -2.36889900E+00  2.46001050E+00 -2.36889900E+00  2.46001050E+00 -1.44685062E+00
  7.23425310E-01  7.23425310E-01 -2.29600980E+00  2.41445475E+00  2.41445475E+00
 -1.44685062E+00  7.23425310E-01  7.23425310E-01  2.40534360E+00  7.23425310E-01
  7.23425310E-01 -1.44685062E+00 -1.46507292E+00  7.23425310E-01  7.23425310E-01
  7.05203010E-01 -1.67827383E+00  7.05203010E-01  5.95869210E-01  5.95869210E-01
  5.95869210E-01 -5.62704624E+00  2.48734395E+00  5.20975557E+00 -6.00242562E+00
 -1.76756310E+00 -4.79246490E-01  2.55112200E+00 -4.70135340E-01 -1.22636079E+00
  2.51467740E+00 -1.71289620E+00 -1.29560553E+00 -1.76756310E+00 -2.29600980E+00
 -6.94269630E-01  2.51467740E+00 -1.56711780E+00 -2.16845370E+00  2.53289970E+00
  2.44178820E+00 -1.39218372E+00  8.96537160E-01  8.96537160E-01 -5.28446700E-01
  2.58756660E+00  2.51467740E+00 -1.44685062E+00  8.23647960E-01  8.23647960E-01
 -7.28892000E-01 -1.44685062E+00  7.23425310E-01  7.23425310E-01 -2.15023140E+00
 -2.15023140E+00 -1.44685062E+00  7.41647610E-01  7.41647610E-01 -2.36889900E+00
  2.46001050E+00 -2.36889900E+00  2.46001050E+00 -1.44685062E+00  7.23425310E-01
  7.23425310E-01 -2.29600980E+00  2.41445475E+00  2.41445475E+00 -1.44685062E+00
  7.23425310E-01  7.23425310E-01  2.40534360E+00  7.23425310E-01  7.23425310E-01
 -1.44685062E+00 -1.46507292E+00  7.23425310E-01  7.23425310E-01  7.05203010E-01
 -1.67827383E+00  7.05203010E-01  5.95869210E-01  5.95869210E-01  5.95869210E-01
 -5.62704624E+00  2.48734395E+00  5.20975557E+00 -6.00242562E+00 -1.76756310E+00
 -4.79246490E-01  2.55112200E+00 -4.70135340E-01 -1.22636079E+00  2.51467740E+00
 -1.71289620E+00 -1.29560553E+00 -1.76756310E+00 -2.29600980E+00 -6.94269630E-01
  2.51467740E+00 -1.56711780E+00 -2.16845370E+00  2.53289970E+00  2.44178820E+00
 -1.39218372E+00  8.96537160E-01  8.96537160E-01 -5.28446700E-01  2.58756660E+00
  2.51467740E+00 -1.44685062E+00  8.23647960E-01  8.23647960E-01 -7.28892000E-01
 -1.44685062E+00  7.23425310E-01  7.23425310E-01 -2.15023140E+00 -2.15023140E+00
 -1.44685062E+00  7.41647610E-01  7.41647610E-01 -2.36889900E+00  2.46001050E+00
 -2.36889900E+00  2.46001050E+00 -1.44685062E+00  7.23425310E-01  7.23425310E-01
 -2.29600980E+00  2.41445475E+00  2.41445475E+00 -1.44685062E+00  7.23425310E-01
  7.23425310E-01  2.40534360E+00  7.23425310E-01  7.23425310E-01 -1.44685062E+00
 -1.46507292E+00  7.23425310E-01  7.23425310E-01  7.05203010E-01 -1.67827383E+00
  7.05203010E-01  5.95869210E-01  5.95869210E-01  5.95869210E-01 -5.62704624E+00
  2.48734395E+00  5.20975557E+00 -6.00242562E+00 -1.76756310E+00 -4.79246490E-01
  2.55112200E+00 -4.70135340E-01 -1.22636079E+00  2.51467740E+00 -1.71289620E+00
 -1.29560553E+00 -1.76756310E+00 -2.29600980E+00 -6.94269630E-01  2.51467740E+00
 -1.56711780E+00 -2.16845370E+00  2.53289970E+00  2.44178820E+00 -1.39218372E+00
  8.96537160E-01  8.96537160E-01 -5.28446700E-01  2.58756660E+00  2.51467740E+00
 -1.44685062E+00  8.23647960E-01  8.23647960E-01 -7.28892000E-01 -1.44685062E+00
  7.23425310E-01  7.23425310E-01 -2.15023140E+00 -2.15023140E+00 -1.44685062E+00
  7.41647610E-01  7.41647610E-01 -2.36889900E+00  2.46001050E+00 -2.36889900E+00
  2.46001050E+00 -1.44685062E+00  7.23425310E-01  7.23425310E-01 -2.29600980E+00
  2.41445475E+00  2.41445475E+00 -1.44685062E+00  7.23425310E-01  7.23425310E-01
  2.40534360E+00  7.23425310E-01  7.23425310E-01 -1.44685062E+00 -1.46507292E+00
  7.23425310E-01  7.23425310E-01  7.05203010E-01 -1.67827383E+00  7.05203010E-01
  5.95869210E-01  5.95869210E-01  5.95869210E-01 -5.62704624E+00  2.48734395E+00
  5.20975557E+00 -6.00242562E+00 -1.76756310E+00 -4.79246490E-01  2.55112200E+00
 -4.70135340E-01 -1.22636079E+00  2.51467740E+00 -1.71289620E+00 -1.29560553E+00
 -1.76756310E+00 -2.29600980E+00 -6.94269630E-01  2.51467740E+00 -1.56711780E+00
 -2.16845370E+00  2.53289970E+00  2.44178820E+00 -1.39218372E+00  8.96537160E-01
  8.96537160E-01 -5.28446700E-01  2.58756660E+00  2.51467740E+00 -1.44685062E+00
  8.23647960E-01  8.23647960E-01 -7.28892000E-01 -1.44685062E+00  7.23425310E-01
  7.23425310E-01 -2.15023140E+00 -2.15023140E+00 -1.44685062E+00  7.41647610E-01
  7.41647610E-01 -2.36889900E+00  2.46001050E+00 -2.36889900E+00  2.46001050E+00
 -1.44685062E+00  7.23425310E-01  7.23425310E-01 -2.29600980E+00  2.41445475E+00
  2.41445475E+00 -1.44685062E+00  7.23425310E-01  7.23425310E-01  2.40534360E+00
  7.23425310E-01  7.23425310E-01 -1.44685062E+00 -1.46507292E+00  7.23425310E-01
  7.23425310E-01  7.05203010E-01 -1.67827383E+00  7.05203010E-01  5.95869210E-01
  5.95869210E-01  5.95869210E-01 -5.62704624E+00  2.48734395E+00  5.20975557E+00
 -6.00242562E+00 -1.76756310E+00 -4.79246490E-01  2.55112200E+00 -4.70135340E-01
 -1.22636079E+00  2.51467740E+00 -1.71289620E+00 -1.29560553E+00 -1.76756310E+00
 -2.29600980E+00 -6.94269630E-01  2.51467740E+00 -1.56711780E+00 -2.16845370E+00
  2.53289970E+00  2.44178820E+00 -1.39218372E+00  8.96537160E-01  8.96537160E-01
 -5.28446700E-01  2.58756660E+00  2.51467740E+00 -1.44685062E+00  8.23647960E-01
  8.23647960E-01 -7.28892000E-01 -1.44685062E+00  7.23425310E-01  7.23425310E-01
 -2.15023140E+00 -2.15023140E+00 -1.44685062E+00  7.41647610E-01  7.41647610E-01
 -2.36889900E+00  2.46001050E+00 -2.36889900E+00  2.46001050E+00 -1.44685062E+00
  7.23425310E-01  7.23425310E-01 -2.29600980E+00  2.41445475E+00  2.41445475E+00
 -1.44685062E+00  7.23425310E-01  7.23425310E-01  2.40534360E+00  7.23425310E-01
  7.23425310E-01 -1.44685062E+00 -1.46507292E+00  7.23425310E-01  7.23425310E-01
  7.05203010E-01 -1.67827383E+00  7.05203010E-01  5.95869210E-01  5.95869210E-01
  5.95869210E-01 -5.62704624E+00  2.48734395E+00  5.20975557E+00 -6.00242562E+00
 -1.76756310E+00 -4.79246490E-01  2.55112200E+00 -4.70135340E-01 -1.22636079E+00
  2.51467740E+00 -1.71289620E+00 -1.29560553E+00 -1.76756310E+00 -2.29600980E+00
 -6.94269630E-01  2.51467740E+00 -1.56711780E+00 -2.16845370E+00  2.53289970E+00
  2.44178820E+00 -1.39218372E+00  8.96537160E-01  8.96537160E-01 -5.28446700E-01
  2.58756660E+00  2.51467740E+00 -1.44685062E+00  8.23647960E-01  8.23647960E-01
 -7.28892000E-01 -1.44685062E+00  7.23425310E-01  7.23425310E-01 -2.15023140E+00
 -2.15023140E+00 -1.44685062E+00  7.41647610E-01  7.41647610E-01 -2.36889900E+00
  2.46001050E+00 -2.36889900E+00  2.46001050E+00 -1.44685062E+00  7.23425310E-01
  7.23425310E-01 -2.29600980E+00  2.41445475E+00  2.41445475E+00 -1.44685062E+00
  7.23425310E-01  7.23425310E-01  2.40534360E+00  7.23425310E-01  7.23425310E-01
 -1.44685062E+00 -1.46507292E+00  7.23425310E-01  7.23425310E-01  7.05203010E-01
 -1.67827383E+00  7.05203010E-01  5.95869210E-01  5.95869210E-01  5.95869210E-01
 -5.62704624E+00  2.48734395E+00  5.20975557E+00 -6.00242562E+00 -1.76756310E+00
 -4.79246490E-01  2.55112200E+00 -4.70135340E-01 -1.22636079E+00  2.51467740E+00
 -1.71289620E+00 -1.29560553E+00 -1.76756310E+00 -2.29600980E+00 -6.94269630E-01
  2.51467740E+00 -1.56711780E+00 -2.16845370E+00  2.53289970E+00  2.44178820E+00
 -1.39218372E+00  8.96537160E-01  8.96537160E-01 -5.28446700E-01  2.58756660E+00
  2.51467740E+00 -1.44685062E+00  8.23647960E-01  8.23647960E-01 -7.28892000E-01
 -1.44685062E+00  7.23425310E-01  7.23425310E-01 -2.15023140E+00 -2.15023140E+00
 -1.44685062E+00  7.41647610E-01  7.41647610E-01 -2.36889900E+00  2.46001050E+00
 -2.36889900E+00  2.46001050E+00 -1.44685062E+00  7.23425310E-01  7.23425310E-01
 -2.29600980E+00  2.41445475E+00  2.41445475E+00 -1.44685062E+00  7.23425310E-01
  7.23425310E-01  2.40534360E+00  7.23425310E-01  7.23425310E-01 -1.44685062E+00
 -1.46507292E+00  7.23425310E-01  7.23425310E-01  7.05203010E-01 -1.67827383E+00
  7.05203010E-01  5.95869210E-01  5.95869210E-01  5.95869210E-01 -5.62704624E+00
  2.48734395E+00  5.20975557E+00 -6.00242562E+00 -1.76756310E+00 -4.79246490E-01
  2.55112200E+00 -4.70135340E-01 -1.22636079E+00  2.51467740E+00 -1.71289620E+00
 -1.29560553E+00 -1.76756310E+00 -2.29600980E+00 -6.94269630E-01  2.51467740E+00
 -1.56711780E+00 -2.16845370E+00  2.53289970E+00  2.44178820E+00 -1.39218372E+00
  8.96537160E-01  8.96537160E-01 -5.28446700E-01  2.58756660E+00  2.51467740E+00
 -1.44685062E+00  8.23647960E-01  8.23647960E-01 -7.28892000E-01 -1.44685062E+00
  7.23425310E-01  7.23425310E-01 -2.15023140E+00 -2.15023140E+00 -1.44685062E+00
  7.41647610E-01  7.41647610E-01 -2.36889900E+00  2.46001050E+00 -2.36889900E+00
  2.46001050E+00 -1.44685062E+00  7.23425310E-01  7.23425310E-01 -2.29600980E+00
  2.41445475E+00  2.41445475E+00 -1.44685062E+00  7.23425310E-01  7.23425310E-01
  2.40534360E+00  7.23425310E-01  7.23425310E-01 -1.44685062E+00 -1.46507292E+00
  7.23425310E-01  7.23425310E-01  7.05203010E-01 -1.67827383E+00  7.05203010E-01
  5.95869210E-01  5.95869210E-01  5.95869210E-01 -5.62704624E+00  2.48734395E+00
  5.20975557E+00 -6.00242562E+00 -1.76756310E+00 -4.79246490E-01  2.55112200E+00
 -4.70135340E-01 -1.22636079E+00  2.51467740E+00 -1.71289620E+00 -1.29560553E+00
 -1.76756310E+00 -2.29600980E+00 -6.94269630E-01  2.51467740E+00 -1.56711780E+00
 -2.16845370E+00  2.53289970E+00  2.44178820E+00 -1.39218372E+00  8.96537160E-01
  8.96537160E-01 -5.28446700E-01  2.58756660E+00  2.51467740E+00 -1.44685062E+00
  8.23647960E-01  8.23647960E-01 -7.28892000E-01 -1.44685062E+00  7.23425310E-01
  7.23425310E-01 -2.15023140E+00 -2.15023140E+00 -1.44685062E+00  7.41647610E-01
  7.41647610E-01 -2.36889900E+00  2.46001050E+00 -2.36889900E+00  2.46001050E+00
 -1.44685062E+00  7.23425310E-01  7.23425310E-01 -2.29600980E+00  2.41445475E+00
  2.41445475E+00 -1.44685062E+00  7.23425310E-01  7.23425310E-01  2.40534360E+00
  7.23425310E-01  7.23425310E-01 -1.44685062E+00 -1.46507292E+00  7.23425310E-01
  7.23425310E-01  7.05203010E-01 -1.67827383E+00  7.05203010E-01  5.95869210E-01
  5.95869210E-01  5.95869210E-01 -5.62704624E+00  2.48734395E+00  5.20975557E+00
 -6.00242562E+00 -1.76756310E+00 -4.79246490E-01  2.55112200E+00 -4.70135340E-01
 -1.22636079E+00  2.51467740E+00 -1.71289620E+00 -1.29560553E+00 -1.76756310E+00
 -2.29600980E+00 -6.94269630E-01  2.51467740E+00 -1.56711780E+00 -2.16845370E+00
  2.53289970E+00  2.44178820E+00 -1.39218372E+00  8.96537160E-01  8.96537160E-01
 -5.28446700E-01  2.58756660E+00  2.51467740E+00 -1.44685062E+00  8.23647960E-01
  8.23647960E-01 -7.28892000E-01 -1.44685062E+00  7.23425310E-01  7.23425310E-01
 -2.15023140E+00 -2.15023140E+00 -1.44685062E+00  7.41647610E-01  7.41647610E-01
 -2.36889900E+00  2.46001050E+00 -2.36889900E+00  2.46001050E+00 -1.44685062E+00
  7.23425310E-01  7.23425310E-01 -2.29600980E+00  2.41445475E+00  2.41445475E+00
 -1.44685062E+00  7.23425310E-01  7.23425310E-01  2.40534360E+00  7.23425310E-01
  7.23425310E-01 -1.44685062E+00 -1.46507292E+00  7.23425310E-01  7.23425310E-01
  7.05203010E-01 -1.67827383E+00  7.05203010E-01  5.95869210E-01  5.95869210E-01
  5.95869210E-01 -5.62704624E+00  2.48734395E+00  5.20975557E+00 -6.00242562E+00
 -1.76756310E+00 -4.79246490E-01  2.55112200E+00 -4.70135340E-01 -1.22636079E+00
  2.51467740E+00 -1.71289620E+00 -1.29560553E+00 -1.76756310E+00 -2.29600980E+00
 -6.94269630E-01  2.51467740E+00 -1.56711780E+00 -2.16845370E+00  2.53289970E+00
  2.44178820E+00 -1.39218372E+00  8.96537160E-01  8.96537160E-01 -5.28446700E-01
  2.58756660E+00  2.51467740E+00 -1.44685062E+00  8.23647960E-01  8.23647960E-01
 -7.28892000E-01 -1.44685062E+00  7.23425310E-01  7.23425310E-01 -2.15023140E+00
 -2.15023140E+00 -1.44685062E+00  7.41647610E-01  7.41647610E-01 -2.36889900E+00
  2.46001050E+00 -2.36889900E+00  2.46001050E+00 -1.44685062E+00  7.23425310E-01
  7.23425310E-01 -2.29600980E+00  2.41445475E+00  2.41445475E+00 -1.44685062E+00
  7.23425310E-01  7.23425310E-01  2.40534360E+00  7.23425310E-01  7.23425310E-01
 -1.44685062E+00 -1.46507292E+00  7.23425310E-01  7.23425310E-01  7.05203010E-01
 -1.67827383E+00  7.05203010E-01  5.95869210E-01  5.95869210E-01  5.95869210E-01
 -5.62704624E+00  2.48734395E+00  5.20975557E+00 -6.00242562E+00 -1.76756310E+00
 -4.79246490E-01  2.55112200E+00 -4.70135340E-01 -1.22636079E+00  2.51467740E+00
 -1.71289620E+00 -1.29560553E+00 -1.76756310E+00 -2.29600980E+00 -6.94269630E-01
  2.51467740E+00 -1.56711780E+00 -2.16845370E+00  2.53289970E+00  2.44178820E+00
 -1.39218372E+00  8.96537160E-01  8.96537160E-01 -5.28446700E-01  2.58756660E+00
  2.51467740E+00 -1.44685062E+00  8.23647960E-01  8.23647960E-01 -7.28892000E-01
 -1.44685062E+00  7.23425310E-01  7.23425310E-01 -2.15023140E+00 -2.15023140E+00
 -1.44685062E+00  7.41647610E-01  7.41647610E-01 -2.36889900E+00  2.46001050E+00
 -2.36889900E+00  2.46001050E+00 -1.44685062E+00  7.23425310E-01  7.23425310E-01
 -2.29600980E+00  2.41445475E+00  2.41445475E+00 -1.44685062E+00  7.23425310E-01
  7.23425310E-01  2.40534360E+00  7.23425310E-01  7.23425310E-01 -1.44685062E+00
 -1.46507292E+00  7.23425310E-01  7.23425310E-01  7.05203010E-01 -1.67827383E+00
  7.05203010E-01  5.95869210E-01  5.95869210E-01  5.95869210E-01 -5.62704624E+00
  2.48734395E+00  5.20975557E+00 -6.00242562E+00 -1.76756310E+00 -4.79246490E-01
  2.55112200E+00 -4.70135340E-01 -1.22636079E+00  2.51467740E+00 -1.71289620E+00
 -1.29560553E+00 -1.76756310E+00 -2.29600980E+00 -6.94269630E-01  2.51467740E+00
 -1.56711780E+00 -2.16845370E+00  2.53289970E+00  2.44178820E+00 -1.39218372E+00
  8.96537160E-01  8.96537160E-01 -5.28446700E-01  2.58756660E+00  2.51467740E+00
 -1.44685062E+00  8.23647960E-01  8.23647960E-01 -7.28892000E-01 -1.44685062E+00
  7.23425310E-01  7.23425310E-01 -2.15023140E+00 -2.15023140E+00 -1.44685062E+00
  7.41647610E-01  7.41647610E-01 -2.36889900E+00  2.46001050E+00 -2.36889900E+00
  2.46001050E+00 -1.44685062E+00  7.23425310E-01  7.23425310E-01 -2.29600980E+00
  2.41445475E+00  2.41445475E+00 -1.44685062E+00  7.23425310E-01  7.23425310E-01
  2.40534360E+00  7.23425310E-01  7.23425310E-01 -1.44685062E+00 -1.46507292E+00
  7.23425310E-01  7.23425310E-01  7.05203010E-01 -1.67827383E+00  7.05203010E-01
  5.95869210E-01  5.95869210E-01  5.95869210E-01 -5.62704624E+00  2.48734395E+00
  5.20975557E+00 -6.00242562E+00 -1.76756310E+00 -4.79246490E-01  2.55112200E+00
 -4.70135340E-01 -1.22636079E+00  2.51467740E+00 -1.71289620E+00 -1.29560553E+00
 -1.76756310E+00 -2.29600980E+00 -6.94269630E-01  2.51467740E+00 -1.56711780E+00
 -2.16845370E+00  2.53289970E+00  2.44178820E+00 -1.39218372E+00  8.96537160E-01
  8.96537160E-01 -5.28446700E-01  2.58756660E+00  2.51467740E+00 -1.44685062E+00
  8.23647960E-01  8.23647960E-01 -7.28892000E-01 -1.44685062E+00  7.23425310E-01
  7.23425310E-01 -2.15023140E+00 -2.15023140E+00 -1.44685062E+00  7.41647610E-01
  7.41647610E-01 -2.36889900E+00  2.46001050E+00 -2.36889900E+00  2.46001050E+00
 -1.44685062E+00  7.23425310E-01  7.23425310E-01 -2.29600980E+00  2.41445475E+00
  2.41445475E+00 -1.44685062E+00  7.23425310E-01  7.23425310E-01  2.40534360E+00
  7.23425310E-01  7.23425310E-01 -1.44685062E+00 -1.46507292E+00  7.23425310E-01
  7.23425310E-01  7.05203010E-01 -1.67827383E+00  7.05203010E-01  5.95869210E-01
  5.95869210E-01  5.95869210E-01 -5.62704624E+00  2.48734395E+00  5.20975557E+00
 -6.00242562E+00 -1.76756310E+00 -4.79246490E-01  2.55112200E+00 -4.70135340E-01
 -1.22636079E+00  2.51467740E+00 -1.71289620E+00 -1.29560553E+00 -1.76756310E+00
 -2.29600980E+00 -6.94269630E-01  2.51467740E+00 -1.56711780E+00 -2.16845370E+00
  2.53289970E+00  2.44178820E+00 -1.39218372E+00  8.96537160E-01  8.96537160E-01
 -5.28446700E-01  2.58756660E+00  2.51467740E+00 -1.44685062E+00  8.23647960E-01
  8.23647960E-01 -7.28892000E-01 -1.44685062E+00  7.23425310E-01  7.23425310E-01
 -2.15023140E+00 -2.15023140E+00 -1.44685062E+00  7.41647610E-01  7.41647610E-01
 -2.36889900E+00  2.46001050E+00 -2.36889900E+00  2.46001050E+00 -1.44685062E+00
  7.23425310E-01  7.23425310E-01 -2.29600980E+00  2.41445475E+00  2.41445475E+00
 -1.44685062E+00  7.23425310E-01  7.23425310E-01  2.40534360E+00  7.23425310E-01
  7.23425310E-01 -1.44685062E+00 -1.46507292E+00  7.23425310E-01  7.23425310E-01
  7.05203010E-01 -1.67827383E+00  7.05203010E-01  5.95869210E-01  5.95869210E-01
  5.95869210E-01 -5.62704624E+00  2.48734395E+00  5.20975557E+00 -6.00242562E+00
 -1.76756310E+00 -4.79246490E-01  2.55112200E+00 -4.70135340E-01 -1.22636079E+00
  2.51467740E+00 -1.71289620E+00 -1.29560553E+00 -1.76756310E+00 -2.29600980E+00
 -6.94269630E-01  2.51467740E+00 -1.56711780E+00 -2.16845370E+00  2.53289970E+00
  2.44178820E+00 -1.39218372E+00  8.96537160E-01  8.96537160E-01 -5.28446700E-01
  2.58756660E+00  2.51467740E+00 -1.44685062E+00  8.23647960E-01  8.23647960E-01
 -7.28892000E-01 -1.44685062E+00  7.23425310E-01  7.23425310E-01 -2.15023140E+00
 -2.15023140E+00 -1.44685062E+00  7.41647610E-01  7.41647610E-01 -2.36889900E+00
  2.46001050E+00 -2.36889900E+00  2.46001050E+00 -1.44685062E+00  7.23425310E-01
  7.23425310E-01 -2.29600980E+00  2.41445475E+00  2.41445475E+00 -1.44685062E+00
  7.23425310E-01  7.23425310E-01  2.40534360E+00  7.23425310E-01  7.23425310E-01
 -1.44685062E+00 -1.46507292E+00  7.23425310E-01  7.23425310E-01  7.05203010E-01
 -1.67827383E+00  7.05203010E-01  5.95869210E-01  5.95869210E-01  5.95869210E-01
 -5.62704624E+00  2.48734395E+00  5.20975557E+00 -6.00242562E+00 -1.76756310E+00
 -4.79246490E-01  2.55112200E+00 -4.70135340E-01 -1.22636079E+00  2.51467740E+00
 -1.71289620E+00 -1.29560553E+00 -1.76756310E+00 -2.29600980E+00 -6.94269630E-01
  2.51467740E+00 -1.56711780E+00 -2.16845370E+00  2.53289970E+00  2.44178820E+00
 -1.39218372E+00  8.96537160E-01  8.96537160E-01 -5.28446700E-01  2.58756660E+00
  2.51467740E+00 -1.44685062E+00  8.23647960E-01  8.23647960E-01 -7.28892000E-01
 -1.44685062E+00  7.23425310E-01  7.23425310E-01 -2.15023140E+00 -2.15023140E+00
 -1.44685062E+00  7.41647610E-01  7.41647610E-01 -2.36889900E+00  2.46001050E+00
 -2.36889900E+00  2.46001050E+00 -1.44685062E+00  7.23425310E-01  7.23425310E-01
 -2.29600980E+00  2.41445475E+00  2.41445475E+00 -1.44685062E+00  7.23425310E-01
  7.23425310E-01  2.40534360E+00  7.23425310E-01  7.23425310E-01 -1.44685062E+00
 -1.46507292E+00  7.23425310E-01  7.23425310E-01  7.05203010E-01 -1.67827383E+00
  7.05203010E-01  5.95869210E-01  5.95869210E-01  5.95869210E-01 -5.62704624E+00
  2.48734395E+00  5.20975557E+00 -6.00242562E+00 -1.76756310E+00 -4.79246490E-01
  2.55112200E+00 -4.70135340E-01 -1.22636079E+00  2.51467740E+00 -1.71289620E+00
 -1.29560553E+00 -1.76756310E+00 -2.29600980E+00 -6.94269630E-01  2.51467740E+00
 -1.56711780E+00 -2.16845370E+00  2.53289970E+00  2.44178820E+00 -1.39218372E+00
  8.96537160E-01  8.96537160E-01 -5.28446700E-01  2.58756660E+00  2.51467740E+00
 -1.44685062E+00  8.23647960E-01  8.23647960E-01 -7.28892000E-01 -1.44685062E+00
  7.23425310E-01  7.23425310E-01 -2.15023140E+00 -2.15023140E+00 -1.44685062E+00
  7.41647610E-01  7.41647610E-01 -2.36889900E+00  2.46001050E+00 -2.36889900E+00
  2.46001050E+00 -1.44685062E+00  7.23425310E-01  7.23425310E-01 -2.29600980E+00
  2.41445475E+00  2.41445475E+00 -1.44685062E+00  7.23425310E-01  7.23425310E-01
  2.40534360E+00  7.23425310E-01  7.23425310E-01 -1.44685062E+00 -1.46507292E+00
  7.23425310E-01  7.23425310E-01  7.05203010E-01 -1.67827383E+00  7.05203010E-01
  5.95869210E-01  5.95869210E-01  5.95869210E-01 -5.62704624E+00  2.48734395E+00
  5.20975557E+00 -6.00242562E+00 -1.76756310E+00 -4.79246490E-01  2.55112200E+00
 -4.70135340E-01 -1.22636079E+00  2.51467740E+00 -1.71289620E+00 -1.29560553E+00
 -1.76756310E+00 -2.29600980E+00 -6.94269630E-01  2.51467740E+00 -1.56711780E+00
 -2.16845370E+00  2.53289970E+00  2.44178820E+00 -1.39218372E+00  8.96537160E-01
  8.96537160E-01 -5.28446700E-01  2.58756660E+00  2.51467740E+00 -1.44685062E+00
  8.23647960E-01  8.23647960E-01 -7.28892000E-01 -1.44685062E+00  7.23425310E-01
  7.23425310E-01 -2.15023140E+00 -2.15023140E+00 -1.44685062E+00  7.41647610E-01
  7.41647610E-01 -2.36889900E+00  2.46001050E+00 -2.36889900E+00  2.46001050E+00
 -1.44685062E+00  7.23425310E-01  7.23425310E-01 -2.29600980E+00  2.41445475E+00
  2.41445475E+00 -1.44685062E+00  7.23425310E-01  7.23425310E-01  2.40534360E+00
  7.23425310E-01  7.23425310E-01 -1.44685062E+00 -1.46507292E+00  7.23425310E-01
  7.23425310E-01  7.05203010E-01 -1.67827383E+00  7.05203010E-01  5.95869210E-01
  5.95869210E-01  5.95869210E-01 -5.62704624E+00  2.48734395E+00  5.20975557E+00
 -6.00242562E+00 -1.76756310E+00 -4.79246490E-01  2.55112200E+00 -4.70135340E-01
 -1.22636079E+00  2.51467740E+00 -1.71289620E+00 -1.29560553E+00 -1.76756310E+00
 -2.29600980E+00 -6.94269630E-01  2.51467740E+00 -1.56711780E+00 -2.16845370E+00
  2.53289970E+00  2.44178820E+00 -1.39218372E+00  8.96537160E-01  8.96537160E-01
 -5.28446700E-01  2.58756660E+00  2.51467740E+00 -1.44685062E+00  8.23647960E-01
  8.23647960E-01 -7.28892000E-01 -1.44685062E+00  7.23425310E-01  7.23425310E-01
 -2.15023140E+00 -2.15023140E+00 -1.44685062E+00  7.41647610E-01  7.41647610E-01
 -2.36889900E+00  2.46001050E+00 -2.36889900E+00  2.46001050E+00 -1.44685062E+00
  7.23425310E-01  7.23425310E-01 -2.29600980E+00  2.41445475E+00  2.41445475E+00
 -1.44685062E+00  7.23425310E-01  7.23425310E-01  2.40534360E+00  7.23425310E-01
  7.23425310E-01 -1.44685062E+00 -1.46507292E+00  7.23425310E-01  7.23425310E-01
  7.05203010E-01 -1.67827383E+00  7.05203010E-01  5.95869210E-01  5.95869210E-01
  5.95869210E-01 -5.62704624E+00  2.48734395E+00  5.20975557E+00 -6.00242562E+00
 -1.76756310E+00 -4.79246490E-01  2.55112200E+00 -4.70135340E-01 -1.22636079E+00
  2.51467740E+00 -1.71289620E+00 -1.29560553E+00 -1.76756310E+00 -2.29600980E+00
 -6.94269630E-01  2.51467740E+00 -1.56711780E+00 -2.16845370E+00  2.53289970E+00
  2.44178820E+00 -1.39218372E+00  8.96537160E-01  8.96537160E-01 -5.28446700E-01
  2.58756660E+00  2.51467740E+00 -1.44685062E+00  8.23647960E-01  8.23647960E-01
 -7.28892000E-01 -1.44685062E+00  7.23425310E-01  7.23425310E-01 -2.15023140E+00
 -2.15023140E+00 -1.44685062E+00  7.41647610E-01  7.41647610E-01 -2.36889900E+00
  2.46001050E+00 -2.36889900E+00  2.46001050E+00 -1.44685062E+00  7.23425310E-01
  7.23425310E-01 -2.29600980E+00  2.41445475E+00  2.41445475E+00 -1.44685062E+00
  7.23425310E-01  7.23425310E-01  2.40534360E+00  7.23425310E-01  7.23425310E-01
 -1.44685062E+00 -1.46507292E+00  7.23425310E-01  7.23425310E-01  7.05203010E-01
 -1.67827383E+00  7.05203010E-01  5.95869210E-01  5.95869210E-01  5.95869210E-01
 -5.62704624E+00  2.48734395E+00  5.20975557E+00 -6.00242562E+00 -1.76756310E+00
 -4.79246490E-01  2.55112200E+00 -4.70135340E-01 -1.22636079E+00  2.51467740E+00
 -1.71289620E+00 -1.29560553E+00 -1.76756310E+00 -2.29600980E+00 -6.94269630E-01
  2.51467740E+00 -1.56711780E+00 -2.16845370E+00  2.53289970E+00  2.44178820E+00
 -1.39218372E+00  8.96537160E-01  8.96537160E-01 -5.28446700E-01  2.58756660E+00
  2.51467740E+00 -1.44685062E+00  8.23647960E-01  8.23647960E-01 -7.28892000E-01
 -1.44685062E+00  7.23425310E-01  7.23425310E-01 -2.15023140E+00 -2.15023140E+00
 -1.44685062E+00  7.41647610E-01  7.41647610E-01 -2.36889900E+00  2.46001050E+00
 -2.36889900E+00  2.46001050E+00 -1.44685062E+00  7.23425310E-01  7.23425310E-01
 -2.29600980E+00  2.41445475E+00  2.41445475E+00 -1.44685062E+00  7.23425310E-01
  7.23425310E-01  2.40534360E+00  7.23425310E-01  7.23425310E-01 -1.44685062E+00
 -1.46507292E+00  7.23425310E-01  7.23425310E-01  7.05203010E-01 -1.67827383E+00
  7.05203010E-01  5.95869210E-01  5.95869210E-01  5.95869210E-01 -5.62704624E+00
  2.48734395E+00  5.20975557E+00 -6.00242562E+00 -1.76756310E+00 -4.79246490E-01
  2.55112200E+00 -4.70135340E-01 -1.22636079E+00  2.51467740E+00 -1.71289620E+00
 -1.29560553E+00 -1.76756310E+00 -2.29600980E+00 -6.94269630E-01  2.51467740E+00
 -1.56711780E+00 -2.16845370E+00  2.53289970E+00  2.44178820E+00 -1.39218372E+00
  8.96537160E-01  8.96537160E-01 -5.28446700E-01  2.58756660E+00  2.51467740E+00
 -1.44685062E+00  8.23647960E-01  8.23647960E-01 -7.28892000E-01 -1.44685062E+00
  7.23425310E-01  7.23425310E-01 -2.15023140E+00 -2.15023140E+00 -1.44685062E+00
  7.41647610E-01  7.41647610E-01 -2.36889900E+00  2.46001050E+00 -2.36889900E+00
  2.46001050E+00 -1.44685062E+00  7.23425310E-01  7.23425310E-01 -2.29600980E+00
  2.41445475E+00  2.41445475E+00 -1.44685062E+00  7.23425310E-01  7.23425310E-01
  2.40534360E+00  7.23425310E-01  7.23425310E-01 -1.44685062E+00 -1.46507292E+00
  7.23425310E-01  7.23425310E-01  7.05203010E-01 -1.67827383E+00  7.05203010E-01
  5.95869210E-01  5.95869210E-01  5.95869210E-01 -5.62704624E+00  2.48734395E+00
  5.20975557E+00 -6.00242562E+00 -1.76756310E+00 -4.79246490E-01  2.55112200E+00
 -4.70135340E-01 -1.22636079E+00  2.51467740E+00 -1.71289620E+00 -1.29560553E+00
 -1.76756310E+00 -2.29600980E+00 -6.94269630E-01  2.51467740E+00 -1.56711780E+00
 -2.16845370E+00  2.53289970E+00  2.44178820E+00 -1.39218372E+00  8.96537160E-01
  8.96537160E-01 -5.28446700E-01  2.58756660E+00  2.51467740E+00 -1.44685062E+00
  8.23647960E-01  8.23647960E-01 -7.28892000E-01 -1.44685062E+00  7.23425310E-01
  7.23425310E-01 -2.15023140E+00 -2.15023140E+00 -1.44685062E+00  7.41647610E-01
  7.41647610E-01 -2.36889900E+00  2.46001050E+00 -2.36889900E+00  2.46001050E+00
 -1.44685062E+00  7.23425310E-01  7.23425310E-01 -2.29600980E+00  2.41445475E+00
  2.41445475E+00 -1.44685062E+00  7.23425310E-01  7.23425310E-01  2.40534360E+00
  7.23425310E-01  7.23425310E-01 -1.44685062E+00 -1.46507292E+00  7.23425310E-01
  7.23425310E-01  7.05203010E-01 -1.67827383E+00  7.05203010E-01  5.95869210E-01
  5.95869210E-01  5.95869210E-01 -5.62704624E+00  2.48734395E+00  5.20975557E+00
 -6.00242562E+00 -1.76756310E+00 -4.79246490E-01  2.55112200E+00 -4.70135340E-01
 -1.22636079E+00  2.51467740E+00 -1.71289620E+00 -1.29560553E+00 -1.76756310E+00
 -2.29600980E+00 -6.94269630E-01  2.51467740E+00 -1.56711780E+00 -2.16845370E+00
  2.53289970E+00  2.44178820E+00 -1.39218372E+00  8.96537160E-01  8.96537160E-01
 -5.28446700E-01  2.58756660E+00  2.51467740E+00 -1.44685062E+00  8.23647960E-01
  8.23647960E-01 -7.28892000E-01 -1.44685062E+00  7.23425310E-01  7.23425310E-01
 -2.15023140E+00 -2.15023140E+00 -1.44685062E+00  7.41647610E-01  7.41647610E-01
 -2.36889900E+00  2.46001050E+00 -2.36889900E+00  2.46001050E+00 -1.44685062E+00
  7.23425310E-01  7.23425310E-01 -2.29600980E+00  2.41445475E+00  2.41445475E+00
 -1.44685062E+00  7.23425310E-01  7.23425310E-01  2.40534360E+00  7.23425310E-01
  7.23425310E-01 -1.44685062E+00 -1.46507292E+00  7.23425310E-01  7.23425310E-01
  7.05203010E-01 -1.67827383E+00  7.05203010E-01  5.95869210E-01  5.95869210E-01
  5.95869210E-01 -5.62704624E+00  2.48734395E+00  5.20975557E+00 -6.00242562E+00
 -1.76756310E+00 -4.79246490E-01  2.55112200E+00 -4.70135340E-01 -1.22636079E+00
  2.51467740E+00 -1.71289620E+00 -1.29560553E+00 -1.76756310E+00 -2.29600980E+00
 -6.94269630E-01  2.51467740E+00 -1.56711780E+00 -2.16845370E+00  2.53289970E+00
  2.44178820E+00 -1.39218372E+00  8.96537160E-01  8.96537160E-01 -5.28446700E-01
  2.58756660E+00  2.51467740E+00 -1.44685062E+00  8.23647960E-01  8.23647960E-01
 -7.28892000E-01 -1.44685062E+00  7.23425310E-01  7.23425310E-01 -2.15023140E+00
 -2.15023140E+00 -1.44685062E+00  7.41647610E-01  7.41647610E-01 -2.36889900E+00
  2.46001050E+00 -2.36889900E+00  2.46001050E+00 -1.44685062E+00  7.23425310E-01
  7.23425310E-01 -2.29600980E+00  2.41445475E+00  2.41445475E+00 -1.44685062E+00
  7.23425310E-01  7.23425310E-01  2.40534360E+00  7.23425310E-01  7.23425310E-01
 -1.44685062E+00 -1.46507292E+00  7.23425310E-01  7.23425310E-01  7.05203010E-01
 -1.67827383E+00  7.05203010E-01  5.95869210E-01  5.95869210E-01  5.95869210E-01
 -5.62704624E+00  2.48734395E+00  5.20975557E+00 -6.00242562E+00 -1.76756310E+00
 -4.79246490E-01  2.55112200E+00 -4.70135340E-01 -1.22636079E+00  2.51467740E+00
 -1.71289620E+00 -1.29560553E+00 -1.76756310E+00 -2.29600980E+00 -6.94269630E-01
  2.51467740E+00 -1.56711780E+00 -2.16845370E+00  2.53289970E+00  2.44178820E+00
 -1.39218372E+00  8.96537160E-01  8.96537160E-01 -5.28446700E-01  2.58756660E+00
  2.51467740E+00 -1.44685062E+00  8.23647960E-01  8.23647960E-01 -7.28892000E-01
 -1.44685062E+00  7.23425310E-01  7.23425310E-01 -2.15023140E+00 -2.15023140E+00
 -1.44685062E+00  7.41647610E-01  7.41647610E-01 -2.36889900E+00  2.46001050E+00
 -2.36889900E+00  2.46001050E+00 -1.44685062E+00  7.23425310E-01  7.23425310E-01
 -2.29600980E+00  2.41445475E+00  2.41445475E+00 -1.44685062E+00  7.23425310E-01
  7.23425310E-01  2.40534360E+00  7.23425310E-01  7.23425310E-01 -1.44685062E+00
 -1.46507292E+00  7.23425310E-01  7.23425310E-01  7.05203010E-01 -1.67827383E+00
  7.05203010E-01  5.95869210E-01  5.95869210E-01  5.95869210E-01 -5.62704624E+00
  2.48734395E+00  5.20975557E+00 -6.00242562E+00 -1.76756310E+00 -4.79246490E-01
  2.55112200E+00 -4.70135340E-01 -1.22636079E+00  2.51467740E+00 -1.71289620E+00
 -1.29560553E+00 -1.76756310E+00 -2.29600980E+00 -6.94269630E-01  2.51467740E+00
 -1.56711780E+00 -2.16845370E+00  2.53289970E+00  2.44178820E+00 -1.39218372E+00
  8.96537160E-01  8.96537160E-01 -5.28446700E-01  2.58756660E+00  2.51467740E+00
 -1.44685062E+00  8.23647960E-01  8.23647960E-01 -7.28892000E-01 -1.44685062E+00
  7.23425310E-01  7.23425310E-01 -2.15023140E+00 -2.15023140E+00 -1.44685062E+00
  7.41647610E-01  7.41647610E-01 -2.36889900E+00  2.46001050E+00 -2.36889900E+00
  2.46001050E+00 -1.44685062E+00  7.23425310E-01  7.23425310E-01 -2.29600980E+00
  2.41445475E+00  2.41445475E+00 -1.44685062E+00  7.23425310E-01  7.23425310E-01
  2.40534360E+00  7.23425310E-01  7.23425310E-01 -1.44685062E+00 -1.46507292E+00
  7.23425310E-01  7.23425310E-01  7.05203010E-01 -1.67827383E+00  7.05203010E-01
  5.95869210E-01  5.95869210E-01  5.95869210E-01 -5.62704624E+00  2.48734395E+00
  5.20975557E+00 -6.00242562E+00 -1.76756310E+00 -4.79246490E-01  2.55112200E+00
 -4.70135340E-01 -1.22636079E+00  2.51467740E+00 -1.71289620E+00 -1.29560553E+00
 -1.76756310E+00 -2.29600980E+00 -6.94269630E-01  2.51467740E+00 -1.56711780E+00
 -2.16845370E+00  2.53289970E+00  2.44178820E+00 -1.39218372E+00  8.96537160E-01
  8.96537160E-01 -5.28446700E-01  2.58756660E+00  2.51467740E+00 -1.44685062E+00
  8.23647960E-01  8.23647960E-01 -7.28892000E-01 -1.44685062E+00  7.23425310E-01
  7.23425310E-01 -2.15023140E+00 -2.15023140E+00 -1.44685062E+00  7.41647610E-01
  7.41647610E-01 -2.36889900E+00  2.46001050E+00 -2.36889900E+00  2.46001050E+00
 -1.44685062E+00  7.23425310E-01  7.23425310E-01 -2.29600980E+00  2.41445475E+00
  2.41445475E+00 -1.44685062E+00  7.23425310E-01  7.23425310E-01  2.40534360E+00
  7.23425310E-01  7.23425310E-01 -1.44685062E+00 -1.46507292E+00  7.23425310E-01
  7.23425310E-01  7.05203010E-01 -1.67827383E+00  7.05203010E-01  5.95869210E-01
  5.95869210E-01  5.95869210E-01 -5.62704624E+00  2.48734395E+00  5.20975557E+00
 -6.00242562E+00 -1.76756310E+00 -4.79246490E-01  2.55112200E+00 -4.70135340E-01
 -1.22636079E+00  2.51467740E+00 -1.71289620E+00 -1.29560553E+00 -1.76756310E+00
 -2.29600980E+00 -6.94269630E-01  2.51467740E+00 -1.56711780E+00 -2.16845370E+00
  2.53289970E+00  2.44178820E+00 -1.39218372E+00  8.96537160E-01  8.96537160E-01
 -5.28446700E-01  2.58756660E+00  2.51467740E+00 -1.44685062E+00  8.23647960E-01
  8.23647960E-01 -7.28892000E-01 -1.44685062E+00  7.23425310E-01  7.23425310E-01
 -2.15023140E+00 -2.15023140E+00 -1.44685062E+00  7.41647610E-01  7.41647610E-01
 -2.36889900E+00  2.46001050E+00 -2.36889900E+00  2.46001050E+00 -1.44685062E+00
  7.23425310E-01  7.23425310E-01 -2.29600980E+00  2.41445475E+00  2.41445475E+00
 -1.44685062E+00  7.23425310E-01  7.23425310E-01  2.40534360E+00  7.23425310E-01
  7.23425310E-01 -1.44685062E+00 -1.46507292E+00  7.23425310E-01  7.23425310E-01
  7.05203010E-01 -1.67827383E+00  7.05203010E-01  5.95869210E-01  5.95869210E-01
  5.95869210E-01 -5.62704624E+00  2.48734395E+00  5.20975557E+00 -6.00242562E+00
 -1.76756310E+00 -4.79246490E-01  2.55112200E+00 -4.70135340E-01 -1.22636079E+00
  2.51467740E+00 -1.71289620E+00 -1.29560553E+00 -1.76756310E+00 -2.29600980E+00
 -6.94269630E-01  2.51467740E+00 -1.56711780E+00 -2.16845370E+00  2.53289970E+00
  2.44178820E+00 -1.39218372E+00  8.96537160E-01  8.96537160E-01 -5.28446700E-01
  2.58756660E+00  2.51467740E+00 -1.44685062E+00  8.23647960E-01  8.23647960E-01
 -7.28892000E-01 -1.44685062E+00  7.23425310E-01  7.23425310E-01 -2.15023140E+00
 -2.15023140E+00 -1.44685062E+00  7.41647610E-01  7.41647610E-01 -2.36889900E+00
  2.46001050E+00 -2.36889900E+00  2.46001050E+00 -1.44685062E+00  7.23425310E-01
  7.23425310E-01 -2.29600980E+00  2.41445475E+00  2.41445475E+00 -1.44685062E+00
  7.23425310E-01  7.23425310E-01  2.40534360E+00  7.23425310E-01  7.23425310E-01
 -1.44685062E+00 -1.46507292E+00  7.23425310E-01  7.23425310E-01  7.05203010E-01
 -1.67827383E+00  7.05203010E-01  5.95869210E-01  5.95869210E-01  5.95869210E-01
 -5.62704624E+00  2.48734395E+00  5.20975557E+00 -6.00242562E+00 -1.76756310E+00
 -4.79246490E-01  2.55112200E+00 -4.70135340E-01 -1.22636079E+00  2.51467740E+00
 -1.71289620E+00 -1.29560553E+00 -1.76756310E+00 -2.29600980E+00 -6.94269630E-01
  2.51467740E+00 -1.56711780E+00 -2.16845370E+00  2.53289970E+00  2.44178820E+00
 -1.39218372E+00  8.96537160E-01  8.96537160E-01 -5.28446700E-01  2.58756660E+00
  2.51467740E+00 -1.44685062E+00  8.23647960E-01  8.23647960E-01 -7.28892000E-01
 -1.44685062E+00  7.23425310E-01  7.23425310E-01 -2.15023140E+00 -2.15023140E+00
 -1.44685062E+00  7.41647610E-01  7.41647610E-01 -2.36889900E+00  2.46001050E+00
 -2.36889900E+00  2.46001050E+00 -1.44685062E+00  7.23425310E-01  7.23425310E-01
 -2.29600980E+00  2.41445475E+00  2.41445475E+00 -1.44685062E+00  7.23425310E-01
  7.23425310E-01  2.40534360E+00  7.23425310E-01  7.23425310E-01 -1.44685062E+00
 -1.46507292E+00  7.23425310E-01  7.23425310E-01  7.05203010E-01 -1.67827383E+00
  7.05203010E-01  5.95869210E-01  5.95869210E-01  5.95869210E-01 -5.62704624E+00
  2.48734395E+00  5.20975557E+00 -6.00242562E+00 -1.76756310E+00 -4.79246490E-01
  2.55112200E+00 -4.70135340E-01 -1.22636079E+00  2.51467740E+00 -1.71289620E+00
 -1.29560553E+00 -1.76756310E+00 -2.29600980E+00 -6.94269630E-01  2.51467740E+00
 -1.56711780E+00 -2.16845370E+00  2.53289970E+00  2.44178820E+00 -1.39218372E+00
  8.96537160E-01  8.96537160E-01 -5.28446700E-01  2.58756660E+00  2.51467740E+00
 -1.44685062E+00  8.23647960E-01  8.23647960E-01 -7.28892000E-01 -1.44685062E+00
  7.23425310E-01  7.23425310E-01 -2.15023140E+00 -2.15023140E+00 -1.44685062E+00
  7.41647610E-01  7.41647610E-01 -2.36889900E+00  2.46001050E+00 -2.36889900E+00
  2.46001050E+00 -1.44685062E+00  7.23425310E-01  7.23425310E-01 -2.29600980E+00
  2.41445475E+00  2.41445475E+00 -1.44685062E+00  7.23425310E-01  7.23425310E-01
  2.40534360E+00  7.23425310E-01  7.23425310E-01 -1.44685062E+00 -1.46507292E+00
  7.23425310E-01  7.23425310E-01  7.05203010E-01 -1.67827383E+00  7.05203010E-01
  5.95869210E-01  5.95869210E-01  5.95869210E-01 -5.62704624E+00  2.48734395E+00
  5.20975557E+00 -6.00242562E+00 -1.76756310E+00 -4.79246490E-01  2.55112200E+00
 -4.70135340E-01 -1.22636079E+00  2.51467740E+00 -1.71289620E+00 -1.29560553E+00
 -1.76756310E+00 -2.29600980E+00 -6.94269630E-01  2.51467740E+00 -1.56711780E+00
 -2.16845370E+00  2.53289970E+00  2.44178820E+00 -1.39218372E+00  8.96537160E-01
  8.96537160E-01 -5.28446700E-01  2.58756660E+00  2.51467740E+00 -1.44685062E+00
  8.23647960E-01  8.23647960E-01 -7.28892000E-01 -1.44685062E+00  7.23425310E-01
  7.23425310E-01 -2.15023140E+00 -2.15023140E+00 -1.44685062E+00  7.41647610E-01
  7.41647610E-01 -2.36889900E+00  2.46001050E+00 -2.36889900E+00  2.46001050E+00
 -1.44685062E+00  7.23425310E-01  7.23425310E-01 -2.29600980E+00  2.41445475E+00
  2.41445475E+00 -1.44685062E+00  7.23425310E-01  7.23425310E-01  2.40534360E+00
  7.23425310E-01  7.23425310E-01 -1.44685062E+00 -1.46507292E+00  7.23425310E-01
  7.23425310E-01  7.05203010E-01 -1.67827383E+00  7.05203010E-01  5.95869210E-01
  5.95869210E-01  5.95869210E-01 -5.62704624E+00  2.48734395E+00  5.20975557E+00
 -6.00242562E+00 -1.76756310E+00 -4.79246490E-01  2.55112200E+00 -4.70135340E-01
 -1.22636079E+00  2.51467740E+00 -1.71289620E+00 -1.29560553E+00 -1.76756310E+00
 -2.29600980E+00 -6.94269630E-01  2.51467740E+00 -1.56711780E+00 -2.16845370E+00
  2.53289970E+00  2.44178820E+00 -1.39218372E+00  8.96537160E-01  8.96537160E-01
 -5.28446700E-01  2.58756660E+00  2.51467740E+00 -1.44685062E+00  8.23647960E-01
  8.23647960E-01 -7.28892000E-01 -1.44685062E+00  7.23425310E-01  7.23425310E-01
 -2.15023140E+00 -2.15023140E+00 -1.44685062E+00  7.41647610E-01  7.41647610E-01
 -2.36889900E+00  2.46001050E+00 -2.36889900E+00  2.46001050E+00 -1.44685062E+00
  7.23425310E-01  7.23425310E-01 -2.29600980E+00  2.41445475E+00  2.41445475E+00
 -1.44685062E+00  7.23425310E-01  7.23425310E-01  2.40534360E+00  7.23425310E-01
  7.23425310E-01 -1.44685062E+00 -1.46507292E+00  7.23425310E-01  7.23425310E-01
  7.05203010E-01 -1.67827383E+00  7.05203010E-01  5.95869210E-01  5.95869210E-01
  5.95869210E-01 -5.62704624E+00  2.48734395E+00  5.20975557E+00 -6.00242562E+00
 -1.76756310E+00 -4.79246490E-01  2.55112200E+00 -4.70135340E-01 -1.22636079E+00
  2.51467740E+00 -1.71289620E+00 -1.29560553E+00 -1.76756310E+00 -2.29600980E+00
 -6.94269630E-01  2.51467740E+00 -1.56711780E+00 -2.16845370E+00  2.53289970E+00
  2.44178820E+00 -1.39218372E+00  8.96537160E-01  8.96537160E-01 -5.28446700E-01
  2.58756660E+00  2.51467740E+00 -1.44685062E+00  8.23647960E-01  8.23647960E-01
 -7.28892000E-01 -1.44685062E+00  7.23425310E-01  7.23425310E-01 -2.15023140E+00
 -2.15023140E+00 -1.44685062E+00  7.41647610E-01  7.41647610E-01 -2.36889900E+00
  2.46001050E+00 -2.36889900E+00  2.46001050E+00 -1.44685062E+00  7.23425310E-01
  7.23425310E-01 -2.29600980E+00  2.41445475E+00  2.41445475E+00 -1.44685062E+00
  7.23425310E-01  7.23425310E-01  2.40534360E+00  7.23425310E-01  7.23425310E-01
 -1.44685062E+00 -1.46507292E+00  7.23425310E-01  7.23425310E-01  7.05203010E-01
 -1.67827383E+00  7.05203010E-01  5.95869210E-01  5.95869210E-01  5.95869210E-01
 -5.62704624E+00  2.48734395E+00  5.20975557E+00 -6.00242562E+00 -1.76756310E+00
 -4.79246490E-01  2.55112200E+00 -4.70135340E-01 -1.22636079E+00  2.51467740E+00
 -1.71289620E+00 -1.29560553E+00 -1.76756310E+00 -2.29600980E+00 -6.94269630E-01
  2.51467740E+00 -1.56711780E+00 -2.16845370E+00  2.53289970E+00  2.44178820E+00
 -1.39218372E+00  8.96537160E-01  8.96537160E-01 -5.28446700E-01  2.58756660E+00
  2.51467740E+00 -1.44685062E+00  8.23647960E-01  8.23647960E-01 -7.28892000E-01
 -1.44685062E+00  7.23425310E-01  7.23425310E-01 -2.15023140E+00 -2.15023140E+00
 -1.44685062E+00  7.41647610E-01  7.41647610E-01 -2.36889900E+00  2.46001050E+00
 -2.36889900E+00  2.46001050E+00 -1.44685062E+00  7.23425310E-01  7.23425310E-01
 -2.29600980E+00  2.41445475E+00  2.41445475E+00 -1.44685062E+00  7.23425310E-01
  7.23425310E-01  2.40534360E+00  7.23425310E-01  7.23425310E-01 -1.44685062E+00
 -1.46507292E+00  7.23425310E-01  7.23425310E-01  7.05203010E-01 -1.67827383E+00
  7.05203010E-01  5.95869210E-01  5.95869210E-01  5.95869210E-01 -5.62704624E+00
  2.48734395E+00  5.20975557E+00 -6.00242562E+00 -1.76756310E+00 -4.79246490E-01
  2.55112200E+00 -4.70135340E-01 -1.22636079E+00  2.51467740E+00 -1.71289620E+00
 -1.29560553E+00 -1.76756310E+00 -2.29600980E+00 -6.94269630E-01  2.51467740E+00
 -1.56711780E+00 -2.16845370E+00  2.53289970E+00  2.44178820E+00 -1.39218372E+00
  8.96537160E-01  8.96537160E-01 -5.28446700E-01  2.58756660E+00  2.51467740E+00
 -1.44685062E+00  8.23647960E-01  8.23647960E-01 -7.28892000E-01 -1.44685062E+00
  7.23425310E-01  7.23425310E-01 -2.15023140E+00 -2.15023140E+00 -1.44685062E+00
  7.41647610E-01  7.41647610E-01 -2.36889900E+00  2.46001050E+00 -2.36889900E+00
  2.46001050E+00 -1.44685062E+00  7.23425310E-01  7.23425310E-01 -2.29600980E+00
  2.41445475E+00  2.41445475E+00 -1.44685062E+00  7.23425310E-01  7.23425310E-01
  2.40534360E+00  7.23425310E-01  7.23425310E-01 -1.44685062E+00 -1.46507292E+00
  7.23425310E-01  7.23425310E-01  7.05203010E-01 -1.67827383E+00  7.05203010E-01
  5.95869210E-01  5.95869210E-01  5.95869210E-01 -5.62704624E+00  2.48734395E+00
  5.20975557E+00 -6.00242562E+00 -1.76756310E+00 -4.79246490E-01  2.55112200E+00
 -4.70135340E-01 -1.22636079E+00  2.51467740E+00 -1.71289620E+00 -1.29560553E+00
 -1.76756310E+00 -2.29600980E+00 -6.94269630E-01  2.51467740E+00 -1.56711780E+00
 -2.16845370E+00  2.53289970E+00  2.44178820E+00 -1.39218372E+00  8.96537160E-01
  8.96537160E-01 -5.28446700E-01  2.58756660E+00  2.51467740E+00 -1.44685062E+00
  8.23647960E-01  8.23647960E-01 -7.28892000E-01 -1.44685062E+00  7.23425310E-01
  7.23425310E-01 -2.15023140E+00 -2.15023140E+00 -1.44685062E+00  7.41647610E-01
  7.41647610E-01 -2.36889900E+00  2.46001050E+00 -2.36889900E+00  2.46001050E+00
 -1.44685062E+00  7.23425310E-01  7.23425310E-01 -2.29600980E+00  2.41445475E+00
  2.41445475E+00 -1.44685062E+00  7.23425310E-01  7.23425310E-01  2.40534360E+00
  7.23425310E-01  7.23425310E-01 -1.44685062E+00 -1.46507292E+00  7.23425310E-01
  7.23425310E-01  7.05203010E-01 -1.67827383E+00  7.05203010E-01  5.95869210E-01
  5.95869210E-01  5.95869210E-01 -5.62704624E+00  2.48734395E+00  5.20975557E+00
 -6.00242562E+00 -1.76756310E+00 -4.79246490E-01  2.55112200E+00 -4.70135340E-01
 -1.22636079E+00  2.51467740E+00 -1.71289620E+00 -1.29560553E+00 -1.76756310E+00
 -2.29600980E+00 -6.94269630E-01  2.51467740E+00 -1.56711780E+00 -2.16845370E+00
  2.53289970E+00  2.44178820E+00 -1.39218372E+00  8.96537160E-01  8.96537160E-01
 -5.28446700E-01  2.58756660E+00  2.51467740E+00 -1.44685062E+00  8.23647960E-01
  8.23647960E-01 -7.28892000E-01 -1.44685062E+00  7.23425310E-01  7.23425310E-01
 -2.15023140E+00 -2.15023140E+00 -1.44685062E+00  7.41647610E-01  7.41647610E-01
 -2.36889900E+00  2.46001050E+00 -2.36889900E+00  2.46001050E+00 -1.44685062E+00
  7.23425310E-01  7.23425310E-01 -2.29600980E+00  2.41445475E+00  2.41445475E+00
 -1.44685062E+00  7.23425310E-01  7.23425310E-01  2.40534360E+00  7.23425310E-01
  7.23425310E-01 -1.44685062E+00 -1.46507292E+00  7.23425310E-01  7.23425310E-01
  7.05203010E-01 -1.67827383E+00  7.05203010E-01  5.95869210E-01  5.95869210E-01
  5.95869210E-01 -5.62704624E+00  2.48734395E+00  5.20975557E+00 -6.00242562E+00
 -1.76756310E+00 -4.79246490E-01  2.55112200E+00 -4.70135340E-01 -1.22636079E+00
  2.51467740E+00 -1.71289620E+00 -1.29560553E+00 -1.76756310E+00 -2.29600980E+00
 -6.94269630E-01  2.51467740E+00 -1.56711780E+00 -2.16845370E+00  2.53289970E+00
  2.44178820E+00 -1.39218372E+00  8.96537160E-01  8.96537160E-01 -5.28446700E-01
  2.58756660E+00  2.51467740E+00 -1.44685062E+00  8.23647960E-01  8.23647960E-01
 -7.28892000E-01 -1.44685062E+00  7.23425310E-01  7.23425310E-01 -2.15023140E+00
 -2.15023140E+00 -1.44685062E+00  7.41647610E-01  7.41647610E-01 -2.36889900E+00
  2.46001050E+00 -2.36889900E+00  2.46001050E+00 -1.44685062E+00  7.23425310E-01
  7.23425310E-01 -2.29600980E+00  2.41445475E+00  2.41445475E+00 -1.44685062E+00
  7.23425310E-01  7.23425310E-01  2.40534360E+00  7.23425310E-01  7.23425310E-01
 -1.44685062E+00 -1.46507292E+00  7.23425310E-01  7.23425310E-01  7.05203010E-01
 -1.67827383E+00  7.05203010E-01  5.95869210E-01  5.95869210E-01  5.95869210E-01
 -5.62704624E+00  2.48734395E+00  5.20975557E+00 -6.00242562E+00 -1.76756310E+00
 -4.79246490E-01  2.55112200E+00 -4.70135340E-01 -1.22636079E+00  2.51467740E+00
 -1.71289620E+00 -1.29560553E+00 -1.76756310E+00 -2.29600980E+00 -6.94269630E-01
  2.51467740E+00 -1.56711780E+00 -2.16845370E+00  2.53289970E+00  2.44178820E+00
 -1.39218372E+00  8.96537160E-01  8.96537160E-01 -5.28446700E-01  2.58756660E+00
  2.51467740E+00 -1.44685062E+00  8.23647960E-01  8.23647960E-01 -7.28892000E-01
 -1.44685062E+00  7.23425310E-01  7.23425310E-01 -2.15023140E+00 -2.15023140E+00
 -1.44685062E+00  7.41647610E-01  7.41647610E-01 -2.36889900E+00  2.46001050E+00
 -2.36889900E+00  2.46001050E+00 -1.44685062E+00  7.23425310E-01  7.23425310E-01
 -2.29600980E+00  2.41445475E+00  2.41445475E+00 -1.44685062E+00  7.23425310E-01
  7.23425310E-01  2.40534360E+00  7.23425310E-01  7.23425310E-01 -1.44685062E+00
 -1.46507292E+00  7.23425310E-01  7.23425310E-01  7.05203010E-01 -1.67827383E+00
  7.05203010E-01  5.95869210E-01  5.95869210E-01  5.95869210E-01 -5.62704624E+00
  2.48734395E+00  5.20975557E+00 -6.00242562E+00 -1.76756310E+00 -4.79246490E-01
  2.55112200E+00 -4.70135340E-01 -1.22636079E+00  2.51467740E+00 -1.71289620E+00
 -1.29560553E+00 -1.76756310E+00 -2.29600980E+00 -6.94269630E-01  2.51467740E+00
 -1.56711780E+00 -2.16845370E+00  2.53289970E+00  2.44178820E+00 -1.39218372E+00
  8.96537160E-01  8.96537160E-01 -5.28446700E-01  2.58756660E+00  2.51467740E+00
 -1.44685062E+00  8.23647960E-01  8.23647960E-01 -7.28892000E-01 -1.44685062E+00
  7.23425310E-01  7.23425310E-01 -2.15023140E+00 -2.15023140E+00 -1.44685062E+00
  7.41647610E-01  7.41647610E-01 -2.36889900E+00  2.46001050E+00 -2.36889900E+00
  2.46001050E+00 -1.44685062E+00  7.23425310E-01  7.23425310E-01 -2.29600980E+00
  2.41445475E+00  2.41445475E+00 -1.44685062E+00  7.23425310E-01  7.23425310E-01
  2.40534360E+00  7.23425310E-01  7.23425310E-01 -1.44685062E+00 -1.46507292E+00
  7.23425310E-01  7.23425310E-01  7.05203010E-01 -1.67827383E+00  7.05203010E-01
  5.95869210E-01  5.95869210E-01  5.95869210E-01 -5.62704624E+00  2.48734395E+00
  5.20975557E+00 -6.00242562E+00 -1.76756310E+00 -4.79246490E-01  2.55112200E+00
 -4.70135340E-01 -1.22636079E+00  2.51467740E+00 -1.71289620E+00 -1.29560553E+00
 -1.76756310E+00 -2.29600980E+00 -6.94269630E-01  2.51467740E+00 -1.56711780E+00
 -2.16845370E+00  2.53289970E+00  2.44178820E+00 -1.39218372E+00  8.96537160E-01
  8.96537160E-01 -5.28446700E-01  2.58756660E+00  2.51467740E+00 -1.44685062E+00
  8.23647960E-01  8.23647960E-01 -7.28892000E-01 -1.44685062E+00  7.23425310E-01
  7.23425310E-01 -2.15023140E+00 -2.15023140E+00 -1.44685062E+00  7.41647610E-01
  7.41647610E-01 -2.36889900E+00  2.46001050E+00 -2.36889900E+00  2.46001050E+00
 -1.44685062E+00  7.23425310E-01  7.23425310E-01 -2.29600980E+00  2.41445475E+00
  2.41445475E+00 -1.44685062E+00  7.23425310E-01  7.23425310E-01  2.40534360E+00
  7.23425310E-01  7.23425310E-01 -1.44685062E+00 -1.46507292E+00  7.23425310E-01
  7.23425310E-01  7.05203010E-01 -1.67827383E+00  7.05203010E-01  5.95869210E-01
  5.95869210E-01  5.95869210E-01 -5.62704624E+00  2.48734395E+00  5.20975557E+00
 -6.00242562E+00 -1.76756310E+00 -4.79246490E-01  2.55112200E+00 -4.70135340E-01
 -1.22636079E+00  2.51467740E+00 -1.71289620E+00 -1.29560553E+00 -1.76756310E+00
 -2.29600980E+00 -6.94269630E-01  2.51467740E+00 -1.56711780E+00 -2.16845370E+00
  2.53289970E+00  2.44178820E+00 -1.39218372E+00  8.96537160E-01  8.96537160E-01
 -5.28446700E-01  2.58756660E+00  2.51467740E+00 -1.44685062E+00  8.23647960E-01
  8.23647960E-01 -7.28892000E-01 -1.44685062E+00  7.23425310E-01  7.23425310E-01
 -2.15023140E+00 -2.15023140E+00 -1.44685062E+00  7.41647610E-01  7.41647610E-01
 -2.36889900E+00  2.46001050E+00 -2.36889900E+00  2.46001050E+00 -1.44685062E+00
  7.23425310E-01  7.23425310E-01 -2.29600980E+00  2.41445475E+00  2.41445475E+00
 -1.44685062E+00  7.23425310E-01  7.23425310E-01  2.40534360E+00  7.23425310E-01
  7.23425310E-01 -1.44685062E+00 -1.46507292E+00  7.23425310E-01  7.23425310E-01
  7.05203010E-01 -1.67827383E+00  7.05203010E-01  5.95869210E-01  5.95869210E-01
  5.95869210E-01 -5.62704624E+00  2.48734395E+00  5.20975557E+00 -6.00242562E+00
 -1.76756310E+00 -4.79246490E-01  2.55112200E+00 -4.70135340E-01 -1.22636079E+00
  2.51467740E+00 -1.71289620E+00 -1.29560553E+00 -1.76756310E+00 -2.29600980E+00
 -6.94269630E-01  2.51467740E+00 -1.56711780E+00 -2.16845370E+00  2.53289970E+00
  2.44178820E+00 -1.39218372E+00  8.96537160E-01  8.96537160E-01 -5.28446700E-01
  2.58756660E+00  2.51467740E+00 -1.44685062E+00  8.23647960E-01  8.23647960E-01
 -7.28892000E-01 -1.44685062E+00  7.23425310E-01  7.23425310E-01 -2.15023140E+00
 -2.15023140E+00 -1.44685062E+00  7.41647610E-01  7.41647610E-01 -2.36889900E+00
  2.46001050E+00 -2.36889900E+00  2.46001050E+00 -1.44685062E+00  7.23425310E-01
  7.23425310E-01 -2.29600980E+00  2.41445475E+00  2.41445475E+00 -1.44685062E+00
  7.23425310E-01  7.23425310E-01  2.40534360E+00  7.23425310E-01  7.23425310E-01
 -1.44685062E+00 -1.46507292E+00  7.23425310E-01  7.23425310E-01  7.05203010E-01
 -1.67827383E+00  7.05203010E-01  5.95869210E-01  5.95869210E-01  5.95869210E-01
 -5.62704624E+00  2.48734395E+00  5.20975557E+00 -6.00242562E+00 -1.76756310E+00
 -4.79246490E-01  2.55112200E+00 -4.70135340E-01 -1.22636079E+00  2.51467740E+00
 -1.71289620E+00 -1.29560553E+00 -1.76756310E+00 -2.29600980E+00 -6.94269630E-01
  2.51467740E+00 -1.56711780E+00 -2.16845370E+00  2.53289970E+00  2.44178820E+00
 -1.39218372E+00  8.96537160E-01  8.96537160E-01 -5.28446700E-01  2.58756660E+00
  2.51467740E+00 -1.44685062E+00  8.23647960E-01  8.23647960E-01 -7.28892000E-01
 -1.44685062E+00  7.23425310E-01  7.23425310E-01 -2.15023140E+00 -2.15023140E+00
 -1.44685062E+00  7.41647610E-01  7.41647610E-01 -2.36889900E+00  2.46001050E+00
 -2.36889900E+00  2.46001050E+00 -1.44685062E+00  7.23425310E-01  7.23425310E-01
 -2.29600980E+00  2.41445475E+00  2.41445475E+00 -1.44685062E+00  7.23425310E-01
  7.23425310E-01  2.40534360E+00  7.23425310E-01  7.23425310E-01 -1.44685062E+00
 -1.46507292E+00  7.23425310E-01  7.23425310E-01  7.05203010E-01 -1.67827383E+00
  7.05203010E-01  5.95869210E-01  5.95869210E-01  5.95869210E-01 -5.62704624E+00
  2.48734395E+00  5.20975557E+00 -6.00242562E+00 -1.76756310E+00 -4.79246490E-01
  2.55112200E+00 -4.70135340E-01 -1.22636079E+00  2.51467740E+00 -1.71289620E+00
 -1.29560553E+00 -1.76756310E+00 -2.29600980E+00 -6.94269630E-01  2.51467740E+00
 -1.56711780E+00 -2.16845370E+00  2.53289970E+00  2.44178820E+00 -1.39218372E+00
  8.96537160E-01  8.96537160E-01 -5.28446700E-01  2.58756660E+00  2.51467740E+00
 -1.44685062E+00  8.23647960E-01  8.23647960E-01 -7.28892000E-01 -1.44685062E+00
  7.23425310E-01  7.23425310E-01 -2.15023140E+00 -2.15023140E+00 -1.44685062E+00
  7.41647610E-01  7.41647610E-01 -2.36889900E+00  2.46001050E+00 -2.36889900E+00
  2.46001050E+00 -1.44685062E+00  7.23425310E-01  7.23425310E-01 -2.29600980E+00
  2.41445475E+00  2.41445475E+00 -1.44685062E+00  7.23425310E-01  7.23425310E-01
  2.40534360E+00  7.23425310E-01  7.23425310E-01 -1.44685062E+00 -1.46507292E+00
  7.23425310E-01  7.23425310E-01  7.05203010E-01 -1.67827383E+00  7.05203010E-01
  5.95869210E-01  5.95869210E-01  5.95869210E-01 -5.62704624E+00  2.48734395E+00
  5.20975557E+00 -6.00242562E+00 -1.76756310E+00 -4.79246490E-01  2.55112200E+00
 -4.70135340E-01 -1.22636079E+00  2.51467740E+00 -1.71289620E+00 -1.29560553E+00
 -1.76756310E+00 -2.29600980E+00 -6.94269630E-01  2.51467740E+00 -1.56711780E+00
 -2.16845370E+00  2.53289970E+00  2.44178820E+00 -1.39218372E+00  8.96537160E-01
  8.96537160E-01 -5.28446700E-01  2.58756660E+00  2.51467740E+00 -1.44685062E+00
  8.23647960E-01  8.23647960E-01 -7.28892000E-01 -1.44685062E+00  7.23425310E-01
  7.23425310E-01 -2.15023140E+00 -2.15023140E+00 -1.44685062E+00  7.41647610E-01
  7.41647610E-01 -2.36889900E+00  2.46001050E+00 -2.36889900E+00  2.46001050E+00
 -1.44685062E+00  7.23425310E-01  7.23425310E-01 -2.29600980E+00  2.41445475E+00
  2.41445475E+00 -1.44685062E+00  7.23425310E-01  7.23425310E-01  2.40534360E+00
  7.23425310E-01  7.23425310E-01 -1.44685062E+00 -1.46507292E+00  7.23425310E-01
  7.23425310E-01  7.05203010E-01 -1.67827383E+00  7.05203010E-01  5.95869210E-01
  5.95869210E-01  5.95869210E-01 -5.62704624E+00  2.48734395E+00  5.20975557E+00
 -6.00242562E+00 -1.76756310E+00 -4.79246490E-01  2.55112200E+00 -4.70135340E-01
 -1.22636079E+00  2.51467740E+00 -1.71289620E+00 -1.29560553E+00 -1.76756310E+00
 -2.29600980E+00 -6.94269630E-01  2.51467740E+00 -1.56711780E+00 -2.16845370E+00
  2.53289970E+00  2.44178820E+00 -1.39218372E+00  8.96537160E-01  8.96537160E-01
 -5.28446700E-01  2.58756660E+00  2.51467740E+00 -1.44685062E+00  8.23647960E-01
  8.23647960E-01 -7.28892000E-01 -1.44685062E+00  7.23425310E-01  7.23425310E-01
 -2.15023140E+00 -2.15023140E+00 -1.44685062E+00  7.41647610E-01  7.41647610E-01
 -2.36889900E+00  2.46001050E+00 -2.36889900E+00  2.46001050E+00 -1.44685062E+00
  7.23425310E-01  7.23425310E-01 -2.29600980E+00  2.41445475E+00  2.41445475E+00
 -1.44685062E+00  7.23425310E-01  7.23425310E-01  2.40534360E+00  7.23425310E-01
  7.23425310E-01 -1.44685062E+00 -1.46507292E+00  7.23425310E-01  7.23425310E-01
  7.05203010E-01 -1.67827383E+00  7.05203010E-01  5.95869210E-01  5.95869210E-01
  5.95869210E-01 -5.62704624E+00  2.48734395E+00  5.20975557E+00 -6.00242562E+00
 -1.76756310E+00 -4.79246490E-01  2.55112200E+00 -4.70135340E-01 -1.22636079E+00
  2.51467740E+00 -1.71289620E+00 -1.29560553E+00 -1.76756310E+00 -2.29600980E+00
 -6.94269630E-01  2.51467740E+00 -1.56711780E+00 -2.16845370E+00  2.53289970E+00
  2.44178820E+00 -1.39218372E+00  8.96537160E-01  8.96537160E-01 -5.28446700E-01
  2.58756660E+00  2.51467740E+00 -1.44685062E+00  8.23647960E-01  8.23647960E-01
 -7.28892000E-01 -1.44685062E+00  7.23425310E-01  7.23425310E-01 -2.15023140E+00
 -2.15023140E+00 -1.44685062E+00  7.41647610E-01  7.41647610E-01 -2.36889900E+00
  2.46001050E+00 -2.36889900E+00  2.46001050E+00 -1.44685062E+00  7.23425310E-01
  7.23425310E-01 -2.29600980E+00  2.41445475E+00  2.41445475E+00 -1.44685062E+00
  7.23425310E-01  7.23425310E-01  2.40534360E+00  7.23425310E-01  7.23425310E-01
 -1.44685062E+00 -1.46507292E+00  7.23425310E-01  7.23425310E-01  7.05203010E-01
 -1.67827383E+00  7.05203010E-01  5.95869210E-01  5.95869210E-01  5.95869210E-01
 -5.62704624E+00  2.48734395E+00  5.20975557E+00 -6.00242562E+00 -1.76756310E+00
 -4.79246490E-01  2.55112200E+00 -4.70135340E-01 -1.22636079E+00  2.51467740E+00
 -1.71289620E+00 -1.29560553E+00 -1.76756310E+00 -2.29600980E+00 -6.94269630E-01
  2.51467740E+00 -1.56711780E+00 -2.16845370E+00  2.53289970E+00  2.44178820E+00
 -1.39218372E+00  8.96537160E-01  8.96537160E-01 -5.28446700E-01  2.58756660E+00
  2.51467740E+00 -1.44685062E+00  8.23647960E-01  8.23647960E-01 -7.28892000E-01
 -1.44685062E+00  7.23425310E-01  7.23425310E-01 -2.15023140E+00 -2.15023140E+00
 -1.44685062E+00  7.41647610E-01  7.41647610E-01 -2.36889900E+00  2.46001050E+00
 -2.36889900E+00  2.46001050E+00 -1.44685062E+00  7.23425310E-01  7.23425310E-01
 -2.29600980E+00  2.41445475E+00  2.41445475E+00 -1.44685062E+00  7.23425310E-01
  7.23425310E-01  2.40534360E+00  7.23425310E-01  7.23425310E-01 -1.44685062E+00
 -1.46507292E+00  7.23425310E-01  7.23425310E-01  7.05203010E-01 -1.67827383E+00
  7.05203010E-01  5.95869210E-01  5.95869210E-01  5.95869210E-01 -5.62704624E+00
  2.48734395E+00  5.20975557E+00 -6.00242562E+00 -1.76756310E+00 -4.79246490E-01
  2.55112200E+00 -4.70135340E-01 -1.22636079E+00  2.51467740E+00 -1.71289620E+00
 -1.29560553E+00 -1.76756310E+00 -2.29600980E+00 -6.94269630E-01  2.51467740E+00
 -1.56711780E+00 -2.16845370E+00  2.53289970E+00  2.44178820E+00 -1.39218372E+00
  8.96537160E-01  8.96537160E-01 -5.28446700E-01  2.58756660E+00  2.51467740E+00
 -1.44685062E+00  8.23647960E-01  8.23647960E-01 -7.28892000E-01 -1.44685062E+00
  7.23425310E-01  7.23425310E-01 -2.15023140E+00 -2.15023140E+00 -1.44685062E+00
  7.41647610E-01  7.41647610E-01 -2.36889900E+00  2.46001050E+00 -2.36889900E+00
  2.46001050E+00 -1.44685062E+00  7.23425310E-01  7.23425310E-01 -2.29600980E+00
  2.41445475E+00  2.41445475E+00 -1.44685062E+00  7.23425310E-01  7.23425310E-01
  2.40534360E+00  7.23425310E-01  7.23425310E-01 -1.44685062E+00 -1.46507292E+00
  7.23425310E-01  7.23425310E-01  7.05203010E-01 -1.67827383E+00  7.05203010E-01
  5.95869210E-01  5.95869210E-01  5.95869210E-01 -5.62704624E+00  2.48734395E+00
  5.20975557E+00 -6.00242562E+00 -1.76756310E+00 -4.79246490E-01  2.55112200E+00
 -4.70135340E-01 -1.22636079E+00  2.51467740E+00 -1.71289620E+00 -1.29560553E+00
 -1.76756310E+00 -2.29600980E+00 -6.94269630E-01  2.51467740E+00 -1.56711780E+00
 -2.16845370E+00  2.53289970E+00  2.44178820E+00 -1.39218372E+00  8.96537160E-01
  8.96537160E-01 -5.28446700E-01  2.58756660E+00  2.51467740E+00 -1.44685062E+00
  8.23647960E-01  8.23647960E-01 -7.28892000E-01 -1.44685062E+00  7.23425310E-01
  7.23425310E-01 -2.15023140E+00 -2.15023140E+00 -1.44685062E+00  7.41647610E-01
  7.41647610E-01 -2.36889900E+00  2.46001050E+00 -2.36889900E+00  2.46001050E+00
 -1.44685062E+00  7.23425310E-01  7.23425310E-01 -2.29600980E+00  2.41445475E+00
  2.41445475E+00 -1.44685062E+00  7.23425310E-01  7.23425310E-01  2.40534360E+00
  7.23425310E-01  7.23425310E-01 -1.44685062E+00 -1.46507292E+00  7.23425310E-01
  7.23425310E-01  7.05203010E-01 -1.67827383E+00  7.05203010E-01  5.95869210E-01
  5.95869210E-01  5.95869210E-01 -5.62704624E+00  2.48734395E+00  5.20975557E+00
 -6.00242562E+00 -1.76756310E+00 -4.79246490E-01  2.55112200E+00 -4.70135340E-01
 -1.22636079E+00  2.51467740E+00 -1.71289620E+00 -1.29560553E+00 -1.76756310E+00
 -2.29600980E+00 -6.94269630E-01  2.51467740E+00 -1.56711780E+00 -2.16845370E+00
  2.53289970E+00  2.44178820E+00 -1.39218372E+00  8.96537160E-01  8.96537160E-01
 -5.28446700E-01  2.58756660E+00  2.51467740E+00 -1.44685062E+00  8.23647960E-01
  8.23647960E-01 -7.28892000E-01 -1.44685062E+00  7.23425310E-01  7.23425310E-01
 -2.15023140E+00 -2.15023140E+00 -1.44685062E+00  7.41647610E-01  7.41647610E-01
 -2.36889900E+00  2.46001050E+00 -2.36889900E+00  2.46001050E+00 -1.44685062E+00
  7.23425310E-01  7.23425310E-01 -2.29600980E+00  2.41445475E+00  2.41445475E+00
 -1.44685062E+00  7.23425310E-01  7.23425310E-01  2.40534360E+00  7.23425310E-01
  7.23425310E-01 -1.44685062E+00 -1.46507292E+00  7.23425310E-01  7.23425310E-01
  7.05203010E-01 -1.67827383E+00  7.05203010E-01  5.95869210E-01  5.95869210E-01
  5.95869210E-01 -5.62704624E+00  2.48734395E+00  5.20975557E+00 -6.00242562E+00
 -1.76756310E+00 -4.79246490E-01  2.55112200E+00 -4.70135340E-01 -1.22636079E+00
  2.51467740E+00 -1.71289620E+00 -1.29560553E+00 -1.76756310E+00 -2.29600980E+00
 -6.94269630E-01  2.51467740E+00 -1.56711780E+00 -2.16845370E+00  2.53289970E+00
  2.44178820E+00 -1.39218372E+00  8.96537160E-01  8.96537160E-01 -5.28446700E-01
  2.58756660E+00  2.51467740E+00 -1.44685062E+00  8.23647960E-01  8.23647960E-01
 -7.28892000E-01 -1.44685062E+00  7.23425310E-01  7.23425310E-01 -2.15023140E+00
 -2.15023140E+00 -1.44685062E+00  7.41647610E-01  7.41647610E-01 -2.36889900E+00
  2.46001050E+00 -2.36889900E+00  2.46001050E+00 -1.44685062E+00  7.23425310E-01
  7.23425310E-01 -2.29600980E+00  2.41445475E+00  2.41445475E+00 -1.44685062E+00
  7.23425310E-01  7.23425310E-01  2.40534360E+00  7.23425310E-01  7.23425310E-01
 -1.44685062E+00 -1.46507292E+00  7.23425310E-01  7.23425310E-01  7.05203010E-01
 -1.67827383E+00  7.05203010E-01  5.95869210E-01  5.95869210E-01  5.95869210E-01
 -5.62704624E+00  2.48734395E+00  5.20975557E+00 -6.00242562E+00 -1.76756310E+00
 -4.79246490E-01  2.55112200E+00 -4.70135340E-01 -1.22636079E+00  2.51467740E+00
 -1.71289620E+00 -1.29560553E+00 -1.76756310E+00 -2.29600980E+00 -6.94269630E-01
  2.51467740E+00 -1.56711780E+00 -2.16845370E+00  2.53289970E+00  2.44178820E+00
 -1.39218372E+00  8.96537160E-01  8.96537160E-01 -5.28446700E-01  2.58756660E+00
  2.51467740E+00 -1.44685062E+00  8.23647960E-01  8.23647960E-01 -7.28892000E-01
 -1.44685062E+00  7.23425310E-01  7.23425310E-01 -2.15023140E+00 -2.15023140E+00
 -1.44685062E+00  7.41647610E-01  7.41647610E-01 -2.36889900E+00  2.46001050E+00
 -2.36889900E+00  2.46001050E+00 -1.44685062E+00  7.23425310E-01  7.23425310E-01
 -2.29600980E+00  2.41445475E+00  2.41445475E+00 -1.44685062E+00  7.23425310E-01
  7.23425310E-01  2.40534360E+00  7.23425310E-01  7.23425310E-01 -1.44685062E+00
 -1.46507292E+00  7.23425310E-01  7.23425310E-01  7.05203010E-01 -1.67827383E+00
  7.05203010E-01  5.95869210E-01  5.95869210E-01  5.95869210E-01 -5.62704624E+00
  2.48734395E+00  5.20975557E+00 -6.00242562E+00 -1.76756310E+00 -4.79246490E-01
  2.55112200E+00 -4.70135340E-01 -1.22636079E+00  2.51467740E+00 -1.71289620E+00
 -1.29560553E+00 -1.76756310E+00 -2.29600980E+00 -6.94269630E-01  2.51467740E+00
 -1.56711780E+00 -2.16845370E+00  2.53289970E+00  2.44178820E+00 -1.39218372E+00
  8.96537160E-01  8.96537160E-01 -5.28446700E-01  2.58756660E+00  2.51467740E+00
 -1.44685062E+00  8.23647960E-01  8.23647960E-01 -7.28892000E-01 -1.44685062E+00
  7.23425310E-01  7.23425310E-01 -2.15023140E+00 -2.15023140E+00 -1.44685062E+00
  7.41647610E-01  7.41647610E-01 -2.36889900E+00  2.46001050E+00 -2.36889900E+00
  2.46001050E+00 -1.44685062E+00  7.23425310E-01  7.23425310E-01 -2.29600980E+00
  2.41445475E+00  2.41445475E+00 -1.44685062E+00  7.23425310E-01  7.23425310E-01
  2.40534360E+00  7.23425310E-01  7.23425310E-01 -1.44685062E+00 -1.46507292E+00
  7.23425310E-01  7.23425310E-01  7.05203010E-01 -1.67827383E+00  7.05203010E-01
  5.95869210E-01  5.95869210E-01  5.95869210E-01 -5.62704624E+00  2.48734395E+00
  5.20975557E+00 -6.00242562E+00 -1.76756310E+00 -4.79246490E-01  2.55112200E+00
 -4.70135340E-01 -1.22636079E+00  2.51467740E+00 -1.71289620E+00 -1.29560553E+00
 -1.76756310E+00 -2.29600980E+00 -6.94269630E-01  2.51467740E+00 -1.56711780E+00
 -2.16845370E+00  2.53289970E+00  2.44178820E+00 -1.39218372E+00  8.96537160E-01
  8.96537160E-01 -5.28446700E-01  2.58756660E+00  2.51467740E+00 -1.44685062E+00
  8.23647960E-01  8.23647960E-01 -7.28892000E-01 -1.44685062E+00  7.23425310E-01
  7.23425310E-01 -2.15023140E+00 -2.15023140E+00 -1.44685062E+00  7.41647610E-01
  7.41647610E-01 -2.36889900E+00  2.46001050E+00 -2.36889900E+00  2.46001050E+00
 -1.44685062E+00  7.23425310E-01  7.23425310E-01 -2.29600980E+00  2.41445475E+00
  2.41445475E+00 -1.44685062E+00  7.23425310E-01  7.23425310E-01  2.40534360E+00
  7.23425310E-01  7.23425310E-01 -1.44685062E+00 -1.46507292E+00  7.23425310E-01
  7.23425310E-01  7.05203010E-01 -1.67827383E+00  7.05203010E-01  5.95869210E-01
  5.95869210E-01  5.95869210E-01 -5.62704624E+00  2.48734395E+00  5.20975557E+00
 -6.00242562E+00 -1.76756310E+00 -4.79246490E-01  2.55112200E+00 -4.70135340E-01
 -1.22636079E+00  2.51467740E+00 -1.71289620E+00 -1.29560553E+00 -1.76756310E+00
 -2.29600980E+00 -6.94269630E-01  2.51467740E+00 -1.56711780E+00 -2.16845370E+00
  2.53289970E+00  2.44178820E+00 -1.39218372E+00  8.96537160E-01  8.96537160E-01
 -5.28446700E-01  2.58756660E+00  2.51467740E+00 -1.44685062E+00  8.23647960E-01
  8.23647960E-01 -7.28892000E-01 -1.44685062E+00  7.23425310E-01  7.23425310E-01
 -2.15023140E+00 -2.15023140E+00 -1.44685062E+00  7.41647610E-01  7.41647610E-01
 -2.36889900E+00  2.46001050E+00 -2.36889900E+00  2.46001050E+00 -1.44685062E+00
  7.23425310E-01  7.23425310E-01 -2.29600980E+00  2.41445475E+00  2.41445475E+00
 -1.44685062E+00  7.23425310E-01  7.23425310E-01  2.40534360E+00  7.23425310E-01
  7.23425310E-01 -1.44685062E+00 -1.46507292E+00  7.23425310E-01  7.23425310E-01
  7.05203010E-01 -1.67827383E+00  7.05203010E-01  5.95869210E-01  5.95869210E-01
  5.95869210E-01 -5.62704624E+00  2.48734395E+00  5.20975557E+00 -6.00242562E+00
 -1.76756310E+00 -4.79246490E-01  2.55112200E+00 -4.70135340E-01 -1.22636079E+00
  2.51467740E+00 -1.71289620E+00 -1.29560553E+00 -1.76756310E+00 -2.29600980E+00
 -6.94269630E-01  2.51467740E+00 -1.56711780E+00 -2.16845370E+00  2.53289970E+00
  2.44178820E+00 -1.39218372E+00  8.96537160E-01  8.96537160E-01 -5.28446700E-01
  2.58756660E+00  2.51467740E+00 -1.44685062E+00  8.23647960E-01  8.23647960E-01
 -7.28892000E-01 -1.44685062E+00  7.23425310E-01  7.23425310E-01 -2.15023140E+00
 -2.15023140E+00 -1.44685062E+00  7.41647610E-01  7.41647610E-01 -2.36889900E+00
  2.46001050E+00 -2.36889900E+00  2.46001050E+00 -1.44685062E+00  7.23425310E-01
  7.23425310E-01 -2.29600980E+00  2.41445475E+00  2.41445475E+00 -1.44685062E+00
  7.23425310E-01  7.23425310E-01  2.40534360E+00  7.23425310E-01  7.23425310E-01
 -1.44685062E+00 -1.46507292E+00  7.23425310E-01  7.23425310E-01  7.05203010E-01
 -1.67827383E+00  7.05203010E-01  5.95869210E-01  5.95869210E-01  5.95869210E-01
 -5.62704624E+00  2.48734395E+00  5.20975557E+00 -6.00242562E+00 -1.76756310E+00
 -4.79246490E-01  2.55112200E+00 -4.70135340E-01 -1.22636079E+00  2.51467740E+00
 -1.71289620E+00 -1.29560553E+00 -1.76756310E+00 -2.29600980E+00 -6.94269630E-01
  2.51467740E+00 -1.56711780E+00 -2.16845370E+00  2.53289970E+00  2.44178820E+00
 -1.39218372E+00  8.96537160E-01  8.96537160E-01 -5.28446700E-01  2.58756660E+00
  2.51467740E+00 -1.44685062E+00  8.23647960E-01  8.23647960E-01 -7.28892000E-01
 -1.44685062E+00  7.23425310E-01  7.23425310E-01 -2.15023140E+00 -2.15023140E+00
 -1.44685062E+00  7.41647610E-01  7.41647610E-01 -2.36889900E+00  2.46001050E+00
 -2.36889900E+00  2.46001050E+00 -1.44685062E+00  7.23425310E-01  7.23425310E-01
 -2.29600980E+00  2.41445475E+00  2.41445475E+00 -1.44685062E+00  7.23425310E-01
  7.23425310E-01  2.40534360E+00  7.23425310E-01  7.23425310E-01 -1.44685062E+00
 -1.46507292E+00  7.23425310E-01  7.23425310E-01  7.05203010E-01 -1.67827383E+00
  7.05203010E-01  5.95869210E-01  5.95869210E-01  5.95869210E-01 -5.62704624E+00
  2.48734395E+00  5.20975557E+00 -6.00242562E+00 -1.76756310E+00 -4.79246490E-01
  2.55112200E+00 -4.70135340E-01 -1.22636079E+00  2.51467740E+00 -1.71289620E+00
 -1.29560553E+00 -1.76756310E+00 -2.29600980E+00 -6.94269630E-01  2.51467740E+00
 -1.56711780E+00 -2.16845370E+00  2.53289970E+00  2.44178820E+00 -1.39218372E+00
  8.96537160E-01  8.96537160E-01 -5.28446700E-01  2.58756660E+00  2.51467740E+00
 -1.44685062E+00  8.23647960E-01  8.23647960E-01 -7.28892000E-01 -1.44685062E+00
  7.23425310E-01  7.23425310E-01 -2.15023140E+00 -2.15023140E+00 -1.44685062E+00
  7.41647610E-01  7.41647610E-01 -2.36889900E+00  2.46001050E+00 -2.36889900E+00
  2.46001050E+00 -1.44685062E+00  7.23425310E-01  7.23425310E-01 -2.29600980E+00
  2.41445475E+00  2.41445475E+00 -1.44685062E+00  7.23425310E-01  7.23425310E-01
  2.40534360E+00  7.23425310E-01  7.23425310E-01 -1.44685062E+00 -1.46507292E+00
  7.23425310E-01  7.23425310E-01  7.05203010E-01 -1.67827383E+00  7.05203010E-01
  5.95869210E-01  5.95869210E-01  5.95869210E-01 -5.62704624E+00  2.48734395E+00
  5.20975557E+00 -6.00242562E+00 -1.76756310E+00 -4.79246490E-01  2.55112200E+00
 -4.70135340E-01 -1.22636079E+00  2.51467740E+00 -1.71289620E+00 -1.29560553E+00
 -1.76756310E+00 -2.29600980E+00 -6.94269630E-01  2.51467740E+00 -1.56711780E+00
 -2.16845370E+00  2.53289970E+00  2.44178820E+00 -1.39218372E+00  8.96537160E-01
  8.96537160E-01 -5.28446700E-01  2.58756660E+00  2.51467740E+00 -1.44685062E+00
  8.23647960E-01  8.23647960E-01 -7.28892000E-01 -1.44685062E+00  7.23425310E-01
  7.23425310E-01 -2.15023140E+00 -2.15023140E+00 -1.44685062E+00  7.41647610E-01
  7.41647610E-01 -2.36889900E+00  2.46001050E+00 -2.36889900E+00  2.46001050E+00
 -1.44685062E+00  7.23425310E-01  7.23425310E-01 -2.29600980E+00  2.41445475E+00
  2.41445475E+00 -1.44685062E+00  7.23425310E-01  7.23425310E-01  2.40534360E+00
  7.23425310E-01  7.23425310E-01 -1.44685062E+00 -1.46507292E+00  7.23425310E-01
  7.23425310E-01  7.05203010E-01 -1.67827383E+00  7.05203010E-01  5.95869210E-01
  5.95869210E-01  5.95869210E-01 -5.62704624E+00  2.48734395E+00  5.20975557E+00
 -6.00242562E+00 -1.76756310E+00 -4.79246490E-01  2.55112200E+00 -4.70135340E-01
 -1.22636079E+00  2.51467740E+00 -1.71289620E+00 -1.29560553E+00 -1.76756310E+00
 -2.29600980E+00 -6.94269630E-01  2.51467740E+00 -1.56711780E+00 -2.16845370E+00
  2.53289970E+00  2.44178820E+00 -1.39218372E+00  8.96537160E-01  8.96537160E-01
 -5.28446700E-01  2.58756660E+00  2.51467740E+00 -1.44685062E+00  8.23647960E-01
  8.23647960E-01 -7.28892000E-01 -1.44685062E+00  7.23425310E-01  7.23425310E-01
 -2.15023140E+00 -2.15023140E+00 -1.44685062E+00  7.41647610E-01  7.41647610E-01
 -2.36889900E+00  2.46001050E+00 -2.36889900E+00  2.46001050E+00 -1.44685062E+00
  7.23425310E-01  7.23425310E-01 -2.29600980E+00  2.41445475E+00  2.41445475E+00
 -1.44685062E+00  7.23425310E-01  7.23425310E-01  2.40534360E+00  7.23425310E-01
  7.23425310E-01 -1.44685062E+00 -1.46507292E+00  7.23425310E-01  7.23425310E-01
  7.05203010E-01 -1.67827383E+00  7.05203010E-01  5.95869210E-01  5.95869210E-01
  5.95869210E-01 -5.62704624E+00  2.48734395E+00  5.20975557E+00 -6.00242562E+00
 -1.76756310E+00 -4.79246490E-01  2.55112200E+00 -4.70135340E-01 -1.22636079E+00
  2.51467740E+00 -1.71289620E+00 -1.29560553E+00 -1.76756310E+00 -2.29600980E+00
 -6.94269630E-01  2.51467740E+00 -1.56711780E+00 -2.16845370E+00  2.53289970E+00
  2.44178820E+00 -1.39218372E+00  8.96537160E-01  8.96537160E-01 -5.28446700E-01
  2.58756660E+00  2.51467740E+00 -1.44685062E+00  8.23647960E-01  8.23647960E-01
 -7.28892000E-01 -1.44685062E+00  7.23425310E-01  7.23425310E-01 -2.15023140E+00
 -2.15023140E+00 -1.44685062E+00  7.41647610E-01  7.41647610E-01 -2.36889900E+00
  2.46001050E+00 -2.36889900E+00  2.46001050E+00 -1.44685062E+00  7.23425310E-01
  7.23425310E-01 -2.29600980E+00  2.41445475E+00  2.41445475E+00 -1.44685062E+00
  7.23425310E-01  7.23425310E-01  2.40534360E+00  7.23425310E-01  7.23425310E-01
 -1.44685062E+00 -1.46507292E+00  7.23425310E-01  7.23425310E-01  7.05203010E-01
 -1.67827383E+00  7.05203010E-01  5.95869210E-01  5.95869210E-01  5.95869210E-01
 -5.62704624E+00  2.48734395E+00  5.20975557E+00 -6.00242562E+00 -1.76756310E+00
 -4.79246490E-01  2.55112200E+00 -4.70135340E-01 -1.22636079E+00  2.51467740E+00
 -1.71289620E+00 -1.29560553E+00 -1.76756310E+00 -2.29600980E+00 -6.94269630E-01
  2.51467740E+00 -1.56711780E+00 -2.16845370E+00  2.53289970E+00  2.44178820E+00
 -1.39218372E+00  8.96537160E-01  8.96537160E-01 -5.28446700E-01  2.58756660E+00
  2.51467740E+00 -1.44685062E+00  8.23647960E-01  8.23647960E-01 -7.28892000E-01
 -1.44685062E+00  7.23425310E-01  7.23425310E-01 -2.15023140E+00 -2.15023140E+00
 -1.44685062E+00  7.41647610E-01  7.41647610E-01 -2.36889900E+00  2.46001050E+00
 -2.36889900E+00  2.46001050E+00 -1.44685062E+00  7.23425310E-01  7.23425310E-01
 -2.29600980E+00  2.41445475E+00  2.41445475E+00 -1.44685062E+00  7.23425310E-01
  7.23425310E-01  2.40534360E+00  7.23425310E-01  7.23425310E-01 -1.44685062E+00
 -1.46507292E+00  7.23425310E-01  7.23425310E-01  7.05203010E-01 -1.67827383E+00
  7.05203010E-01  5.95869210E-01  5.95869210E-01  5.95869210E-01 -5.62704624E+00
  2.48734395E+00  5.20975557E+00 -6.00242562E+00 -1.76756310E+00 -4.79246490E-01
  2.55112200E+00 -4.70135340E-01 -1.22636079E+00  2.51467740E+00 -1.71289620E+00
 -1.29560553E+00 -1.76756310E+00 -2.29600980E+00 -6.94269630E-01  2.51467740E+00
 -1.56711780E+00 -2.16845370E+00  2.53289970E+00  2.44178820E+00 -1.39218372E+00
  8.96537160E-01  8.96537160E-01 -5.28446700E-01  2.58756660E+00  2.51467740E+00
 -1.44685062E+00  8.23647960E-01  8.23647960E-01 -7.28892000E-01 -1.44685062E+00
  7.23425310E-01  7.23425310E-01 -2.15023140E+00 -2.15023140E+00 -1.44685062E+00
  7.41647610E-01  7.41647610E-01 -2.36889900E+00  2.46001050E+00 -2.36889900E+00
  2.46001050E+00 -1.44685062E+00  7.23425310E-01  7.23425310E-01 -2.29600980E+00
  2.41445475E+00  2.41445475E+00 -1.44685062E+00  7.23425310E-01  7.23425310E-01
  2.40534360E+00  7.23425310E-01  7.23425310E-01 -1.44685062E+00 -1.46507292E+00
  7.23425310E-01  7.23425310E-01  7.05203010E-01 -1.67827383E+00  7.05203010E-01
  5.95869210E-01  5.95869210E-01  5.95869210E-01 -5.62704624E+00  2.48734395E+00
  5.20975557E+00 -6.00242562E+00 -1.76756310E+00 -4.79246490E-01  2.55112200E+00
 -4.70135340E-01 -1.22636079E+00  2.51467740E+00 -1.71289620E+00 -1.29560553E+00
 -1.76756310E+00 -2.29600980E+00 -6.94269630E-01  2.51467740E+00 -1.56711780E+00
 -2.16845370E+00  2.53289970E+00  2.44178820E+00 -1.39218372E+00  8.96537160E-01
  8.96537160E-01 -5.28446700E-01  2.58756660E+00  2.51467740E+00 -1.44685062E+00
  8.23647960E-01  8.23647960E-01 -7.28892000E-01 -1.44685062E+00  7.23425310E-01
  7.23425310E-01 -2.15023140E+00 -2.15023140E+00 -1.44685062E+00  7.41647610E-01
  7.41647610E-01 -2.36889900E+00  2.46001050E+00 -2.36889900E+00  2.46001050E+00
 -1.44685062E+00  7.23425310E-01  7.23425310E-01 -2.29600980E+00  2.41445475E+00
  2.41445475E+00 -1.44685062E+00  7.23425310E-01  7.23425310E-01  2.40534360E+00
  7.23425310E-01  7.23425310E-01 -1.44685062E+00 -1.46507292E+00  7.23425310E-01
  7.23425310E-01  7.05203010E-01 -1.67827383E+00  7.05203010E-01  5.95869210E-01
  5.95869210E-01  5.95869210E-01 -5.62704624E+00  2.48734395E+00  5.20975557E+00
 -6.00242562E+00 -1.76756310E+00 -4.79246490E-01  2.55112200E+00 -4.70135340E-01
 -1.22636079E+00  2.51467740E+00 -1.71289620E+00 -1.29560553E+00 -1.76756310E+00
 -2.29600980E+00 -6.94269630E-01  2.51467740E+00 -1.56711780E+00 -2.16845370E+00
  2.53289970E+00  2.44178820E+00 -1.39218372E+00  8.96537160E-01  8.96537160E-01
 -5.28446700E-01  2.58756660E+00  2.51467740E+00 -1.44685062E+00  8.23647960E-01
  8.23647960E-01 -7.28892000E-01 -1.44685062E+00  7.23425310E-01  7.23425310E-01
 -2.15023140E+00 -2.15023140E+00 -1.44685062E+00  7.41647610E-01  7.41647610E-01
 -2.36889900E+00  2.46001050E+00 -2.36889900E+00  2.46001050E+00 -1.44685062E+00
  7.23425310E-01  7.23425310E-01 -2.29600980E+00  2.41445475E+00  2.41445475E+00
 -1.44685062E+00  7.23425310E-01  7.23425310E-01  2.40534360E+00  7.23425310E-01
  7.23425310E-01 -1.44685062E+00 -1.46507292E+00  7.23425310E-01  7.23425310E-01
  7.05203010E-01 -1.67827383E+00  7.05203010E-01  5.95869210E-01  5.95869210E-01
  5.95869210E-01 -5.62704624E+00  2.48734395E+00  5.20975557E+00 -6.00242562E+00
 -1.76756310E+00 -4.79246490E-01  2.55112200E+00 -4.70135340E-01 -1.22636079E+00
  2.51467740E+00 -1.71289620E+00 -1.29560553E+00 -1.76756310E+00 -2.29600980E+00
 -6.94269630E-01  2.51467740E+00 -1.56711780E+00 -2.16845370E+00  2.53289970E+00
  2.44178820E+00 -1.39218372E+00  8.96537160E-01  8.96537160E-01 -5.28446700E-01
  2.58756660E+00  2.51467740E+00 -1.44685062E+00  8.23647960E-01  8.23647960E-01
 -7.28892000E-01 -1.44685062E+00  7.23425310E-01  7.23425310E-01 -2.15023140E+00
 -2.15023140E+00 -1.44685062E+00  7.41647610E-01  7.41647610E-01 -2.36889900E+00
  2.46001050E+00 -2.36889900E+00  2.46001050E+00 -1.44685062E+00  7.23425310E-01
  7.23425310E-01 -2.29600980E+00  2.41445475E+00  2.41445475E+00 -1.44685062E+00
  7.23425310E-01  7.23425310E-01  2.40534360E+00  7.23425310E-01  7.23425310E-01
 -1.44685062E+00 -1.46507292E+00  7.23425310E-01  7.23425310E-01  7.05203010E-01
 -1.67827383E+00  7.05203010E-01  5.95869210E-01  5.95869210E-01  5.95869210E-01
 -5.62704624E+00  2.48734395E+00  5.20975557E+00 -6.00242562E+00 -1.76756310E+00
 -4.79246490E-01  2.55112200E+00 -4.70135340E-01 -1.22636079E+00  2.51467740E+00
 -1.71289620E+00 -1.29560553E+00 -1.76756310E+00 -2.29600980E+00 -6.94269630E-01
  2.51467740E+00 -1.56711780E+00 -2.16845370E+00  2.53289970E+00  2.44178820E+00
 -1.39218372E+00  8.96537160E-01  8.96537160E-01 -5.28446700E-01  2.58756660E+00
  2.51467740E+00 -1.44685062E+00  8.23647960E-01  8.23647960E-01 -7.28892000E-01
 -1.44685062E+00  7.23425310E-01  7.23425310E-01 -2.15023140E+00 -2.15023140E+00
 -1.44685062E+00  7.41647610E-01  7.41647610E-01 -2.36889900E+00  2.46001050E+00
 -2.36889900E+00  2.46001050E+00 -1.44685062E+00  7.23425310E-01  7.23425310E-01
 -2.29600980E+00  2.41445475E+00  2.41445475E+00 -1.44685062E+00  7.23425310E-01
  7.23425310E-01  2.40534360E+00  7.23425310E-01  7.23425310E-01 -1.44685062E+00
 -1.46507292E+00  7.23425310E-01  7.23425310E-01  7.05203010E-01 -1.67827383E+00
  7.05203010E-01  5.95869210E-01  5.95869210E-01  5.95869210E-01 -5.62704624E+00
  2.48734395E+00  5.20975557E+00 -6.00242562E+00 -1.76756310E+00 -4.79246490E-01
  2.55112200E+00 -4.70135340E-01 -1.22636079E+00  2.51467740E+00 -1.71289620E+00
 -1.29560553E+00 -1.76756310E+00 -2.29600980E+00 -6.94269630E-01  2.51467740E+00
 -1.56711780E+00 -2.16845370E+00  2.53289970E+00  2.44178820E+00 -1.39218372E+00
  8.96537160E-01  8.96537160E-01 -5.28446700E-01  2.58756660E+00  2.51467740E+00
 -1.44685062E+00  8.23647960E-01  8.23647960E-01 -7.28892000E-01 -1.44685062E+00
  7.23425310E-01  7.23425310E-01 -2.15023140E+00 -2.15023140E+00 -1.44685062E+00
  7.41647610E-01  7.41647610E-01 -2.36889900E+00  2.46001050E+00 -2.36889900E+00
  2.46001050E+00 -1.44685062E+00  7.23425310E-01  7.23425310E-01 -2.29600980E+00
  2.41445475E+00  2.41445475E+00 -1.44685062E+00  7.23425310E-01  7.23425310E-01
  2.40534360E+00  7.23425310E-01  7.23425310E-01 -1.44685062E+00 -1.46507292E+00
  7.23425310E-01  7.23425310E-01  7.05203010E-01 -1.67827383E+00  7.05203010E-01
  5.95869210E-01  5.95869210E-01  5.95869210E-01 -5.62704624E+00  2.48734395E+00
  5.20975557E+00 -6.00242562E+00 -1.76756310E+00 -4.79246490E-01  2.55112200E+00
 -4.70135340E-01 -1.22636079E+00  2.51467740E+00 -1.71289620E+00 -1.29560553E+00
 -1.76756310E+00 -2.29600980E+00 -6.94269630E-01  2.51467740E+00 -1.56711780E+00
 -2.16845370E+00  2.53289970E+00  2.44178820E+00 -1.39218372E+00  8.96537160E-01
  8.96537160E-01 -5.28446700E-01  2.58756660E+00  2.51467740E+00 -1.44685062E+00
  8.23647960E-01  8.23647960E-01 -7.28892000E-01 -1.44685062E+00  7.23425310E-01
  7.23425310E-01 -2.15023140E+00 -2.15023140E+00 -1.44685062E+00  7.41647610E-01
  7.41647610E-01 -2.36889900E+00  2.46001050E+00 -2.36889900E+00  2.46001050E+00
 -1.44685062E+00  7.23425310E-01  7.23425310E-01 -2.29600980E+00  2.41445475E+00
  2.41445475E+00 -1.44685062E+00  7.23425310E-01  7.23425310E-01  2.40534360E+00
  7.23425310E-01  7.23425310E-01 -1.44685062E+00 -1.46507292E+00  7.23425310E-01
  7.23425310E-01  7.05203010E-01 -1.67827383E+00  7.05203010E-01  5.95869210E-01
  5.95869210E-01  5.95869210E-01 -5.62704624E+00  2.48734395E+00  5.20975557E+00
 -6.00242562E+00 -1.76756310E+00 -4.79246490E-01  2.55112200E+00 -4.70135340E-01
 -1.22636079E+00  2.51467740E+00 -1.71289620E+00 -1.29560553E+00 -1.76756310E+00
 -2.29600980E+00 -6.94269630E-01  2.51467740E+00 -1.56711780E+00 -2.16845370E+00
  2.53289970E+00  2.44178820E+00 -1.39218372E+00  8.96537160E-01  8.96537160E-01
 -5.28446700E-01  2.58756660E+00  2.51467740E+00 -1.44685062E+00  8.23647960E-01
  8.23647960E-01 -7.28892000E-01 -1.44685062E+00  7.23425310E-01  7.23425310E-01
 -2.15023140E+00 -2.15023140E+00 -1.44685062E+00  7.41647610E-01  7.41647610E-01
 -2.36889900E+00  2.46001050E+00 -2.36889900E+00  2.46001050E+00 -1.44685062E+00
  7.23425310E-01  7.23425310E-01 -2.29600980E+00  2.41445475E+00  2.41445475E+00
 -1.44685062E+00  7.23425310E-01  7.23425310E-01  2.40534360E+00  7.23425310E-01
  7.23425310E-01 -1.44685062E+00 -1.46507292E+00  7.23425310E-01  7.23425310E-01
  7.05203010E-01 -1.67827383E+00  7.05203010E-01  5.95869210E-01  5.95869210E-01
  5.95869210E-01 -5.62704624E+00  2.48734395E+00  5.20975557E+00 -6.00242562E+00
 -1.76756310E+00 -4.79246490E-01  2.55112200E+00 -4.70135340E-01 -1.22636079E+00
  2.51467740E+00 -1.71289620E+00 -1.29560553E+00 -1.76756310E+00 -2.29600980E+00
 -6.94269630E-01  2.51467740E+00 -1.56711780E+00 -2.16845370E+00  2.53289970E+00
  2.44178820E+00 -1.39218372E+00  8.96537160E-01  8.96537160E-01 -5.28446700E-01
  2.58756660E+00  2.51467740E+00 -1.44685062E+00  8.23647960E-01  8.23647960E-01
 -7.28892000E-01 -1.44685062E+00  7.23425310E-01  7.23425310E-01 -2.15023140E+00
 -2.15023140E+00 -1.44685062E+00  7.41647610E-01  7.41647610E-01 -2.36889900E+00
  2.46001050E+00 -2.36889900E+00  2.46001050E+00 -1.44685062E+00  7.23425310E-01
  7.23425310E-01 -2.29600980E+00  2.41445475E+00  2.41445475E+00 -1.44685062E+00
  7.23425310E-01  7.23425310E-01  2.40534360E+00  7.23425310E-01  7.23425310E-01
 -1.44685062E+00 -1.46507292E+00  7.23425310E-01  7.23425310E-01  7.05203010E-01
 -1.67827383E+00  7.05203010E-01  5.95869210E-01  5.95869210E-01  5.95869210E-01
 -5.62704624E+00  2.48734395E+00  5.20975557E+00 -6.00242562E+00 -1.76756310E+00
 -4.79246490E-01  2.55112200E+00 -4.70135340E-01 -1.22636079E+00  2.51467740E+00
 -1.71289620E+00 -1.29560553E+00 -1.76756310E+00 -2.29600980E+00 -6.94269630E-01
  2.51467740E+00 -1.56711780E+00 -2.16845370E+00  2.53289970E+00  2.44178820E+00
 -1.39218372E+00  8.96537160E-01  8.96537160E-01 -5.28446700E-01  2.58756660E+00
  2.51467740E+00 -1.44685062E+00  8.23647960E-01  8.23647960E-01 -7.28892000E-01
 -1.44685062E+00  7.23425310E-01  7.23425310E-01 -2.15023140E+00 -2.15023140E+00
 -1.44685062E+00  7.41647610E-01  7.41647610E-01 -2.36889900E+00  2.46001050E+00
 -2.36889900E+00  2.46001050E+00 -1.44685062E+00  7.23425310E-01  7.23425310E-01
 -2.29600980E+00  2.41445475E+00  2.41445475E+00 -1.44685062E+00  7.23425310E-01
  7.23425310E-01  2.40534360E+00  7.23425310E-01  7.23425310E-01 -1.44685062E+00
 -1.46507292E+00  7.23425310E-01  7.23425310E-01  7.05203010E-01 -1.67827383E+00
  7.05203010E-01  5.95869210E-01  5.95869210E-01  5.95869210E-01 -5.62704624E+00
  2.48734395E+00  5.20975557E+00 -6.00242562E+00 -1.76756310E+00 -4.79246490E-01
  2.55112200E+00 -4.70135340E-01 -1.22636079E+00  2.51467740E+00 -1.71289620E+00
 -1.29560553E+00 -1.76756310E+00 -2.29600980E+00 -6.94269630E-01  2.51467740E+00
 -1.56711780E+00 -2.16845370E+00  2.53289970E+00  2.44178820E+00 -1.39218372E+00
  8.96537160E-01  8.96537160E-01 -5.28446700E-01  2.58756660E+00  2.51467740E+00
 -1.44685062E+00  8.23647960E-01  8.23647960E-01 -7.28892000E-01 -1.44685062E+00
  7.23425310E-01  7.23425310E-01 -2.15023140E+00 -2.15023140E+00 -1.44685062E+00
  7.41647610E-01  7.41647610E-01 -2.36889900E+00  2.46001050E+00 -2.36889900E+00
  2.46001050E+00 -1.44685062E+00  7.23425310E-01  7.23425310E-01 -2.29600980E+00
  2.41445475E+00  2.41445475E+00 -1.44685062E+00  7.23425310E-01  7.23425310E-01
  2.40534360E+00  7.23425310E-01  7.23425310E-01 -1.44685062E+00 -1.46507292E+00
  7.23425310E-01  7.23425310E-01  7.05203010E-01 -1.67827383E+00  7.05203010E-01
  5.95869210E-01  5.95869210E-01  5.95869210E-01 -5.62704624E+00  2.48734395E+00
  5.20975557E+00 -6.00242562E+00 -1.76756310E+00 -4.79246490E-01  2.55112200E+00
 -4.70135340E-01 -1.22636079E+00  2.51467740E+00 -1.71289620E+00 -1.29560553E+00
 -1.76756310E+00 -2.29600980E+00 -6.94269630E-01  2.51467740E+00 -1.56711780E+00
 -2.16845370E+00  2.53289970E+00  2.44178820E+00 -1.39218372E+00  8.96537160E-01
  8.96537160E-01 -5.28446700E-01  2.58756660E+00  2.51467740E+00 -1.44685062E+00
  8.23647960E-01  8.23647960E-01 -7.28892000E-01 -1.44685062E+00  7.23425310E-01
  7.23425310E-01 -2.15023140E+00 -2.15023140E+00 -1.44685062E+00  7.41647610E-01
  7.41647610E-01 -2.36889900E+00  2.46001050E+00 -2.36889900E+00  2.46001050E+00
 -1.44685062E+00  7.23425310E-01  7.23425310E-01 -2.29600980E+00  2.41445475E+00
  2.41445475E+00 -1.44685062E+00  7.23425310E-01  7.23425310E-01  2.40534360E+00
  7.23425310E-01  7.23425310E-01 -1.44685062E+00 -1.46507292E+00  7.23425310E-01
  7.23425310E-01  7.05203010E-01 -1.67827383E+00  7.05203010E-01  5.95869210E-01
  5.95869210E-01  5.95869210E-01 -5.62704624E+00  2.48734395E+00  5.20975557E+00
 -6.00242562E+00 -1.76756310E+00 -4.79246490E-01  2.55112200E+00 -4.70135340E-01
 -1.22636079E+00  2.51467740E+00 -1.71289620E+00 -1.29560553E+00 -1.76756310E+00
 -2.29600980E+00 -6.94269630E-01  2.51467740E+00 -1.56711780E+00 -2.16845370E+00
  2.53289970E+00  2.44178820E+00 -1.39218372E+00  8.96537160E-01  8.96537160E-01
 -5.28446700E-01  2.58756660E+00  2.51467740E+00 -1.44685062E+00  8.23647960E-01
  8.23647960E-01 -7.28892000E-01 -1.44685062E+00  7.23425310E-01  7.23425310E-01
 -2.15023140E+00 -2.15023140E+00 -1.44685062E+00  7.41647610E-01  7.41647610E-01
 -2.36889900E+00  2.46001050E+00 -2.36889900E+00  2.46001050E+00 -1.44685062E+00
  7.23425310E-01  7.23425310E-01 -2.29600980E+00  2.41445475E+00  2.41445475E+00
 -1.44685062E+00  7.23425310E-01  7.23425310E-01  2.40534360E+00  7.23425310E-01
  7.23425310E-01 -1.44685062E+00 -1.46507292E+00  7.23425310E-01  7.23425310E-01
  7.05203010E-01 -1.67827383E+00  7.05203010E-01  5.95869210E-01  5.95869210E-01
  5.95869210E-01 -5.62704624E+00  2.48734395E+00  5.20975557E+00 -6.00242562E+00
 -1.76756310E+00 -4.79246490E-01  2.55112200E+00 -4.70135340E-01 -1.22636079E+00
  2.51467740E+00 -1.71289620E+00 -1.29560553E+00 -1.76756310E+00 -2.29600980E+00
 -6.94269630E-01  2.51467740E+00 -1.56711780E+00 -2.16845370E+00  2.53289970E+00
  2.44178820E+00 -1.39218372E+00  8.96537160E-01  8.96537160E-01 -5.28446700E-01
  2.58756660E+00  2.51467740E+00 -1.44685062E+00  8.23647960E-01  8.23647960E-01
 -7.28892000E-01 -1.44685062E+00  7.23425310E-01  7.23425310E-01 -2.15023140E+00
 -2.15023140E+00 -1.44685062E+00  7.41647610E-01  7.41647610E-01 -2.36889900E+00
  2.46001050E+00 -2.36889900E+00  2.46001050E+00 -1.44685062E+00  7.23425310E-01
  7.23425310E-01 -2.29600980E+00  2.41445475E+00  2.41445475E+00 -1.44685062E+00
  7.23425310E-01  7.23425310E-01  2.40534360E+00  7.23425310E-01  7.23425310E-01
 -1.44685062E+00 -1.46507292E+00  7.23425310E-01  7.23425310E-01  7.05203010E-01
 -1.67827383E+00  7.05203010E-01  5.95869210E-01  5.95869210E-01  5.95869210E-01
 -5.62704624E+00  2.48734395E+00  5.20975557E+00 -6.00242562E+00 -1.76756310E+00
 -4.79246490E-01  2.55112200E+00 -4.70135340E-01 -1.22636079E+00  2.51467740E+00
 -1.71289620E+00 -1.29560553E+00 -1.76756310E+00 -2.29600980E+00 -6.94269630E-01
  2.51467740E+00 -1.56711780E+00 -2.16845370E+00  2.53289970E+00  2.44178820E+00
 -1.39218372E+00  8.96537160E-01  8.96537160E-01 -5.28446700E-01  2.58756660E+00
  2.51467740E+00 -1.44685062E+00  8.23647960E-01  8.23647960E-01 -7.28892000E-01
 -1.44685062E+00  7.23425310E-01  7.23425310E-01 -2.15023140E+00 -2.15023140E+00
 -1.44685062E+00  7.41647610E-01  7.41647610E-01 -2.36889900E+00  2.46001050E+00
 -2.36889900E+00  2.46001050E+00 -1.44685062E+00  7.23425310E-01  7.23425310E-01
 -2.29600980E+00  2.41445475E+00  2.41445475E+00 -1.44685062E+00  7.23425310E-01
  7.23425310E-01  2.40534360E+00  7.23425310E-01  7.23425310E-01 -1.44685062E+00
 -1.46507292E+00  7.23425310E-01  7.23425310E-01  7.05203010E-01 -1.67827383E+00
  7.05203010E-01  5.95869210E-01  5.95869210E-01  5.95869210E-01 -5.62704624E+00
  2.48734395E+00  5.20975557E+00 -6.00242562E+00 -1.76756310E+00 -4.79246490E-01
  2.55112200E+00 -4.70135340E-01 -1.22636079E+00  2.51467740E+00 -1.71289620E+00
 -1.29560553E+00 -1.76756310E+00 -2.29600980E+00 -6.94269630E-01  2.51467740E+00
 -1.56711780E+00 -2.16845370E+00  2.53289970E+00  2.44178820E+00 -1.39218372E+00
  8.96537160E-01  8.96537160E-01 -5.28446700E-01  2.58756660E+00  2.51467740E+00
 -1.44685062E+00  8.23647960E-01  8.23647960E-01 -7.28892000E-01 -1.44685062E+00
  7.23425310E-01  7.23425310E-01 -2.15023140E+00 -2.15023140E+00 -1.44685062E+00
  7.41647610E-01  7.41647610E-01 -2.36889900E+00  2.46001050E+00 -2.36889900E+00
  2.46001050E+00 -1.44685062E+00  7.23425310E-01  7.23425310E-01 -2.29600980E+00
  2.41445475E+00  2.41445475E+00 -1.44685062E+00  7.23425310E-01  7.23425310E-01
  2.40534360E+00  7.23425310E-01  7.23425310E-01 -1.44685062E+00 -1.46507292E+00
  7.23425310E-01  7.23425310E-01  7.05203010E-01 -1.67827383E+00  7.05203010E-01
  5.95869210E-01  5.95869210E-01  5.95869210E-01 -5.62704624E+00  2.48734395E+00
  5.20975557E+00 -6.00242562E+00 -1.76756310E+00 -4.79246490E-01  2.55112200E+00
 -4.70135340E-01 -1.22636079E+00  2.51467740E+00 -1.71289620E+00 -1.29560553E+00
 -1.76756310E+00 -2.29600980E+00 -6.94269630E-01  2.51467740E+00 -1.56711780E+00
 -2.16845370E+00  2.53289970E+00  2.44178820E+00 -1.39218372E+00  8.96537160E-01
  8.96537160E-01 -5.28446700E-01  2.58756660E+00  2.51467740E+00 -1.44685062E+00
  8.23647960E-01  8.23647960E-01 -7.28892000E-01 -1.44685062E+00  7.23425310E-01
  7.23425310E-01 -2.15023140E+00 -2.15023140E+00 -1.44685062E+00  7.41647610E-01
  7.41647610E-01 -2.36889900E+00  2.46001050E+00 -2.36889900E+00  2.46001050E+00
 -1.44685062E+00  7.23425310E-01  7.23425310E-01 -2.29600980E+00  2.41445475E+00
  2.41445475E+00 -1.44685062E+00  7.23425310E-01  7.23425310E-01  2.40534360E+00
  7.23425310E-01  7.23425310E-01 -1.44685062E+00 -1.46507292E+00  7.23425310E-01
  7.23425310E-01  7.05203010E-01 -1.67827383E+00  7.05203010E-01  5.95869210E-01
  5.95869210E-01  5.95869210E-01 -5.62704624E+00  2.48734395E+00  5.20975557E+00
 -6.00242562E+00 -1.76756310E+00 -4.79246490E-01  2.55112200E+00 -4.70135340E-01
 -1.22636079E+00  2.51467740E+00 -1.71289620E+00 -1.29560553E+00 -1.76756310E+00
 -2.29600980E+00 -6.94269630E-01  2.51467740E+00 -1.56711780E+00 -2.16845370E+00
  2.53289970E+00  2.44178820E+00 -1.39218372E+00  8.96537160E-01  8.96537160E-01
 -5.28446700E-01  2.58756660E+00  2.51467740E+00 -1.44685062E+00  8.23647960E-01
  8.23647960E-01 -7.28892000E-01 -1.44685062E+00  7.23425310E-01  7.23425310E-01
 -2.15023140E+00 -2.15023140E+00 -1.44685062E+00  7.41647610E-01  7.41647610E-01
 -2.36889900E+00  2.46001050E+00 -2.36889900E+00  2.46001050E+00 -1.44685062E+00
  7.23425310E-01  7.23425310E-01 -2.29600980E+00  2.41445475E+00  2.41445475E+00
 -1.44685062E+00  7.23425310E-01  7.23425310E-01  2.40534360E+00  7.23425310E-01
  7.23425310E-01 -1.44685062E+00 -1.46507292E+00  7.23425310E-01  7.23425310E-01
  7.05203010E-01 -1.67827383E+00  7.05203010E-01  5.95869210E-01  5.95869210E-01
  5.95869210E-01 -5.62704624E+00  2.48734395E+00  5.20975557E+00 -6.00242562E+00
 -1.76756310E+00 -4.79246490E-01  2.55112200E+00 -4.70135340E-01 -1.22636079E+00
  2.51467740E+00 -1.71289620E+00 -1.29560553E+00 -1.76756310E+00 -2.29600980E+00
 -6.94269630E-01  2.51467740E+00 -1.56711780E+00 -2.16845370E+00  2.53289970E+00
  2.44178820E+00 -1.39218372E+00  8.96537160E-01  8.96537160E-01 -5.28446700E-01
  2.58756660E+00  2.51467740E+00 -1.44685062E+00  8.23647960E-01  8.23647960E-01
 -7.28892000E-01 -1.44685062E+00  7.23425310E-01  7.23425310E-01 -2.15023140E+00
 -2.15023140E+00 -1.44685062E+00  7.41647610E-01  7.41647610E-01 -2.36889900E+00
  2.46001050E+00 -2.36889900E+00  2.46001050E+00 -1.44685062E+00  7.23425310E-01
  7.23425310E-01 -2.29600980E+00  2.41445475E+00  2.41445475E+00 -1.44685062E+00
  7.23425310E-01  7.23425310E-01  2.40534360E+00  7.23425310E-01  7.23425310E-01
 -1.44685062E+00 -1.46507292E+00  7.23425310E-01  7.23425310E-01  7.05203010E-01
 -1.67827383E+00  7.05203010E-01  5.95869210E-01  5.95869210E-01  5.95869210E-01
 -5.62704624E+00  2.48734395E+00  5.20975557E+00 -6.00242562E+00 -1.76756310E+00
 -4.79246490E-01  2.55112200E+00 -4.70135340E-01 -1.22636079E+00  2.51467740E+00
 -1.71289620E+00 -1.29560553E+00 -1.76756310E+00 -2.29600980E+00 -6.94269630E-01
  2.51467740E+00 -1.56711780E+00 -2.16845370E+00  2.53289970E+00  2.44178820E+00
 -1.39218372E+00  8.96537160E-01  8.96537160E-01 -5.28446700E-01  2.58756660E+00
  2.51467740E+00 -1.44685062E+00  8.23647960E-01  8.23647960E-01 -7.28892000E-01
 -1.44685062E+00  7.23425310E-01  7.23425310E-01 -2.15023140E+00 -2.15023140E+00
 -1.44685062E+00  7.41647610E-01  7.41647610E-01 -2.36889900E+00  2.46001050E+00
 -2.36889900E+00  2.46001050E+00 -1.44685062E+00  7.23425310E-01  7.23425310E-01
 -2.29600980E+00  2.41445475E+00  2.41445475E+00 -1.44685062E+00  7.23425310E-01
  7.23425310E-01  2.40534360E+00  7.23425310E-01  7.23425310E-01 -1.44685062E+00
 -1.46507292E+00  7.23425310E-01  7.23425310E-01  7.05203010E-01 -1.67827383E+00
  7.05203010E-01  5.95869210E-01  5.95869210E-01  5.95869210E-01 -5.62704624E+00
  2.48734395E+00  5.20975557E+00 -6.00242562E+00 -1.76756310E+00 -4.79246490E-01
  2.55112200E+00 -4.70135340E-01 -1.22636079E+00  2.51467740E+00 -1.71289620E+00
 -1.29560553E+00 -1.76756310E+00 -2.29600980E+00 -6.94269630E-01  2.51467740E+00
 -1.56711780E+00 -2.16845370E+00  2.53289970E+00  2.44178820E+00 -1.39218372E+00
  8.96537160E-01  8.96537160E-01 -5.28446700E-01  2.58756660E+00  2.51467740E+00
 -1.44685062E+00  8.23647960E-01  8.23647960E-01 -7.28892000E-01 -1.44685062E+00
  7.23425310E-01  7.23425310E-01 -2.15023140E+00 -2.15023140E+00 -1.44685062E+00
  7.41647610E-01  7.41647610E-01 -2.36889900E+00  2.46001050E+00 -2.36889900E+00
  2.46001050E+00 -1.44685062E+00  7.23425310E-01  7.23425310E-01 -2.29600980E+00
  2.41445475E+00  2.41445475E+00 -1.44685062E+00  7.23425310E-01  7.23425310E-01
  2.40534360E+00  7.23425310E-01  7.23425310E-01 -1.44685062E+00 -1.46507292E+00
  7.23425310E-01  7.23425310E-01  7.05203010E-01 -1.67827383E+00  7.05203010E-01
  5.95869210E-01  5.95869210E-01  5.95869210E-01 -5.62704624E+00  2.48734395E+00
  5.20975557E+00 -6.00242562E+00 -1.76756310E+00 -4.79246490E-01  2.55112200E+00
 -4.70135340E-01 -1.22636079E+00  2.51467740E+00 -1.71289620E+00 -1.29560553E+00
 -1.76756310E+00 -2.29600980E+00 -6.94269630E-01  2.51467740E+00 -1.56711780E+00
 -2.16845370E+00  2.53289970E+00  2.44178820E+00 -1.39218372E+00  8.96537160E-01
  8.96537160E-01 -5.28446700E-01  2.58756660E+00  2.51467740E+00 -1.44685062E+00
  8.23647960E-01  8.23647960E-01 -7.28892000E-01 -1.44685062E+00  7.23425310E-01
  7.23425310E-01 -2.15023140E+00 -2.15023140E+00 -1.44685062E+00  7.41647610E-01
  7.41647610E-01 -2.36889900E+00  2.46001050E+00 -2.36889900E+00  2.46001050E+00
 -1.44685062E+00  7.23425310E-01  7.23425310E-01 -2.29600980E+00  2.41445475E+00
  2.41445475E+00 -1.44685062E+00  7.23425310E-01  7.23425310E-01  2.40534360E+00
  7.23425310E-01  7.23425310E-01 -1.44685062E+00 -1.46507292E+00  7.23425310E-01
  7.23425310E-01  7.05203010E-01 -1.67827383E+00  7.05203010E-01  5.95869210E-01
  5.95869210E-01  5.95869210E-01 -5.62704624E+00  2.48734395E+00  5.20975557E+00
 -6.00242562E+00 -1.76756310E+00 -4.79246490E-01  2.55112200E+00 -4.70135340E-01
 -1.22636079E+00  2.51467740E+00 -1.71289620E+00 -1.29560553E+00 -1.76756310E+00
 -2.29600980E+00 -6.94269630E-01  2.51467740E+00 -1.56711780E+00 -2.16845370E+00
  2.53289970E+00  2.44178820E+00 -1.39218372E+00  8.96537160E-01  8.96537160E-01
 -5.28446700E-01  2.58756660E+00  2.51467740E+00 -1.44685062E+00  8.23647960E-01
  8.23647960E-01 -7.28892000E-01 -1.44685062E+00  7.23425310E-01  7.23425310E-01
 -2.15023140E+00 -2.15023140E+00 -1.44685062E+00  7.41647610E-01  7.41647610E-01
 -2.36889900E+00  2.46001050E+00 -2.36889900E+00  2.46001050E+00 -1.44685062E+00
  7.23425310E-01  7.23425310E-01 -2.29600980E+00  2.41445475E+00  2.41445475E+00
 -1.44685062E+00  7.23425310E-01  7.23425310E-01  2.40534360E+00  7.23425310E-01
  7.23425310E-01 -1.44685062E+00 -1.46507292E+00  7.23425310E-01  7.23425310E-01
  7.05203010E-01 -1.67827383E+00  7.05203010E-01  5.95869210E-01  5.95869210E-01
  5.95869210E-01 -5.62704624E+00  2.48734395E+00  5.20975557E+00 -6.00242562E+00
 -1.76756310E+00 -4.79246490E-01  2.55112200E+00 -4.70135340E-01 -1.22636079E+00
  2.51467740E+00 -1.71289620E+00 -1.29560553E+00 -1.76756310E+00 -2.29600980E+00
 -6.94269630E-01  2.51467740E+00 -1.56711780E+00 -2.16845370E+00  2.53289970E+00
  2.44178820E+00 -1.39218372E+00  8.96537160E-01  8.96537160E-01 -5.28446700E-01
  2.58756660E+00  2.51467740E+00 -1.44685062E+00  8.23647960E-01  8.23647960E-01
 -7.28892000E-01 -1.44685062E+00  7.23425310E-01  7.23425310E-01 -2.15023140E+00
 -2.15023140E+00 -1.44685062E+00  7.41647610E-01  7.41647610E-01 -2.36889900E+00
  2.46001050E+00 -2.36889900E+00  2.46001050E+00 -1.44685062E+00  7.23425310E-01
  7.23425310E-01 -2.29600980E+00  2.41445475E+00  2.41445475E+00 -1.44685062E+00
  7.23425310E-01  7.23425310E-01  2.40534360E+00  7.23425310E-01  7.23425310E-01
 -1.44685062E+00 -1.46507292E+00  7.23425310E-01  7.23425310E-01  7.05203010E-01
 -1.67827383E+00  7.05203010E-01  5.95869210E-01  5.95869210E-01  5.95869210E-01
 -5.62704624E+00  2.48734395E+00  5.20975557E+00 -6.00242562E+00 -1.76756310E+00
 -4.79246490E-01  2.55112200E+00 -4.70135340E-01 -1.22636079E+00  2.51467740E+00
 -1.71289620E+00 -1.29560553E+00 -1.76756310E+00 -2.29600980E+00 -6.94269630E-01
  2.51467740E+00 -1.56711780E+00 -2.16845370E+00  2.53289970E+00  2.44178820E+00
 -1.39218372E+00  8.96537160E-01  8.96537160E-01 -5.28446700E-01  2.58756660E+00
  2.51467740E+00 -1.44685062E+00  8.23647960E-01  8.23647960E-01 -7.28892000E-01
 -1.44685062E+00  7.23425310E-01  7.23425310E-01 -2.15023140E+00 -2.15023140E+00
 -1.44685062E+00  7.41647610E-01  7.41647610E-01 -2.36889900E+00  2.46001050E+00
 -2.36889900E+00  2.46001050E+00 -1.44685062E+00  7.23425310E-01  7.23425310E-01
 -2.29600980E+00  2.41445475E+00  2.41445475E+00 -1.44685062E+00  7.23425310E-01
  7.23425310E-01  2.40534360E+00  7.23425310E-01  7.23425310E-01 -1.44685062E+00
 -1.46507292E+00  7.23425310E-01  7.23425310E-01  7.05203010E-01 -1.67827383E+00
  7.05203010E-01  5.95869210E-01  5.95869210E-01  5.95869210E-01 -5.62704624E+00
  2.48734395E+00  5.20975557E+00 -6.00242562E+00 -1.76756310E+00 -4.79246490E-01
  2.55112200E+00 -4.70135340E-01 -1.22636079E+00  2.51467740E+00 -1.71289620E+00
 -1.29560553E+00 -1.76756310E+00 -2.29600980E+00 -6.94269630E-01  2.51467740E+00
 -1.56711780E+00 -2.16845370E+00  2.53289970E+00  2.44178820E+00 -1.39218372E+00
  8.96537160E-01  8.96537160E-01 -5.28446700E-01  2.58756660E+00  2.51467740E+00
 -1.44685062E+00  8.23647960E-01  8.23647960E-01 -7.28892000E-01 -1.44685062E+00
  7.23425310E-01  7.23425310E-01 -2.15023140E+00 -2.15023140E+00 -1.44685062E+00
  7.41647610E-01  7.41647610E-01 -2.36889900E+00  2.46001050E+00 -2.36889900E+00
  2.46001050E+00 -1.44685062E+00  7.23425310E-01  7.23425310E-01 -2.29600980E+00
  2.41445475E+00  2.41445475E+00 -1.44685062E+00  7.23425310E-01  7.23425310E-01
  2.40534360E+00  7.23425310E-01  7.23425310E-01 -1.44685062E+00 -1.46507292E+00
  7.23425310E-01  7.23425310E-01  7.05203010E-01 -1.67827383E+00  7.05203010E-01
  5.95869210E-01  5.95869210E-01  5.95869210E-01 -5.62704624E+00  2.48734395E+00
  5.20975557E+00 -6.00242562E+00 -1.76756310E+00 -4.79246490E-01  2.55112200E+00
 -4.70135340E-01 -1.22636079E+00  2.51467740E+00 -1.71289620E+00 -1.29560553E+00
 -1.76756310E+00 -2.29600980E+00 -6.94269630E-01  2.51467740E+00 -1.56711780E+00
 -2.16845370E+00  2.53289970E+00  2.44178820E+00 -1.39218372E+00  8.96537160E-01
  8.96537160E-01 -5.28446700E-01  2.58756660E+00  2.51467740E+00 -1.44685062E+00
  8.23647960E-01  8.23647960E-01 -7.28892000E-01 -1.44685062E+00  7.23425310E-01
  7.23425310E-01 -2.15023140E+00 -2.15023140E+00 -1.44685062E+00  7.41647610E-01
  7.41647610E-01 -2.36889900E+00  2.46001050E+00 -2.36889900E+00  2.46001050E+00
 -1.44685062E+00  7.23425310E-01  7.23425310E-01 -2.29600980E+00  2.41445475E+00
  2.41445475E+00 -1.44685062E+00  7.23425310E-01  7.23425310E-01  2.40534360E+00
  7.23425310E-01  7.23425310E-01 -1.44685062E+00 -1.46507292E+00  7.23425310E-01
  7.23425310E-01  7.05203010E-01 -1.67827383E+00  7.05203010E-01  5.95869210E-01
  5.95869210E-01  5.95869210E-01 -5.62704624E+00  2.48734395E+00  5.20975557E+00
 -6.00242562E+00 -1.76756310E+00 -4.79246490E-01  2.55112200E+00 -4.70135340E-01
 -1.22636079E+00  2.51467740E+00 -1.71289620E+00 -1.29560553E+00 -1.76756310E+00
 -2.29600980E+00 -6.94269630E-01  2.51467740E+00 -1.56711780E+00 -2.16845370E+00
  2.53289970E+00  2.44178820E+00 -1.39218372E+00  8.96537160E-01  8.96537160E-01
 -5.28446700E-01  2.58756660E+00  2.51467740E+00 -1.44685062E+00  8.23647960E-01
  8.23647960E-01 -7.28892000E-01 -1.44685062E+00  7.23425310E-01  7.23425310E-01
 -2.15023140E+00 -2.15023140E+00 -1.44685062E+00  7.41647610E-01  7.41647610E-01
 -2.36889900E+00  2.46001050E+00 -2.36889900E+00  2.46001050E+00 -1.44685062E+00
  7.23425310E-01  7.23425310E-01 -2.29600980E+00  2.41445475E+00  2.41445475E+00
 -1.44685062E+00  7.23425310E-01  7.23425310E-01  2.40534360E+00  7.23425310E-01
  7.23425310E-01 -1.44685062E+00 -1.46507292E+00  7.23425310E-01  7.23425310E-01
  7.05203010E-01 -1.67827383E+00  7.05203010E-01  5.95869210E-01  5.95869210E-01
  5.95869210E-01 -5.62704624E+00  2.48734395E+00  5.20975557E+00 -6.00242562E+00
 -1.76756310E+00 -4.79246490E-01  2.55112200E+00 -4.70135340E-01 -1.22636079E+00
  2.51467740E+00 -1.71289620E+00 -1.29560553E+00 -1.76756310E+00 -2.29600980E+00
 -6.94269630E-01  2.51467740E+00 -1.56711780E+00 -2.16845370E+00  2.53289970E+00
  2.44178820E+00 -1.39218372E+00  8.96537160E-01  8.96537160E-01 -5.28446700E-01
  2.58756660E+00  2.51467740E+00 -1.44685062E+00  8.23647960E-01  8.23647960E-01
 -7.28892000E-01 -1.44685062E+00  7.23425310E-01  7.23425310E-01 -2.15023140E+00
 -2.15023140E+00 -1.44685062E+00  7.41647610E-01  7.41647610E-01 -2.36889900E+00
  2.46001050E+00 -2.36889900E+00  2.46001050E+00 -1.44685062E+00  7.23425310E-01
  7.23425310E-01 -2.29600980E+00  2.41445475E+00  2.41445475E+00 -1.44685062E+00
  7.23425310E-01  7.23425310E-01  2.40534360E+00  7.23425310E-01  7.23425310E-01
 -1.44685062E+00 -1.46507292E+00  7.23425310E-01  7.23425310E-01  7.05203010E-01
 -1.67827383E+00  7.05203010E-01  5.95869210E-01  5.95869210E-01  5.95869210E-01
 -5.62704624E+00  2.48734395E+00  5.20975557E+00 -6.00242562E+00 -1.76756310E+00
 -4.79246490E-01  2.55112200E+00 -4.70135340E-01 -1.22636079E+00  2.51467740E+00
 -1.71289620E+00 -1.29560553E+00 -1.76756310E+00 -2.29600980E+00 -6.94269630E-01
  2.51467740E+00 -1.56711780E+00 -2.16845370E+00  2.53289970E+00  2.44178820E+00
 -1.39218372E+00  8.96537160E-01  8.96537160E-01 -5.28446700E-01  2.58756660E+00
  2.51467740E+00 -1.44685062E+00  8.23647960E-01  8.23647960E-01 -7.28892000E-01
 -1.44685062E+00  7.23425310E-01  7.23425310E-01 -2.15023140E+00 -2.15023140E+00
 -1.44685062E+00  7.41647610E-01  7.41647610E-01 -2.36889900E+00  2.46001050E+00
 -2.36889900E+00  2.46001050E+00 -1.44685062E+00  7.23425310E-01  7.23425310E-01
 -2.29600980E+00  2.41445475E+00  2.41445475E+00 -1.44685062E+00  7.23425310E-01
  7.23425310E-01  2.40534360E+00  7.23425310E-01  7.23425310E-01 -1.44685062E+00
 -1.46507292E+00  7.23425310E-01  7.23425310E-01  7.05203010E-01 -1.67827383E+00
  7.05203010E-01  5.95869210E-01  5.95869210E-01  5.95869210E-01 -5.62704624E+00
  2.48734395E+00  5.20975557E+00 -6.00242562E+00 -1.76756310E+00 -4.79246490E-01
  2.55112200E+00 -4.70135340E-01 -1.22636079E+00  2.51467740E+00 -1.71289620E+00
 -1.29560553E+00 -1.76756310E+00 -2.29600980E+00 -6.94269630E-01  2.51467740E+00
 -1.56711780E+00 -2.16845370E+00  2.53289970E+00  2.44178820E+00 -1.39218372E+00
  8.96537160E-01  8.96537160E-01 -5.28446700E-01  2.58756660E+00  2.51467740E+00
 -1.44685062E+00  8.23647960E-01  8.23647960E-01 -7.28892000E-01 -1.44685062E+00
  7.23425310E-01  7.23425310E-01 -2.15023140E+00 -2.15023140E+00 -1.44685062E+00
  7.41647610E-01  7.41647610E-01 -2.36889900E+00  2.46001050E+00 -2.36889900E+00
  2.46001050E+00 -1.44685062E+00  7.23425310E-01  7.23425310E-01 -2.29600980E+00
  2.41445475E+00  2.41445475E+00 -1.44685062E+00  7.23425310E-01  7.23425310E-01
  2.40534360E+00  7.23425310E-01  7.23425310E-01 -1.44685062E+00 -1.46507292E+00
  7.23425310E-01  7.23425310E-01  7.05203010E-01 -1.67827383E+00  7.05203010E-01
  5.95869210E-01  5.95869210E-01  5.95869210E-01 -5.62704624E+00  2.48734395E+00
  5.20975557E+00 -6.00242562E+00 -1.76756310E+00 -4.79246490E-01  2.55112200E+00
 -4.70135340E-01 -1.22636079E+00  2.51467740E+00 -1.71289620E+00 -1.29560553E+00
 -1.76756310E+00 -2.29600980E+00 -6.94269630E-01  2.51467740E+00 -1.56711780E+00
 -2.16845370E+00  2.53289970E+00  2.44178820E+00 -1.39218372E+00  8.96537160E-01
  8.96537160E-01 -5.28446700E-01  2.58756660E+00  2.51467740E+00 -1.44685062E+00
  8.23647960E-01  8.23647960E-01 -7.28892000E-01 -1.44685062E+00  7.23425310E-01
  7.23425310E-01 -2.15023140E+00 -2.15023140E+00 -1.44685062E+00  7.41647610E-01
  7.41647610E-01 -2.36889900E+00  2.46001050E+00 -2.36889900E+00  2.46001050E+00
 -1.44685062E+00  7.23425310E-01  7.23425310E-01 -2.29600980E+00  2.41445475E+00
  2.41445475E+00 -1.44685062E+00  7.23425310E-01  7.23425310E-01  2.40534360E+00
  7.23425310E-01  7.23425310E-01 -1.44685062E+00 -1.46507292E+00  7.23425310E-01
  7.23425310E-01  7.05203010E-01 -1.67827383E+00  7.05203010E-01  5.95869210E-01
  5.95869210E-01  5.95869210E-01 -5.62704624E+00  2.48734395E+00  5.20975557E+00
 -6.00242562E+00 -1.76756310E+00 -4.79246490E-01  2.55112200E+00 -4.70135340E-01
 -1.22636079E+00  2.51467740E+00 -1.71289620E+00 -1.29560553E+00 -1.76756310E+00
 -2.29600980E+00 -6.94269630E-01  2.51467740E+00 -1.56711780E+00 -2.16845370E+00
  2.53289970E+00  2.44178820E+00 -1.39218372E+00  8.96537160E-01  8.96537160E-01
 -5.28446700E-01  2.58756660E+00  2.51467740E+00 -1.44685062E+00  8.23647960E-01
  8.23647960E-01 -7.28892000E-01 -1.44685062E+00  7.23425310E-01  7.23425310E-01
 -2.15023140E+00 -2.15023140E+00 -1.44685062E+00  7.41647610E-01  7.41647610E-01
 -2.36889900E+00  2.46001050E+00 -2.36889900E+00  2.46001050E+00 -1.44685062E+00
  7.23425310E-01  7.23425310E-01 -2.29600980E+00  2.41445475E+00  2.41445475E+00
 -1.44685062E+00  7.23425310E-01  7.23425310E-01  2.40534360E+00  7.23425310E-01
  7.23425310E-01 -1.44685062E+00 -1.46507292E+00  7.23425310E-01  7.23425310E-01
  7.05203010E-01 -1.67827383E+00  7.05203010E-01  5.95869210E-01  5.95869210E-01
  5.95869210E-01 -5.62704624E+00  2.48734395E+00  5.20975557E+00 -6.00242562E+00
 -1.76756310E+00 -4.79246490E-01  2.55112200E+00 -4.70135340E-01 -1.22636079E+00
  2.51467740E+00 -1.71289620E+00 -1.29560553E+00 -1.76756310E+00 -2.29600980E+00
 -6.94269630E-01  2.51467740E+00 -1.56711780E+00 -2.16845370E+00  2.53289970E+00
  2.44178820E+00 -1.39218372E+00  8.96537160E-01  8.96537160E-01 -5.28446700E-01
  2.58756660E+00  2.51467740E+00 -1.44685062E+00  8.23647960E-01  8.23647960E-01
 -7.28892000E-01 -1.44685062E+00  7.23425310E-01  7.23425310E-01 -2.15023140E+00
 -2.15023140E+00 -1.44685062E+00  7.41647610E-01  7.41647610E-01 -2.36889900E+00
  2.46001050E+00 -2.36889900E+00  2.46001050E+00 -1.44685062E+00  7.23425310E-01
  7.23425310E-01 -2.29600980E+00  2.41445475E+00  2.41445475E+00 -1.44685062E+00
  7.23425310E-01  7.23425310E-01  2.40534360E+00  7.23425310E-01  7.23425310E-01
 -1.44685062E+00 -1.46507292E+00  7.23425310E-01  7.23425310E-01  7.05203010E-01
 -1.67827383E+00  7.05203010E-01  5.95869210E-01  5.95869210E-01  5.95869210E-01
 -5.62704624E+00  2.48734395E+00  5.20975557E+00 -6.00242562E+00 -1.76756310E+00
 -4.79246490E-01  2.55112200E+00 -4.70135340E-01 -1.22636079E+00  2.51467740E+00
 -1.71289620E+00 -1.29560553E+00 -1.76756310E+00 -2.29600980E+00 -6.94269630E-01
  2.51467740E+00 -1.56711780E+00 -2.16845370E+00  2.53289970E+00  2.44178820E+00
 -1.39218372E+00  8.96537160E-01  8.96537160E-01 -5.28446700E-01  2.58756660E+00
  2.51467740E+00 -1.44685062E+00  8.23647960E-01  8.23647960E-01 -7.28892000E-01
 -1.44685062E+00  7.23425310E-01  7.23425310E-01 -2.15023140E+00 -2.15023140E+00
 -1.44685062E+00  7.41647610E-01  7.41647610E-01 -2.36889900E+00  2.46001050E+00
 -2.36889900E+00  2.46001050E+00 -1.44685062E+00  7.23425310E-01  7.23425310E-01
 -2.29600980E+00  2.41445475E+00  2.41445475E+00 -1.44685062E+00  7.23425310E-01
  7.23425310E-01  2.40534360E+00  7.23425310E-01  7.23425310E-01 -1.44685062E+00
 -1.46507292E+00  7.23425310E-01  7.23425310E-01  7.05203010E-01 -1.67827383E+00
  7.05203010E-01  5.95869210E-01  5.95869210E-01  5.95869210E-01 -5.62704624E+00
  2.48734395E+00  5.20975557E+00 -6.00242562E+00 -1.76756310E+00 -4.79246490E-01
  2.55112200E+00 -4.70135340E-01 -1.22636079E+00  2.51467740E+00 -1.71289620E+00
 -1.29560553E+00 -1.76756310E+00 -2.29600980E+00 -6.94269630E-01  2.51467740E+00
 -1.56711780E+00 -2.16845370E+00  2.53289970E+00  2.44178820E+00 -1.39218372E+00
  8.96537160E-01  8.96537160E-01 -5.28446700E-01  2.58756660E+00  2.51467740E+00
 -1.44685062E+00  8.23647960E-01  8.23647960E-01 -7.28892000E-01 -1.44685062E+00
  7.23425310E-01  7.23425310E-01 -2.15023140E+00 -2.15023140E+00 -1.44685062E+00
  7.41647610E-01  7.41647610E-01 -2.36889900E+00  2.46001050E+00 -2.36889900E+00
  2.46001050E+00 -1.44685062E+00  7.23425310E-01  7.23425310E-01 -2.29600980E+00
  2.41445475E+00  2.41445475E+00 -1.44685062E+00  7.23425310E-01  7.23425310E-01
  2.40534360E+00  7.23425310E-01  7.23425310E-01 -1.44685062E+00 -1.46507292E+00
  7.23425310E-01  7.23425310E-01  7.05203010E-01 -1.67827383E+00  7.05203010E-01
  5.95869210E-01  5.95869210E-01  5.95869210E-01 -5.62704624E+00  2.48734395E+00
  5.20975557E+00 -6.00242562E+00 -1.76756310E+00 -4.79246490E-01  2.55112200E+00
 -4.70135340E-01 -1.22636079E+00  2.51467740E+00 -1.71289620E+00 -1.29560553E+00
 -1.76756310E+00 -2.29600980E+00 -6.94269630E-01  2.51467740E+00 -1.56711780E+00
 -2.16845370E+00  2.53289970E+00  2.44178820E+00 -1.39218372E+00  8.96537160E-01
  8.96537160E-01 -5.28446700E-01  2.58756660E+00  2.51467740E+00 -1.44685062E+00
  8.23647960E-01  8.23647960E-01 -7.28892000E-01 -1.44685062E+00  7.23425310E-01
  7.23425310E-01 -2.15023140E+00 -2.15023140E+00 -1.44685062E+00  7.41647610E-01
  7.41647610E-01 -2.36889900E+00  2.46001050E+00 -2.36889900E+00  2.46001050E+00
 -1.44685062E+00  7.23425310E-01  7.23425310E-01 -2.29600980E+00  2.41445475E+00
  2.41445475E+00 -1.44685062E+00  7.23425310E-01  7.23425310E-01  2.40534360E+00
  7.23425310E-01  7.23425310E-01 -1.44685062E+00 -1.46507292E+00  7.23425310E-01
  7.23425310E-01  7.05203010E-01 -1.67827383E+00  7.05203010E-01  5.95869210E-01
  5.95869210E-01  5.95869210E-01 -5.62704624E+00  2.48734395E+00  5.20975557E+00
 -6.00242562E+00 -1.76756310E+00 -4.79246490E-01  2.55112200E+00 -4.70135340E-01
 -1.22636079E+00  2.51467740E+00 -1.71289620E+00 -1.29560553E+00 -1.76756310E+00
 -2.29600980E+00 -6.94269630E-01  2.51467740E+00 -1.56711780E+00 -2.16845370E+00
  2.53289970E+00  2.44178820E+00 -1.39218372E+00  8.96537160E-01  8.96537160E-01
 -5.28446700E-01  2.58756660E+00  2.51467740E+00 -1.44685062E+00  8.23647960E-01
  8.23647960E-01 -7.28892000E-01 -1.44685062E+00  7.23425310E-01  7.23425310E-01
 -2.15023140E+00 -2.15023140E+00 -1.44685062E+00  7.41647610E-01  7.41647610E-01
 -2.36889900E+00  2.46001050E+00 -2.36889900E+00  2.46001050E+00 -1.44685062E+00
  7.23425310E-01  7.23425310E-01 -2.29600980E+00  2.41445475E+00  2.41445475E+00
 -1.44685062E+00  7.23425310E-01  7.23425310E-01  2.40534360E+00  7.23425310E-01
  7.23425310E-01 -1.44685062E+00 -1.46507292E+00  7.23425310E-01  7.23425310E-01
  7.05203010E-01 -1.67827383E+00  7.05203010E-01  5.95869210E-01  5.95869210E-01
  5.95869210E-01 -5.62704624E+00  2.48734395E+00  5.20975557E+00 -6.00242562E+00
 -1.76756310E+00 -4.79246490E-01  2.55112200E+00 -4.70135340E-01 -1.22636079E+00
  2.51467740E+00 -1.71289620E+00 -1.29560553E+00 -1.76756310E+00 -2.29600980E+00
 -6.94269630E-01  2.51467740E+00 -1.56711780E+00 -2.16845370E+00  2.53289970E+00
  2.44178820E+00 -1.39218372E+00  8.96537160E-01  8.96537160E-01 -5.28446700E-01
  2.58756660E+00  2.51467740E+00 -1.44685062E+00  8.23647960E-01  8.23647960E-01
 -7.28892000E-01 -1.44685062E+00  7.23425310E-01  7.23425310E-01 -2.15023140E+00
 -2.15023140E+00 -1.44685062E+00  7.41647610E-01  7.41647610E-01 -2.36889900E+00
  2.46001050E+00 -2.36889900E+00  2.46001050E+00 -1.44685062E+00  7.23425310E-01
  7.23425310E-01 -2.29600980E+00  2.41445475E+00  2.41445475E+00 -1.44685062E+00
  7.23425310E-01  7.23425310E-01  2.40534360E+00  7.23425310E-01  7.23425310E-01
 -1.44685062E+00 -1.46507292E+00  7.23425310E-01  7.23425310E-01  7.05203010E-01
 -1.67827383E+00  7.05203010E-01  5.95869210E-01  5.95869210E-01  5.95869210E-01
 -5.62704624E+00  2.48734395E+00  5.20975557E+00 -6.00242562E+00 -1.76756310E+00
 -4.79246490E-01  2.55112200E+00 -4.70135340E-01 -1.22636079E+00  2.51467740E+00
 -1.71289620E+00 -1.29560553E+00 -1.76756310E+00 -2.29600980E+00 -6.94269630E-01
  2.51467740E+00 -1.56711780E+00 -2.16845370E+00  2.53289970E+00  2.44178820E+00
 -1.39218372E+00  8.96537160E-01  8.96537160E-01 -5.28446700E-01  2.58756660E+00
  2.51467740E+00 -1.44685062E+00  8.23647960E-01  8.23647960E-01 -7.28892000E-01
 -1.44685062E+00  7.23425310E-01  7.23425310E-01 -2.15023140E+00 -2.15023140E+00
 -1.44685062E+00  7.41647610E-01  7.41647610E-01 -2.36889900E+00  2.46001050E+00
 -2.36889900E+00  2.46001050E+00 -1.44685062E+00  7.23425310E-01  7.23425310E-01
 -2.29600980E+00  2.41445475E+00  2.41445475E+00 -1.44685062E+00  7.23425310E-01
  7.23425310E-01  2.40534360E+00  7.23425310E-01  7.23425310E-01 -1.44685062E+00
 -1.46507292E+00  7.23425310E-01  7.23425310E-01  7.05203010E-01 -1.67827383E+00
  7.05203010E-01  5.95869210E-01  5.95869210E-01  5.95869210E-01 -5.62704624E+00
  2.48734395E+00  5.20975557E+00 -6.00242562E+00 -1.76756310E+00 -4.79246490E-01
  2.55112200E+00 -4.70135340E-01 -1.22636079E+00  2.51467740E+00 -1.71289620E+00
 -1.29560553E+00 -1.76756310E+00 -2.29600980E+00 -6.94269630E-01  2.51467740E+00
 -1.56711780E+00 -2.16845370E+00  2.53289970E+00  2.44178820E+00 -1.39218372E+00
  8.96537160E-01  8.96537160E-01 -5.28446700E-01  2.58756660E+00  2.51467740E+00
 -1.44685062E+00  8.23647960E-01  8.23647960E-01 -7.28892000E-01 -1.44685062E+00
  7.23425310E-01  7.23425310E-01 -2.15023140E+00 -2.15023140E+00 -1.44685062E+00
  7.41647610E-01  7.41647610E-01 -2.36889900E+00  2.46001050E+00 -2.36889900E+00
  2.46001050E+00 -1.44685062E+00  7.23425310E-01  7.23425310E-01 -2.29600980E+00
  2.41445475E+00  2.41445475E+00 -1.44685062E+00  7.23425310E-01  7.23425310E-01
  2.40534360E+00  7.23425310E-01  7.23425310E-01 -1.44685062E+00 -1.46507292E+00
  7.23425310E-01  7.23425310E-01  7.05203010E-01 -1.67827383E+00  7.05203010E-01
  5.95869210E-01  5.95869210E-01  5.95869210E-01 -5.62704624E+00  2.48734395E+00
  5.20975557E+00 -6.00242562E+00 -1.76756310E+00 -4.79246490E-01  2.55112200E+00
 -4.70135340E-01 -1.22636079E+00  2.51467740E+00 -1.71289620E+00 -1.29560553E+00
 -1.76756310E+00 -2.29600980E+00 -6.94269630E-01  2.51467740E+00 -1.56711780E+00
 -2.16845370E+00  2.53289970E+00  2.44178820E+00 -1.39218372E+00  8.96537160E-01
  8.96537160E-01 -5.28446700E-01  2.58756660E+00  2.51467740E+00 -1.44685062E+00
  8.23647960E-01  8.23647960E-01 -7.28892000E-01 -1.44685062E+00  7.23425310E-01
  7.23425310E-01 -2.15023140E+00 -2.15023140E+00 -1.44685062E+00  7.41647610E-01
  7.41647610E-01 -2.36889900E+00  2.46001050E+00 -2.36889900E+00  2.46001050E+00
 -1.44685062E+00  7.23425310E-01  7.23425310E-01 -2.29600980E+00  2.41445475E+00
  2.41445475E+00 -1.44685062E+00  7.23425310E-01  7.23425310E-01  2.40534360E+00
  7.23425310E-01  7.23425310E-01 -1.44685062E+00 -1.46507292E+00  7.23425310E-01
  7.23425310E-01  7.05203010E-01 -1.67827383E+00  7.05203010E-01  5.95869210E-01
  5.95869210E-01  5.95869210E-01 -5.62704624E+00  2.48734395E+00  5.20975557E+00
 -6.00242562E+00 -1.76756310E+00 -4.79246490E-01  2.55112200E+00 -4.70135340E-01
 -1.22636079E+00  2.51467740E+00 -1.71289620E+00 -1.29560553E+00 -1.76756310E+00
 -2.29600980E+00 -6.94269630E-01  2.51467740E+00 -1.56711780E+00 -2.16845370E+00
  2.53289970E+00  2.44178820E+00 -1.39218372E+00  8.96537160E-01  8.96537160E-01
 -5.28446700E-01  2.58756660E+00  2.51467740E+00 -1.44685062E+00  8.23647960E-01
  8.23647960E-01 -7.28892000E-01 -1.44685062E+00  7.23425310E-01  7.23425310E-01
 -2.15023140E+00 -2.15023140E+00 -1.44685062E+00  7.41647610E-01  7.41647610E-01
 -2.36889900E+00  2.46001050E+00 -2.36889900E+00  2.46001050E+00 -1.44685062E+00
  7.23425310E-01  7.23425310E-01 -2.29600980E+00  2.41445475E+00  2.41445475E+00
 -1.44685062E+00  7.23425310E-01  7.23425310E-01  2.40534360E+00  7.23425310E-01
  7.23425310E-01 -1.44685062E+00 -1.46507292E+00  7.23425310E-01  7.23425310E-01
  7.05203010E-01 -1.67827383E+00  7.05203010E-01  5.95869210E-01  5.95869210E-01
  5.95869210E-01 -5.62704624E+00  2.48734395E+00  5.20975557E+00 -6.00242562E+00
 -1.76756310E+00 -4.79246490E-01  2.55112200E+00 -4.70135340E-01 -1.22636079E+00
  2.51467740E+00 -1.71289620E+00 -1.29560553E+00 -1.76756310E+00 -2.29600980E+00
 -6.94269630E-01  2.51467740E+00 -1.56711780E+00 -2.16845370E+00  2.53289970E+00
  2.44178820E+00 -1.39218372E+00  8.96537160E-01  8.96537160E-01 -5.28446700E-01
  2.58756660E+00  2.51467740E+00 -1.44685062E+00  8.23647960E-01  8.23647960E-01
 -7.28892000E-01 -1.44685062E+00  7.23425310E-01  7.23425310E-01 -2.15023140E+00
 -2.15023140E+00 -1.44685062E+00  7.41647610E-01  7.41647610E-01 -2.36889900E+00
  2.46001050E+00 -2.36889900E+00  2.46001050E+00 -1.44685062E+00  7.23425310E-01
  7.23425310E-01 -2.29600980E+00  2.41445475E+00  2.41445475E+00 -1.44685062E+00
  7.23425310E-01  7.23425310E-01  2.40534360E+00  7.23425310E-01  7.23425310E-01
 -1.44685062E+00 -1.46507292E+00  7.23425310E-01  7.23425310E-01  7.05203010E-01
 -1.67827383E+00  7.05203010E-01  5.95869210E-01  5.95869210E-01  5.95869210E-01
 -5.62704624E+00  2.48734395E+00  5.20975557E+00 -6.00242562E+00 -1.76756310E+00
 -4.79246490E-01  2.55112200E+00 -4.70135340E-01 -1.22636079E+00  2.51467740E+00
 -1.71289620E+00 -1.29560553E+00 -1.76756310E+00 -2.29600980E+00 -6.94269630E-01
  2.51467740E+00 -1.56711780E+00 -2.16845370E+00  2.53289970E+00  2.44178820E+00
 -1.39218372E+00  8.96537160E-01  8.96537160E-01 -5.28446700E-01  2.58756660E+00
  2.51467740E+00 -1.44685062E+00  8.23647960E-01  8.23647960E-01 -7.28892000E-01
 -1.44685062E+00  7.23425310E-01  7.23425310E-01 -2.15023140E+00 -2.15023140E+00
 -1.44685062E+00  7.41647610E-01  7.41647610E-01 -2.36889900E+00  2.46001050E+00
 -2.36889900E+00  2.46001050E+00 -1.44685062E+00  7.23425310E-01  7.23425310E-01
 -2.29600980E+00  2.41445475E+00  2.41445475E+00 -1.44685062E+00  7.23425310E-01
  7.23425310E-01  2.40534360E+00  7.23425310E-01  7.23425310E-01 -1.44685062E+00
 -1.46507292E+00  7.23425310E-01  7.23425310E-01  7.05203010E-01 -1.67827383E+00
  7.05203010E-01  5.95869210E-01  5.95869210E-01  5.95869210E-01 -5.62704624E+00
  2.48734395E+00  5.20975557E+00 -6.00242562E+00 -1.76756310E+00 -4.79246490E-01
  2.55112200E+00 -4.70135340E-01 -1.22636079E+00  2.51467740E+00 -1.71289620E+00
 -1.29560553E+00 -1.76756310E+00 -2.29600980E+00 -6.94269630E-01  2.51467740E+00
 -1.56711780E+00 -2.16845370E+00  2.53289970E+00  2.44178820E+00 -1.39218372E+00
  8.96537160E-01  8.96537160E-01 -5.28446700E-01  2.58756660E+00  2.51467740E+00
 -1.44685062E+00  8.23647960E-01  8.23647960E-01 -7.28892000E-01 -1.44685062E+00
  7.23425310E-01  7.23425310E-01 -2.15023140E+00 -2.15023140E+00 -1.44685062E+00
  7.41647610E-01  7.41647610E-01 -2.36889900E+00  2.46001050E+00 -2.36889900E+00
  2.46001050E+00 -1.44685062E+00  7.23425310E-01  7.23425310E-01 -2.29600980E+00
  2.41445475E+00  2.41445475E+00 -1.44685062E+00  7.23425310E-01  7.23425310E-01
  2.40534360E+00  7.23425310E-01  7.23425310E-01 -1.44685062E+00 -1.46507292E+00
  7.23425310E-01  7.23425310E-01  7.05203010E-01 -1.67827383E+00  7.05203010E-01
  5.95869210E-01  5.95869210E-01  5.95869210E-01 -5.62704624E+00  2.48734395E+00
  5.20975557E+00 -6.00242562E+00 -1.76756310E+00 -4.79246490E-01  2.55112200E+00
 -4.70135340E-01 -1.22636079E+00  2.51467740E+00 -1.71289620E+00 -1.29560553E+00
 -1.76756310E+00 -2.29600980E+00 -6.94269630E-01  2.51467740E+00 -1.56711780E+00
 -2.16845370E+00  2.53289970E+00  2.44178820E+00 -1.39218372E+00  8.96537160E-01
  8.96537160E-01 -5.28446700E-01  2.58756660E+00  2.51467740E+00 -1.44685062E+00
  8.23647960E-01  8.23647960E-01 -7.28892000E-01 -1.44685062E+00  7.23425310E-01
  7.23425310E-01 -2.15023140E+00 -2.15023140E+00 -1.44685062E+00  7.41647610E-01
  7.41647610E-01 -2.36889900E+00  2.46001050E+00 -2.36889900E+00  2.46001050E+00
 -1.44685062E+00  7.23425310E-01  7.23425310E-01 -2.29600980E+00  2.41445475E+00
  2.41445475E+00 -1.44685062E+00  7.23425310E-01  7.23425310E-01  2.40534360E+00
  7.23425310E-01  7.23425310E-01 -1.44685062E+00 -1.46507292E+00  7.23425310E-01
  7.23425310E-01  7.05203010E-01 -1.67827383E+00  7.05203010E-01  5.95869210E-01
  5.95869210E-01  5.95869210E-01 -5.62704624E+00  2.48734395E+00  5.20975557E+00
 -6.00242562E+00 -1.76756310E+00 -4.79246490E-01  2.55112200E+00 -4.70135340E-01
 -1.22636079E+00  2.51467740E+00 -1.71289620E+00 -1.29560553E+00 -1.76756310E+00
 -2.29600980E+00 -6.94269630E-01  2.51467740E+00 -1.56711780E+00 -2.16845370E+00
  2.53289970E+00  2.44178820E+00 -1.39218372E+00  8.96537160E-01  8.96537160E-01
 -5.28446700E-01  2.58756660E+00  2.51467740E+00 -1.44685062E+00  8.23647960E-01
  8.23647960E-01 -7.28892000E-01 -1.44685062E+00  7.23425310E-01  7.23425310E-01
 -2.15023140E+00 -2.15023140E+00 -1.44685062E+00  7.41647610E-01  7.41647610E-01
 -2.36889900E+00  2.46001050E+00 -2.36889900E+00  2.46001050E+00 -1.44685062E+00
  7.23425310E-01  7.23425310E-01 -2.29600980E+00  2.41445475E+00  2.41445475E+00
 -1.44685062E+00  7.23425310E-01  7.23425310E-01  2.40534360E+00  7.23425310E-01
  7.23425310E-01 -1.44685062E+00 -1.46507292E+00  7.23425310E-01  7.23425310E-01
  7.05203010E-01 -1.67827383E+00  7.05203010E-01  5.95869210E-01  5.95869210E-01
  5.95869210E-01 -5.62704624E+00  2.48734395E+00  5.20975557E+00 -6.00242562E+00
 -1.76756310E+00 -4.79246490E-01  2.55112200E+00 -4.70135340E-01 -1.22636079E+00
  2.51467740E+00 -1.71289620E+00 -1.29560553E+00 -1.76756310E+00 -2.29600980E+00
 -6.94269630E-01  2.51467740E+00 -1.56711780E+00 -2.16845370E+00  2.53289970E+00
  2.44178820E+00 -1.39218372E+00  8.96537160E-01  8.96537160E-01 -5.28446700E-01
  2.58756660E+00  2.51467740E+00 -1.44685062E+00  8.23647960E-01  8.23647960E-01
 -7.28892000E-01 -1.44685062E+00  7.23425310E-01  7.23425310E-01 -2.15023140E+00
 -2.15023140E+00 -1.44685062E+00  7.41647610E-01  7.41647610E-01 -2.36889900E+00
  2.46001050E+00 -2.36889900E+00  2.46001050E+00 -1.44685062E+00  7.23425310E-01
  7.23425310E-01 -2.29600980E+00  2.41445475E+00  2.41445475E+00 -1.44685062E+00
  7.23425310E-01  7.23425310E-01  2.40534360E+00  7.23425310E-01  7.23425310E-01
 -1.44685062E+00 -1.46507292E+00  7.23425310E-01  7.23425310E-01  7.05203010E-01
 -1.67827383E+00  7.05203010E-01  5.95869210E-01  5.95869210E-01  5.95869210E-01
 -5.62704624E+00  2.48734395E+00  5.20975557E+00 -6.00242562E+00 -1.76756310E+00
 -4.79246490E-01  2.55112200E+00 -4.70135340E-01 -1.22636079E+00  2.51467740E+00
 -1.71289620E+00 -1.29560553E+00 -1.76756310E+00 -2.29600980E+00 -6.94269630E-01
  2.51467740E+00 -1.56711780E+00 -2.16845370E+00  2.53289970E+00  2.44178820E+00
 -1.39218372E+00  8.96537160E-01  8.96537160E-01 -5.28446700E-01  2.58756660E+00
  2.51467740E+00 -1.44685062E+00  8.23647960E-01  8.23647960E-01 -7.28892000E-01
 -1.44685062E+00  7.23425310E-01  7.23425310E-01 -2.15023140E+00 -2.15023140E+00
 -1.44685062E+00  7.41647610E-01  7.41647610E-01 -2.36889900E+00  2.46001050E+00
 -2.36889900E+00  2.46001050E+00 -1.44685062E+00  7.23425310E-01  7.23425310E-01
 -2.29600980E+00  2.41445475E+00  2.41445475E+00 -1.44685062E+00  7.23425310E-01
  7.23425310E-01  2.40534360E+00  7.23425310E-01  7.23425310E-01 -1.44685062E+00
 -1.46507292E+00  7.23425310E-01  7.23425310E-01  7.05203010E-01 -1.67827383E+00
  7.05203010E-01  5.95869210E-01  5.95869210E-01  5.95869210E-01 -5.62704624E+00
  2.48734395E+00  5.20975557E+00 -6.00242562E+00 -1.76756310E+00 -4.79246490E-01
  2.55112200E+00 -4.70135340E-01 -1.22636079E+00  2.51467740E+00 -1.71289620E+00
 -1.29560553E+00 -1.76756310E+00 -2.29600980E+00 -6.94269630E-01  2.51467740E+00
 -1.56711780E+00 -2.16845370E+00  2.53289970E+00  2.44178820E+00 -1.39218372E+00
  8.96537160E-01  8.96537160E-01 -5.28446700E-01  2.58756660E+00  2.51467740E+00
 -1.44685062E+00  8.23647960E-01  8.23647960E-01 -7.28892000E-01 -1.44685062E+00
  7.23425310E-01  7.23425310E-01 -2.15023140E+00 -2.15023140E+00 -1.44685062E+00
  7.41647610E-01  7.41647610E-01 -2.36889900E+00  2.46001050E+00 -2.36889900E+00
  2.46001050E+00 -1.44685062E+00  7.23425310E-01  7.23425310E-01 -2.29600980E+00
  2.41445475E+00  2.41445475E+00 -1.44685062E+00  7.23425310E-01  7.23425310E-01
  2.40534360E+00  7.23425310E-01  7.23425310E-01 -1.44685062E+00 -1.46507292E+00
  7.23425310E-01  7.23425310E-01  7.05203010E-01 -1.67827383E+00  7.05203010E-01
  5.95869210E-01  5.95869210E-01  5.95869210E-01 -5.62704624E+00  2.48734395E+00
  5.20975557E+00 -6.00242562E+00 -1.76756310E+00 -4.79246490E-01  2.55112200E+00
 -4.70135340E-01 -1.22636079E+00  2.51467740E+00 -1.71289620E+00 -1.29560553E+00
 -1.76756310E+00 -2.29600980E+00 -6.94269630E-01  2.51467740E+00 -1.56711780E+00
 -2.16845370E+00  2.53289970E+00  2.44178820E+00 -1.39218372E+00  8.96537160E-01
  8.96537160E-01 -5.28446700E-01  2.58756660E+00  2.51467740E+00 -1.44685062E+00
  8.23647960E-01  8.23647960E-01 -7.28892000E-01 -1.44685062E+00  7.23425310E-01
  7.23425310E-01 -2.15023140E+00 -2.15023140E+00 -1.44685062E+00  7.41647610E-01
  7.41647610E-01 -2.36889900E+00  2.46001050E+00 -2.36889900E+00  2.46001050E+00
 -1.44685062E+00  7.23425310E-01  7.23425310E-01 -2.29600980E+00  2.41445475E+00
  2.41445475E+00 -1.44685062E+00  7.23425310E-01  7.23425310E-01  2.40534360E+00
  7.23425310E-01  7.23425310E-01 -1.44685062E+00 -1.46507292E+00  7.23425310E-01
  7.23425310E-01  7.05203010E-01 -1.67827383E+00  7.05203010E-01  5.95869210E-01
  5.95869210E-01  5.95869210E-01 -5.62704624E+00  2.48734395E+00  5.20975557E+00
 -6.00242562E+00 -1.76756310E+00 -4.79246490E-01  2.55112200E+00 -4.70135340E-01
 -1.22636079E+00  2.51467740E+00 -1.71289620E+00 -1.29560553E+00 -1.76756310E+00
 -2.29600980E+00 -6.94269630E-01  2.51467740E+00 -1.56711780E+00 -2.16845370E+00
  2.53289970E+00  2.44178820E+00 -1.39218372E+00  8.96537160E-01  8.96537160E-01
 -5.28446700E-01  2.58756660E+00  2.51467740E+00 -1.44685062E+00  8.23647960E-01
  8.23647960E-01 -7.28892000E-01 -1.44685062E+00  7.23425310E-01  7.23425310E-01
 -2.15023140E+00 -2.15023140E+00 -1.44685062E+00  7.41647610E-01  7.41647610E-01
 -2.36889900E+00  2.46001050E+00 -2.36889900E+00  2.46001050E+00 -1.44685062E+00
  7.23425310E-01  7.23425310E-01 -2.29600980E+00  2.41445475E+00  2.41445475E+00
 -1.44685062E+00  7.23425310E-01  7.23425310E-01  2.40534360E+00  7.23425310E-01
  7.23425310E-01 -1.44685062E+00 -1.46507292E+00  7.23425310E-01  7.23425310E-01
  7.05203010E-01 -1.67827383E+00  7.05203010E-01  5.95869210E-01  5.95869210E-01
  5.95869210E-01 -5.62704624E+00  2.48734395E+00  5.20975557E+00 -6.00242562E+00
 -1.76756310E+00 -4.79246490E-01  2.55112200E+00 -4.70135340E-01 -1.22636079E+00
  2.51467740E+00 -1.71289620E+00 -1.29560553E+00 -1.76756310E+00 -2.29600980E+00
 -6.94269630E-01  2.51467740E+00 -1.56711780E+00 -2.16845370E+00  2.53289970E+00
  2.44178820E+00 -1.39218372E+00  8.96537160E-01  8.96537160E-01 -5.28446700E-01
  2.58756660E+00  2.51467740E+00 -1.44685062E+00  8.23647960E-01  8.23647960E-01
 -7.28892000E-01 -1.44685062E+00  7.23425310E-01  7.23425310E-01 -2.15023140E+00
 -2.15023140E+00 -1.44685062E+00  7.41647610E-01  7.41647610E-01 -2.36889900E+00
  2.46001050E+00 -2.36889900E+00  2.46001050E+00 -1.44685062E+00  7.23425310E-01
  7.23425310E-01 -2.29600980E+00  2.41445475E+00  2.41445475E+00 -1.44685062E+00
  7.23425310E-01  7.23425310E-01  2.40534360E+00  7.23425310E-01  7.23425310E-01
 -1.44685062E+00 -1.46507292E+00  7.23425310E-01  7.23425310E-01  7.05203010E-01
 -1.67827383E+00  7.05203010E-01  5.95869210E-01  5.95869210E-01  5.95869210E-01
 -5.62704624E+00  2.48734395E+00  5.20975557E+00 -6.00242562E+00 -1.76756310E+00
 -4.79246490E-01  2.55112200E+00 -4.70135340E-01 -1.22636079E+00  2.51467740E+00
 -1.71289620E+00 -1.29560553E+00 -1.76756310E+00 -2.29600980E+00 -6.94269630E-01
  2.51467740E+00 -1.56711780E+00 -2.16845370E+00  2.53289970E+00  2.44178820E+00
 -1.39218372E+00  8.96537160E-01  8.96537160E-01 -5.28446700E-01  2.58756660E+00
  2.51467740E+00 -1.44685062E+00  8.23647960E-01  8.23647960E-01 -7.28892000E-01
 -1.44685062E+00  7.23425310E-01  7.23425310E-01 -2.15023140E+00 -2.15023140E+00
 -1.44685062E+00  7.41647610E-01  7.41647610E-01 -2.36889900E+00  2.46001050E+00
 -2.36889900E+00  2.46001050E+00 -1.44685062E+00  7.23425310E-01  7.23425310E-01
 -2.29600980E+00  2.41445475E+00  2.41445475E+00 -1.44685062E+00  7.23425310E-01
  7.23425310E-01  2.40534360E+00  7.23425310E-01  7.23425310E-01 -1.44685062E+00
 -1.46507292E+00  7.23425310E-01  7.23425310E-01  7.05203010E-01 -1.67827383E+00
  7.05203010E-01  5.95869210E-01  5.95869210E-01  5.95869210E-01 -5.62704624E+00
  2.48734395E+00  5.20975557E+00 -6.00242562E+00 -1.76756310E+00 -4.79246490E-01
  2.55112200E+00 -4.70135340E-01 -1.22636079E+00  2.51467740E+00 -1.71289620E+00
 -1.29560553E+00 -1.76756310E+00 -2.29600980E+00 -6.94269630E-01  2.51467740E+00
 -1.56711780E+00 -2.16845370E+00  2.53289970E+00  2.44178820E+00 -1.39218372E+00
  8.96537160E-01  8.96537160E-01 -5.28446700E-01  2.58756660E+00  2.51467740E+00
 -1.44685062E+00  8.23647960E-01  8.23647960E-01 -7.28892000E-01 -1.44685062E+00
  7.23425310E-01  7.23425310E-01 -2.15023140E+00 -2.15023140E+00 -1.44685062E+00
  7.41647610E-01  7.41647610E-01 -2.36889900E+00  2.46001050E+00 -2.36889900E+00
  2.46001050E+00 -1.44685062E+00  7.23425310E-01  7.23425310E-01 -2.29600980E+00
  2.41445475E+00  2.41445475E+00 -1.44685062E+00  7.23425310E-01  7.23425310E-01
  2.40534360E+00  7.23425310E-01  7.23425310E-01 -1.44685062E+00 -1.46507292E+00
  7.23425310E-01  7.23425310E-01  7.05203010E-01 -1.67827383E+00  7.05203010E-01
  5.95869210E-01  5.95869210E-01  5.95869210E-01 -5.62704624E+00  2.48734395E+00
  5.20975557E+00 -6.00242562E+00 -1.76756310E+00 -4.79246490E-01  2.55112200E+00
 -4.70135340E-01 -1.22636079E+00  2.51467740E+00 -1.71289620E+00 -1.29560553E+00
 -1.76756310E+00 -2.29600980E+00 -6.94269630E-01  2.51467740E+00 -1.56711780E+00
 -2.16845370E+00  2.53289970E+00  2.44178820E+00 -1.39218372E+00  8.96537160E-01
  8.96537160E-01 -5.28446700E-01  2.58756660E+00  2.51467740E+00 -1.44685062E+00
  8.23647960E-01  8.23647960E-01 -7.28892000E-01 -1.44685062E+00  7.23425310E-01
  7.23425310E-01 -2.15023140E+00 -2.15023140E+00 -1.44685062E+00  7.41647610E-01
  7.41647610E-01 -2.36889900E+00  2.46001050E+00 -2.36889900E+00  2.46001050E+00
 -1.44685062E+00  7.23425310E-01  7.23425310E-01 -2.29600980E+00  2.41445475E+00
  2.41445475E+00 -1.44685062E+00  7.23425310E-01  7.23425310E-01  2.40534360E+00
  7.23425310E-01  7.23425310E-01 -1.44685062E+00 -1.46507292E+00  7.23425310E-01
  7.23425310E-01  7.05203010E-01 -1.67827383E+00  7.05203010E-01  5.95869210E-01
  5.95869210E-01  5.95869210E-01 -5.62704624E+00  2.48734395E+00  5.20975557E+00
 -6.00242562E+00 -1.76756310E+00 -4.79246490E-01  2.55112200E+00 -4.70135340E-01
 -1.22636079E+00  2.51467740E+00 -1.71289620E+00 -1.29560553E+00 -1.76756310E+00
 -2.29600980E+00 -6.94269630E-01  2.51467740E+00 -1.56711780E+00 -2.16845370E+00
  2.53289970E+00  2.44178820E+00 -1.39218372E+00  8.96537160E-01  8.96537160E-01
 -5.28446700E-01  2.58756660E+00  2.51467740E+00 -1.44685062E+00  8.23647960E-01
  8.23647960E-01 -7.28892000E-01 -1.44685062E+00  7.23425310E-01  7.23425310E-01
 -2.15023140E+00 -2.15023140E+00 -1.44685062E+00  7.41647610E-01  7.41647610E-01
 -2.36889900E+00  2.46001050E+00 -2.36889900E+00  2.46001050E+00 -1.44685062E+00
  7.23425310E-01  7.23425310E-01 -2.29600980E+00  2.41445475E+00  2.41445475E+00
 -1.44685062E+00  7.23425310E-01  7.23425310E-01  2.40534360E+00  7.23425310E-01
  7.23425310E-01 -1.44685062E+00 -1.46507292E+00  7.23425310E-01  7.23425310E-01
  7.05203010E-01 -1.67827383E+00  7.05203010E-01  5.95869210E-01  5.95869210E-01
  5.95869210E-01 -5.62704624E+00  2.48734395E+00  5.20975557E+00 -6.00242562E+00
 -1.76756310E+00 -4.79246490E-01  2.55112200E+00 -4.70135340E-01 -1.22636079E+00
  2.51467740E+00 -1.71289620E+00 -1.29560553E+00 -1.76756310E+00 -2.29600980E+00
 -6.94269630E-01  2.51467740E+00 -1.56711780E+00 -2.16845370E+00  2.53289970E+00
  2.44178820E+00 -1.39218372E+00  8.96537160E-01  8.96537160E-01 -5.28446700E-01
  2.58756660E+00  2.51467740E+00 -1.44685062E+00  8.23647960E-01  8.23647960E-01
 -7.28892000E-01 -1.44685062E+00  7.23425310E-01  7.23425310E-01 -2.15023140E+00
 -2.15023140E+00 -1.44685062E+00  7.41647610E-01  7.41647610E-01 -2.36889900E+00
  2.46001050E+00 -2.36889900E+00  2.46001050E+00 -1.44685062E+00  7.23425310E-01
  7.23425310E-01 -2.29600980E+00  2.41445475E+00  2.41445475E+00 -1.44685062E+00
  7.23425310E-01  7.23425310E-01  2.40534360E+00  7.23425310E-01  7.23425310E-01
 -1.44685062E+00 -1.46507292E+00  7.23425310E-01  7.23425310E-01  7.05203010E-01
 -1.67827383E+00  7.05203010E-01  5.95869210E-01  5.95869210E-01  5.95869210E-01
 -5.62704624E+00  2.48734395E+00  5.20975557E+00 -6.00242562E+00 -1.76756310E+00
 -4.79246490E-01  2.55112200E+00 -4.70135340E-01 -1.22636079E+00  2.51467740E+00
 -1.71289620E+00 -1.29560553E+00 -1.76756310E+00 -2.29600980E+00 -6.94269630E-01
  2.51467740E+00 -1.56711780E+00 -2.16845370E+00  2.53289970E+00  2.44178820E+00
 -1.39218372E+00  8.96537160E-01  8.96537160E-01 -5.28446700E-01  2.58756660E+00
  2.51467740E+00 -1.44685062E+00  8.23647960E-01  8.23647960E-01 -7.28892000E-01
 -1.44685062E+00  7.23425310E-01  7.23425310E-01 -2.15023140E+00 -2.15023140E+00
 -1.44685062E+00  7.41647610E-01  7.41647610E-01 -2.36889900E+00  2.46001050E+00
 -2.36889900E+00  2.46001050E+00 -1.44685062E+00  7.23425310E-01  7.23425310E-01
 -2.29600980E+00  2.41445475E+00  2.41445475E+00 -1.44685062E+00  7.23425310E-01
  7.23425310E-01  2.40534360E+00  7.23425310E-01  7.23425310E-01 -1.44685062E+00
 -1.46507292E+00  7.23425310E-01  7.23425310E-01  7.05203010E-01 -1.67827383E+00
  7.05203010E-01  5.95869210E-01  5.95869210E-01  5.95869210E-01 -5.62704624E+00
  2.48734395E+00  5.20975557E+00 -6.00242562E+00 -1.76756310E+00 -4.79246490E-01
  2.55112200E+00 -4.70135340E-01 -1.22636079E+00  2.51467740E+00 -1.71289620E+00
 -1.29560553E+00 -1.76756310E+00 -2.29600980E+00 -6.94269630E-01  2.51467740E+00
 -1.56711780E+00 -2.16845370E+00  2.53289970E+00  2.44178820E+00 -1.39218372E+00
  8.96537160E-01  8.96537160E-01 -5.28446700E-01  2.58756660E+00  2.51467740E+00
 -1.44685062E+00  8.23647960E-01  8.23647960E-01 -7.28892000E-01 -1.44685062E+00
  7.23425310E-01  7.23425310E-01 -2.15023140E+00 -2.15023140E+00 -1.44685062E+00
  7.41647610E-01  7.41647610E-01 -2.36889900E+00  2.46001050E+00 -2.36889900E+00
  2.46001050E+00 -1.44685062E+00  7.23425310E-01  7.23425310E-01 -2.29600980E+00
  2.41445475E+00  2.41445475E+00 -1.44685062E+00  7.23425310E-01  7.23425310E-01
  2.40534360E+00  7.23425310E-01  7.23425310E-01 -1.44685062E+00 -1.46507292E+00
  7.23425310E-01  7.23425310E-01  7.05203010E-01 -1.67827383E+00  7.05203010E-01
  5.95869210E-01  5.95869210E-01  5.95869210E-01 -5.62704624E+00  2.48734395E+00
  5.20975557E+00 -6.00242562E+00 -1.76756310E+00 -4.79246490E-01  2.55112200E+00
 -4.70135340E-01 -1.22636079E+00  2.51467740E+00 -1.71289620E+00 -1.29560553E+00
 -1.76756310E+00 -2.29600980E+00 -6.94269630E-01  2.51467740E+00 -1.56711780E+00
 -2.16845370E+00  2.53289970E+00  2.44178820E+00 -1.39218372E+00  8.96537160E-01
  8.96537160E-01 -5.28446700E-01  2.58756660E+00  2.51467740E+00 -1.44685062E+00
  8.23647960E-01  8.23647960E-01 -7.28892000E-01 -1.44685062E+00  7.23425310E-01
  7.23425310E-01 -2.15023140E+00 -2.15023140E+00 -1.44685062E+00  7.41647610E-01
  7.41647610E-01 -2.36889900E+00  2.46001050E+00 -2.36889900E+00  2.46001050E+00
 -1.44685062E+00  7.23425310E-01  7.23425310E-01 -2.29600980E+00  2.41445475E+00
  2.41445475E+00 -1.44685062E+00  7.23425310E-01  7.23425310E-01  2.40534360E+00
  7.23425310E-01  7.23425310E-01 -1.44685062E+00 -1.46507292E+00  7.23425310E-01
  7.23425310E-01  7.05203010E-01 -1.67827383E+00  7.05203010E-01  5.95869210E-01
  5.95869210E-01  5.95869210E-01 -5.62704624E+00  2.48734395E+00  5.20975557E+00
 -6.00242562E+00 -1.76756310E+00 -4.79246490E-01  2.55112200E+00 -4.70135340E-01
 -1.22636079E+00  2.51467740E+00 -1.71289620E+00 -1.29560553E+00 -1.76756310E+00
 -2.29600980E+00 -6.94269630E-01  2.51467740E+00 -1.56711780E+00 -2.16845370E+00
  2.53289970E+00  2.44178820E+00 -1.39218372E+00  8.96537160E-01  8.96537160E-01
 -5.28446700E-01  2.58756660E+00  2.51467740E+00 -1.44685062E+00  8.23647960E-01
  8.23647960E-01 -7.28892000E-01 -1.44685062E+00  7.23425310E-01  7.23425310E-01
 -2.15023140E+00 -2.15023140E+00 -1.44685062E+00  7.41647610E-01  7.41647610E-01
 -2.36889900E+00  2.46001050E+00 -2.36889900E+00  2.46001050E+00 -1.44685062E+00
  7.23425310E-01  7.23425310E-01 -2.29600980E+00  2.41445475E+00  2.41445475E+00
 -1.44685062E+00  7.23425310E-01  7.23425310E-01  2.40534360E+00  7.23425310E-01
  7.23425310E-01 -1.44685062E+00 -1.46507292E+00  7.23425310E-01  7.23425310E-01
  7.05203010E-01 -1.67827383E+00  7.05203010E-01  5.95869210E-01  5.95869210E-01
  5.95869210E-01 -5.62704624E+00  2.48734395E+00  5.20975557E+00 -6.00242562E+00
 -1.76756310E+00 -4.79246490E-01  2.55112200E+00 -4.70135340E-01 -1.22636079E+00
  2.51467740E+00 -1.71289620E+00 -1.29560553E+00 -1.76756310E+00 -2.29600980E+00
 -6.94269630E-01  2.51467740E+00 -1.56711780E+00 -2.16845370E+00  2.53289970E+00
  2.44178820E+00 -1.39218372E+00  8.96537160E-01  8.96537160E-01 -5.28446700E-01
  2.58756660E+00  2.51467740E+00 -1.44685062E+00  8.23647960E-01  8.23647960E-01
 -7.28892000E-01 -1.44685062E+00  7.23425310E-01  7.23425310E-01 -2.15023140E+00
 -2.15023140E+00 -1.44685062E+00  7.41647610E-01  7.41647610E-01 -2.36889900E+00
  2.46001050E+00 -2.36889900E+00  2.46001050E+00 -1.44685062E+00  7.23425310E-01
  7.23425310E-01 -2.29600980E+00  2.41445475E+00  2.41445475E+00 -1.44685062E+00
  7.23425310E-01  7.23425310E-01  2.40534360E+00  7.23425310E-01  7.23425310E-01
 -1.44685062E+00 -1.46507292E+00  7.23425310E-01  7.23425310E-01  7.05203010E-01
 -1.67827383E+00  7.05203010E-01  5.95869210E-01  5.95869210E-01  5.95869210E-01
 -5.62704624E+00  2.48734395E+00  5.20975557E+00 -6.00242562E+00 -1.76756310E+00
 -4.79246490E-01  2.55112200E+00 -4.70135340E-01 -1.22636079E+00  2.51467740E+00
 -1.71289620E+00 -1.29560553E+00 -1.76756310E+00 -2.29600980E+00 -6.94269630E-01
  2.51467740E+00 -1.56711780E+00 -2.16845370E+00  2.53289970E+00  2.44178820E+00
 -1.39218372E+00  8.96537160E-01  8.96537160E-01 -5.28446700E-01  2.58756660E+00
  2.51467740E+00 -1.44685062E+00  8.23647960E-01  8.23647960E-01 -7.28892000E-01
 -1.44685062E+00  7.23425310E-01  7.23425310E-01 -2.15023140E+00 -2.15023140E+00
 -1.44685062E+00  7.41647610E-01  7.41647610E-01 -2.36889900E+00  2.46001050E+00
 -2.36889900E+00  2.46001050E+00 -1.44685062E+00  7.23425310E-01  7.23425310E-01
 -2.29600980E+00  2.41445475E+00  2.41445475E+00 -1.44685062E+00  7.23425310E-01
  7.23425310E-01  2.40534360E+00  7.23425310E-01  7.23425310E-01 -1.44685062E+00
 -1.46507292E+00  7.23425310E-01  7.23425310E-01  7.05203010E-01 -1.67827383E+00
  7.05203010E-01  5.95869210E-01  5.95869210E-01  5.95869210E-01 -5.62704624E+00
  2.48734395E+00  5.20975557E+00 -6.00242562E+00 -1.76756310E+00 -4.79246490E-01
  2.55112200E+00 -4.70135340E-01 -1.22636079E+00  2.51467740E+00 -1.71289620E+00
 -1.29560553E+00 -1.76756310E+00 -2.29600980E+00 -6.94269630E-01  2.51467740E+00
 -1.56711780E+00 -2.16845370E+00  2.53289970E+00  2.44178820E+00 -1.39218372E+00
  8.96537160E-01  8.96537160E-01 -5.28446700E-01  2.58756660E+00  2.51467740E+00
 -1.44685062E+00  8.23647960E-01  8.23647960E-01 -7.28892000E-01 -1.44685062E+00
  7.23425310E-01  7.23425310E-01 -2.15023140E+00 -2.15023140E+00 -1.44685062E+00
  7.41647610E-01  7.41647610E-01 -2.36889900E+00  2.46001050E+00 -2.36889900E+00
  2.46001050E+00 -1.44685062E+00  7.23425310E-01  7.23425310E-01 -2.29600980E+00
  2.41445475E+00  2.41445475E+00 -1.44685062E+00  7.23425310E-01  7.23425310E-01
  2.40534360E+00  7.23425310E-01  7.23425310E-01 -1.44685062E+00 -1.46507292E+00
  7.23425310E-01  7.23425310E-01  7.05203010E-01 -1.67827383E+00  7.05203010E-01
  5.95869210E-01  5.95869210E-01  5.95869210E-01 -5.62704624E+00  2.48734395E+00
  5.20975557E+00 -6.00242562E+00 -1.76756310E+00 -4.79246490E-01  2.55112200E+00
 -4.70135340E-01 -1.22636079E+00  2.51467740E+00 -1.71289620E+00 -1.29560553E+00
 -1.76756310E+00 -2.29600980E+00 -6.94269630E-01  2.51467740E+00 -1.56711780E+00
 -2.16845370E+00  2.53289970E+00  2.44178820E+00 -1.39218372E+00  8.96537160E-01
  8.96537160E-01 -5.28446700E-01  2.58756660E+00  2.51467740E+00 -1.44685062E+00
  8.23647960E-01  8.23647960E-01 -7.28892000E-01 -1.44685062E+00  7.23425310E-01
  7.23425310E-01 -2.15023140E+00 -2.15023140E+00 -1.44685062E+00  7.41647610E-01
  7.41647610E-01 -2.36889900E+00  2.46001050E+00 -2.36889900E+00  2.46001050E+00
 -1.44685062E+00  7.23425310E-01  7.23425310E-01 -2.29600980E+00  2.41445475E+00
  2.41445475E+00 -1.44685062E+00  7.23425310E-01  7.23425310E-01  2.40534360E+00
  7.23425310E-01  7.23425310E-01 -1.44685062E+00 -1.46507292E+00  7.23425310E-01
  7.23425310E-01  7.05203010E-01 -1.67827383E+00  7.05203010E-01  5.95869210E-01
  5.95869210E-01  5.95869210E-01 -5.62704624E+00  2.48734395E+00  5.20975557E+00
 -6.00242562E+00 -1.76756310E+00 -4.79246490E-01  2.55112200E+00 -4.70135340E-01
 -1.22636079E+00  2.51467740E+00 -1.71289620E+00 -1.29560553E+00 -1.76756310E+00
 -2.29600980E+00 -6.94269630E-01  2.51467740E+00 -1.56711780E+00 -2.16845370E+00
  2.53289970E+00  2.44178820E+00 -1.39218372E+00  8.96537160E-01  8.96537160E-01
 -5.28446700E-01  2.58756660E+00  2.51467740E+00 -1.44685062E+00  8.23647960E-01
  8.23647960E-01 -7.28892000E-01 -1.44685062E+00  7.23425310E-01  7.23425310E-01
 -2.15023140E+00 -2.15023140E+00 -1.44685062E+00  7.41647610E-01  7.41647610E-01
 -2.36889900E+00  2.46001050E+00 -2.36889900E+00  2.46001050E+00 -1.44685062E+00
  7.23425310E-01  7.23425310E-01 -2.29600980E+00  2.41445475E+00  2.41445475E+00
 -1.44685062E+00  7.23425310E-01  7.23425310E-01  2.40534360E+00  7.23425310E-01
  7.23425310E-01 -1.44685062E+00 -1.46507292E+00  7.23425310E-01  7.23425310E-01
  7.05203010E-01 -1.67827383E+00  7.05203010E-01  5.95869210E-01  5.95869210E-01
  5.95869210E-01 -5.62704624E+00  2.48734395E+00  5.20975557E+00 -6.00242562E+00
 -1.76756310E+00 -4.79246490E-01  2.55112200E+00 -4.70135340E-01 -1.22636079E+00
  2.51467740E+00 -1.71289620E+00 -1.29560553E+00 -1.76756310E+00 -2.29600980E+00
 -6.94269630E-01  2.51467740E+00 -1.56711780E+00 -2.16845370E+00  2.53289970E+00
  2.44178820E+00 -1.39218372E+00  8.96537160E-01  8.96537160E-01 -5.28446700E-01
  2.58756660E+00  2.51467740E+00 -1.44685062E+00  8.23647960E-01  8.23647960E-01
 -7.28892000E-01 -1.44685062E+00  7.23425310E-01  7.23425310E-01 -2.15023140E+00
 -2.15023140E+00 -1.44685062E+00  7.41647610E-01  7.41647610E-01 -2.36889900E+00
  2.46001050E+00 -2.36889900E+00  2.46001050E+00 -1.44685062E+00  7.23425310E-01
  7.23425310E-01 -2.29600980E+00  2.41445475E+00  2.41445475E+00 -1.44685062E+00
  7.23425310E-01  7.23425310E-01  2.40534360E+00  7.23425310E-01  7.23425310E-01
 -1.44685062E+00 -1.46507292E+00  7.23425310E-01  7.23425310E-01  7.05203010E-01
 -1.67827383E+00  7.05203010E-01  5.95869210E-01  5.95869210E-01  5.95869210E-01
 -5.62704624E+00  2.48734395E+00  5.20975557E+00 -6.00242562E+00 -1.76756310E+00
 -4.79246490E-01  2.55112200E+00 -4.70135340E-01 -1.22636079E+00  2.51467740E+00
 -1.71289620E+00 -1.29560553E+00 -1.76756310E+00 -2.29600980E+00 -6.94269630E-01
  2.51467740E+00 -1.56711780E+00 -2.16845370E+00  2.53289970E+00  2.44178820E+00
 -1.39218372E+00  8.96537160E-01  8.96537160E-01 -5.28446700E-01  2.58756660E+00
  2.51467740E+00 -1.44685062E+00  8.23647960E-01  8.23647960E-01 -7.28892000E-01
 -1.44685062E+00  7.23425310E-01  7.23425310E-01 -2.15023140E+00 -2.15023140E+00
 -1.44685062E+00  7.41647610E-01  7.41647610E-01 -2.36889900E+00  2.46001050E+00
 -2.36889900E+00  2.46001050E+00 -1.44685062E+00  7.23425310E-01  7.23425310E-01
 -2.29600980E+00  2.41445475E+00  2.41445475E+00 -1.44685062E+00  7.23425310E-01
  7.23425310E-01  2.40534360E+00  7.23425310E-01  7.23425310E-01 -1.44685062E+00
 -1.46507292E+00  7.23425310E-01  7.23425310E-01  7.05203010E-01 -1.67827383E+00
  7.05203010E-01  5.95869210E-01  5.95869210E-01  5.95869210E-01 -5.62704624E+00
  2.48734395E+00  5.20975557E+00 -6.00242562E+00 -1.76756310E+00 -4.79246490E-01
  2.55112200E+00 -4.70135340E-01 -1.22636079E+00  2.51467740E+00 -1.71289620E+00
 -1.29560553E+00 -1.76756310E+00 -2.29600980E+00 -6.94269630E-01  2.51467740E+00
 -1.56711780E+00 -2.16845370E+00  2.53289970E+00  2.44178820E+00 -1.39218372E+00
  8.96537160E-01  8.96537160E-01 -5.28446700E-01  2.58756660E+00  2.51467740E+00
 -1.44685062E+00  8.23647960E-01  8.23647960E-01 -7.28892000E-01 -1.44685062E+00
  7.23425310E-01  7.23425310E-01 -2.15023140E+00 -2.15023140E+00 -1.44685062E+00
  7.41647610E-01  7.41647610E-01 -2.36889900E+00  2.46001050E+00 -2.36889900E+00
  2.46001050E+00 -1.44685062E+00  7.23425310E-01  7.23425310E-01 -2.29600980E+00
  2.41445475E+00  2.41445475E+00 -1.44685062E+00  7.23425310E-01  7.23425310E-01
  2.40534360E+00  7.23425310E-01  7.23425310E-01 -1.44685062E+00 -1.46507292E+00
  7.23425310E-01  7.23425310E-01  7.05203010E-01 -1.67827383E+00  7.05203010E-01
  5.95869210E-01  5.95869210E-01  5.95869210E-01 -5.62704624E+00  2.48734395E+00
  5.20975557E+00 -6.00242562E+00 -1.76756310E+00 -4.79246490E-01  2.55112200E+00
 -4.70135340E-01 -1.22636079E+00  2.51467740E+00 -1.71289620E+00 -1.29560553E+00
 -1.76756310E+00 -2.29600980E+00 -6.94269630E-01  2.51467740E+00 -1.56711780E+00
 -2.16845370E+00  2.53289970E+00  2.44178820E+00 -1.39218372E+00  8.96537160E-01
  8.96537160E-01 -5.28446700E-01  2.58756660E+00  2.51467740E+00 -1.44685062E+00
  8.23647960E-01  8.23647960E-01 -7.28892000E-01 -1.44685062E+00  7.23425310E-01
  7.23425310E-01 -2.15023140E+00 -2.15023140E+00 -1.44685062E+00  7.41647610E-01
  7.41647610E-01 -2.36889900E+00  2.46001050E+00 -2.36889900E+00  2.46001050E+00
 -1.44685062E+00  7.23425310E-01  7.23425310E-01 -2.29600980E+00  2.41445475E+00
  2.41445475E+00 -1.44685062E+00  7.23425310E-01  7.23425310E-01  2.40534360E+00
  7.23425310E-01  7.23425310E-01 -1.44685062E+00 -1.46507292E+00  7.23425310E-01
  7.23425310E-01  7.05203010E-01 -1.67827383E+00  7.05203010E-01  5.95869210E-01
  5.95869210E-01  5.95869210E-01
%FLAG ATOMIC_NUMBER                                                             
%FORMAT(10I8)                                                                   
      16       6       6       6       6       6      16       6       6       1
       6       6       6       6       6       1       6       6       1       1
       6       1       1       6       1       1       6       1       1       6
       6       1       1       6       6       6       1       1       6       1
       6       1       6       1       1       6       1       1       6       1
       1       1       1       1       6       6       1       1       1       6
       1       1       1       1      16       6       6       6       6       6
      16       6       6       1       6       6       6       6       6       1
       6       6       1       1       6       1       1       6       1       1
       6       1       1       6       6       1       1       6       6       6
       1       1       6       1       6       1       6       1       1       6
       1       1       6       1       1       1       1       1       6       6
       1       1       1       6       1       1       1       1      16       6
       6       6       6       6      16       6       6       1       6       6
       6       6       6       1       6       6       1       1       6       1
       1       6       1       1       6       1       1       6       6       1
       1       6       6       6       1       1       6       1       6       1
       6       1       1       6       1       1       6       1       1       1
       1       1       6       6       1       1       1       6       1       1
       1       1      16       6       6       6       6       6      16       6
       6       1       6       6       6       6       6       1       6       6
       1       1       6       1       1       6       1       1       6       1
       1       6       6       1       1       6       6       6       1       1
       6       1       6       1       6       1       1       6       1       1
       6       1       1       1       1       1       6       6       1       1
       1       6       1       1       1       1      16       6       6       6
       6       6      16       6       6       1       6       6       6       6
       6       1       6       6       1       1       6       1       1       6
       1       1       6       1       1       6       6       1       1       6
       6       6       1       1       6       1       6       1       6       1
       1       6       1       1       6       1       1       1       1       1
       6       6       1       1       1       6       1       1       1       1
      16       6       6       6       6       6      16       6       6       1
       6       6       6       6       6       1       6       6       1       1
       6       1       1       6       1       1       6       1       1       6
       6       1       1       6       6       6       1       1       6       1
       6       1       6       1       1       6       1       1       6       1
       1       1       1       1       6       6       1       1       1       6
       1       1       1       1      16       6       6       6       6       6
      16       6       6       1       6       6       6       6       6       1
       6       6       1       1       6       1       1       6       1       1
       6       1       1       6       6       1       1       6       6       6
       1       1       6       1       6       1       6       1       1       6
       1       1       6       1       1       1       1       1       6       6
       1       1       1       6       1       1       1       1      16       6
       6       6       6       6      16       6       6       1       6       6
       6       6       6       1       6       6       1       1       6       1
       1       6       1       1       6       1       1       6       6       1
       1       6       6       6       1       1       6       1       6       1
       6       1       1       6       1       1       6       1       1       1
       1       1       6       6       1       1       1       6       1       1
       1       1      16       6       6       6       6       6      16       6
       6       1       6       6       6       6       6       1       6       6
       1       1       6       1       1       6       1       1       6       1
       1       6       6       1       1       6       6       6       1       1
       6       1       6       1       6       1       1       6       1       1
       6       1       1       1       1       1       6       6       1       1
       1       6       1       1       1       1      16       6       6       6
       6       6      16       6       6       1       6       6       6       6
       6       1       6       6       1       1       6       1       1       6
       1       1       6       1       1       6       6       1       1       6
       6       6       1       1       6       1       6       1       6       1
       1       6       1       1       6       1       1       1       1       1
       6       6       1       1       1       6       1       1       1       1
      16       6       6       6       6       6      16       6       6       1
       6       6       6       6       6       1       6       6       1       1
       6       1       1       6       1       1       6       1       1       6
       6       1       1       6       6       6       1       1       6       1
       6       1       6       1       1       6       1       1       6       1
       1       1       1       1       6       6       1       1       1       6
       1       1       1       1      16       6       6       6       6       6
      16       6       6       1       6       6       6       6       6       1
       6       6       1       1       6       1       1       6       1       1
       6       1       1       6       6       1       1       6       6       6
       1       1       6       1       6       1       6       1       1       6
       1       1       6       1       1       1       1       1       6       6
       1       1       1       6       1       1       1       1      16       6
       6       6       6       6      16       6       6       1       6       6
       6       6       6       1       6       6       1       1       6       1
       1       6       1       1       6       1       1       6       6       1
       1       6       6       6       1       1       6       1       6       1
       6       1       1       6       1       1       6       1       1       1
       1       1       6       6       1       1       1       6       1       1
       1       1      16       6       6       6       6       6      16       6
       6       1       6       6       6       6       6       1       6       6
       1       1       6       1       1       6       1       1       6       1
       1       6       6       1       1       6       6       6       1       1
       6       1       6       1       6       1       1       6       1       1
       6       1       1       1       1       1       6       6       1       1
       1       6       1       1       1       1      16       6       6       6
       6       6      16       6       6       1       6       6       6       6
       6       1       6       6       1       1       6       1       1       6
       1       1       6       1       1       6       6       1       1       6
       6       6       1       1       6       1       6       1       6       1
       1       6       1       1       6       1       1       1       1       1
       6       6       1       1       1       6       1       1       1       1
      16       6       6       6       6       6      16       6       6       1
       6       6       6       6       6       1       6       6       1       1
       6       1       1       6       1       1       6       1       1       6
       6       1       1       6       6       6       1       1       6       1
       6       1       6       1       1       6       1       1       6       1
       1       1       1       1       6       6       1       1       1       6
       1       1       1       1      16       6       6       6       6       6
      16       6       6       1       6       6       6       6       6       1
       6       6       1       1       6       1       1       6       1       1
       6       1       1       6       6       1       1       6       6       6
       1       1       6       1       6       1       6       1       1       6
       1       1       6       1       1       1       1       1       6       6
       1       1       1       6       1       1       1       1      16       6
       6       6       6       6      16       6       6       1       6       6
       6       6       6       1       6       6       1       1       6       1
       1       6       1       1       6       1       1       6       6       1
       1       6       6       6       1       1       6       1       6       1
       6       1       1       6       1       1       6       1       1       1
       1       1       6       6       1       1       1       6       1       1
       1       1      16       6       6       6       6       6      16       6
       6       1       6       6       6       6       6       1       6       6
       1       1       6       1       1       6       1       1       6       1
       1       6       6       1       1       6       6       6       1       1
       6       1       6       1       6       1       1       6       1       1
       6       1       1       1       1       1       6       6       1       1
       1       6       1       1       1       1      16       6       6       6
       6       6      16       6       6       1       6       6       6       6
       6       1       6       6       1       1       6       1       1       6
       1       1       6       1       1       6       6       1       1       6
       6       6       1       1       6       1       6       1       6       1
       1       6       1       1       6       1       1       1       1       1
       6       6       1       1       1       6       1       1       1       1
      16       6       6       6       6       6      16       6       6       1
       6       6       6       6       6       1       6       6       1       1
       6       1       1       6       1       1       6       1       1       6
       6       1       1       6       6       6       1       1       6       1
       6       1       6       1       1       6       1       1       6       1
       1       1       1       1       6       6       1       1       1       6
       1       1       1       1      16       6       6       6       6       6
      16       6       6       1       6       6       6       6       6       1
       6       6       1       1       6       1       1       6       1       1
       6       1       1       6       6       1       1       6       6       6
       1       1       6       1       6       1       6       1       1       6
       1       1       6       1       1       1       1       1       6       6
       1       1       1       6       1       1       1       1      16       6
       6       6       6       6      16       6       6       1       6       6
       6       6       6       1       6       6       1       1       6       1
       1       6       1       1       6       1       1       6       6       1
       1       6       6       6       1       1       6       1       6       1
       6       1       1       6       1       1       6       1       1       1
       1       1       6       6       1       1       1       6       1       1
       1       1      16       6       6       6       6       6      16       6
       6       1       6       6       6       6       6       1       6       6
       1       1       6       1       1       6       1       1       6       1
       1       6       6       1       1       6       6       6       1       1
       6       1       6       1       6       1       1       6       1       1
       6       1       1       1       1       1       6       6       1       1
       1       6       1       1       1       1      16       6       6       6
       6       6      16       6       6       1       6       6       6       6
       6       1       6       6       1       1       6       1       1       6
       1       1       6       1       1       6       6       1       1       6
       6       6       1       1       6       1       6       1       6       1
       1       6       1       1       6       1       1       1       1       1
       6       6       1       1       1       6       1       1       1       1
      16       6       6       6       6       6      16       6       6       1
       6       6       6       6       6       1       6       6       1       1
       6       1       1       6       1       1       6       1       1       6
       6       1       1       6       6       6       1       1       6       1
       6       1       6       1       1       6       1       1       6       1
       1       1       1       1       6       6       1       1       1       6
       1       1       1       1      16       6       6       6       6       6
      16       6       6       1       6       6       6       6       6       1
       6       6       1       1       6       1       1       6       1       1
       6       1       1       6       6       1       1       6       6       6
       1       1       6       1       6       1       6       1       1       6
       1       1       6       1       1       1       1       1       6       6
       1       1       1       6       1       1       1       1      16       6
       6       6       6       6      16       6       6       1       6       6
       6       6       6       1       6       6       1       1       6       1
       1       6       1       1       6       1       1       6       6       1
       1       6       6       6       1       1       6       1       6       1
       6       1       1       6       1       1       6       1       1       1
       1       1       6       6       1       1       1       6       1       1
       1       1      16       6       6       6       6       6      16       6
       6       1       6       6       6       6       6       1       6       6
       1       1       6       1       1       6       1       1       6       1
       1       6       6       1       1       6       6       6       1       1
       6       1       6       1       6       1       1       6       1       1
       6       1       1       1       1       1       6       6       1       1
       1       6       1       1       1       1      16       6       6       6
       6       6      16       6       6       1       6       6       6       6
       6       1       6       6       1       1       6       1       1       6
       1       1       6       1       1       6       6       1       1       6
       6       6       1       1       6       1       6       1       6       1
       1       6       1       1       6       1       1       1       1       1
       6       6       1       1       1       6       1       1       1       1
      16       6       6       6       6       6      16       6       6       1
       6       6       6       6       6       1       6       6       1       1
       6       1       1       6       1       1       6       1       1       6
       6       1       1       6       6       6       1       1       6       1
       6       1       6       1       1       6       1       1       6       1
       1       1       1       1       6       6       1       1       1       6
       1       1       1       1      16       6       6       6       6       6
      16       6       6       1       6       6       6       6       6       1
       6       6       1       1       6       1       1       6       1       1
       6       1       1       6       6       1       1       6       6       6
       1       1       6       1       6       1       6       1       1       6
       1       1       6       1       1       1       1       1       6       6
       1       1       1       6       1       1       1       1      16       6
       6       6       6       6      16       6       6       1       6       6
       6       6       6       1       6       6       1       1       6       1
       1       6       1       1       6       1       1       6       6       1
       1       6       6       6       1       1       6       1       6       1
       6       1       1       6       1       1       6       1       1       1
       1       1       6       6       1       1       1       6       1       1
       1       1      16       6       6       6       6       6      16       6
       6       1       6       6       6       6       6       1       6       6
       1       1       6       1       1       6       1       1       6       1
       1       6       6       1       1       6       6       6       1       1
       6       1       6       1       6       1       1       6       1       1
       6       1       1       1       1       1       6       6       1       1
       1       6       1       1       1       1      16       6       6       6
       6       6      16       6       6       1       6       6       6       6
       6       1       6       6       1       1       6       1       1       6
       1       1       6       1       1       6       6       1       1       6
       6       6       1       1       6       1       6       1       6       1
       1       6       1       1       6       1       1       1       1       1
       6       6       1       1       1       6       1       1       1       1
      16       6       6       6       6       6      16       6       6       1
       6       6       6       6       6       1       6       6       1       1
       6       1       1       6       1       1       6       1       1       6
       6       1       1       6       6       6       1       1       6       1
       6       1       6       1       1       6       1       1       6       1
       1       1       1       1       6       6       1       1       1       6
       1       1       1       1      16       6       6       6       6       6
      16       6       6       1       6       6       6       6       6       1
       6       6       1       1       6       1       1       6       1       1
       6       1       1       6       6       1       1       6       6       6
       1       1       6       1       6       1       6       1       1       6
       1       1       6       1       1       1       1       1       6       6
       1       1       1       6       1       1       1       1      16       6
       6       6       6       6      16       6       6       1       6       6
       6       6       6       1       6       6       1       1       6       1
       1       6       1       1       6       1       1       6       6       1
       1       6       6       6       1       1       6       1       6       1
       6       1       1       6       1       1       6       1       1       1
       1       1       6       6       1       1       1       6       1       1
       1       1      16       6       6       6       6       6      16       6
       6       1       6       6       6       6       6       1       6       6
       1       1       6       1       1       6       1       1       6       1
       1       6       6       1       1       6       6       6       1       1
       6       1       6       1       6       1       1       6       1       1
       6       1       1       1       1       1       6       6       1       1
       1       6       1       1       1       1      16       6       6       6
       6       6      16       6       6       1       6       6       6       6
       6       1       6       6       1       1       6       1       1       6
       1       1       6       1       1       6       6       1       1       6
       6       6       1       1       6       1       6       1       6       1
       1       6       1       1       6       1       1       1       1       1
       6       6       1       1       1       6       1       1       1       1
      16       6       6       6       6       6      16       6       6       1
       6       6       6       6       6       1       6       6       1       1
       6       1       1       6       1       1       6       1       1       6
       6       1       1       6       6       6       1       1       6       1
       6       1       6       1       1       6       1       1       6       1
       1       1       1       1       6       6       1       1       1       6
       1       1       1       1      16       6       6       6       6       6
      16       6       6       1       6       6       6       6       6       1
       6       6       1       1       6       1       1       6       1       1
       6       1       1       6       6       1       1       6       6       6
       1       1       6       1       6       1       6       1       1       6
       1       1       6       1       1       1       1       1       6       6
       1       1       1       6       1       1       1       1      16       6
       6       6       6       6      16       6       6       1       6       6
       6       6       6       1       6       6       1       1       6       1
       1       6       1       1       6       1       1       6       6       1
       1       6       6       6       1       1       6       1       6       1
       6       1       1       6       1       1       6       1       1       1
       1       1       6       6       1       1       1       6       1       1
       1       1      16       6       6       6       6       6      16       6
       6       1       6       6       6       6       6       1       6       6
       1       1       6       1       1       6       1       1       6       1
       1       6       6       1       1       6       6       6       1       1
       6       1       6       1       6       1       1       6       1       1
       6       1       1       1       1       1       6       6       1       1
       1       6       1       1       1       1      16       6       6       6
       6       6      16       6       6       1       6       6       6       6
       6       1       6       6       1       1       6       1       1       6
       1       1       6       1       1       6       6       1       1       6
       6       6       1       1       6       1       6       1       6       1
       1       6       1       1       6       1       1       1       1       1
       6       6       1       1       1       6       1       1       1       1
      16       6       6       6       6       6      16       6       6       1
       6       6       6       6       6       1       6       6       1       1
       6       1       1       6       1       1       6       1       1       6
       6       1       1       6       6       6       1       1       6       1
       6       1       6       1       1       6       1       1       6       1
       1       1       1       1       6       6       1       1       1       6
       1       1       1       1      16       6       6       6       6       6
      16       6       6       1       6       6       6       6       6       1
       6       6       1       1       6       1       1       6       1       1
       6       1       1       6       6       1       1       6       6       6
       1       1       6       1       6       1       6       1       1       6
       1       1       6       1       1       1       1       1       6       6
       1       1       1       6       1       1       1       1      16       6
       6       6       6       6      16       6       6       1       6       6
       6       6       6       1       6       6       1       1       6       1
       1       6       1       1       6       1       1       6       6       1
       1       6       6       6       1       1       6       1       6       1
       6       1       1       6       1       1       6       1       1       1
       1       1       6       6       1       1       1       6       1       1
       1       1      16       6       6       6       6       6      16       6
       6       1       6       6       6       6       6       1       6       6
       1       1       6       1       1       6       1       1       6       1
       1       6       6       1       1       6       6       6       1       1
       6       1       6       1       6       1       1       6       1       1
       6       1       1       1       1       1       6       6       1       1
       1       6       1       1       1       1      16       6       6       6
       6       6      16       6       6       1       6       6       6       6
       6       1       6       6       1       1       6       1       1       6
       1       1       6       1       1       6       6       1       1       6
       6       6       1       1       6       1       6       1       6       1
       1       6       1       1       6       1       1       1       1       1
       6       6       1       1       1       6       1       1       1       1
      16       6       6       6       6       6      16       6       6       1
       6       6       6       6       6       1       6       6       1       1
       6       1       1       6       1       1       6       1       1       6
       6       1       1       6       6       6       1       1       6       1
       6       1       6       1       1       6       1       1       6       1
       1       1       1       1       6       6       1       1       1       6
       1       1       1       1      16       6       6       6       6       6
      16       6       6       1       6       6       6       6       6       1
       6       6       1       1       6       1       1       6       1       1
       6       1       1       6       6       1       1       6       6       6
       1       1       6       1       6       1       6       1       1       6
       1       1       6       1       1       1       1       1       6       6
       1       1       1       6       1       1       1       1      16       6
       6       6       6       6      16       6       6       1       6       6
       6       6       6       1       6       6       1       1       6       1
       1       6       1       1       6       1       1       6       6       1
       1       6       6       6       1       1       6       1       6       1
       6       1       1       6       1       1       6       1       1       1
       1       1       6       6       1       1       1       6       1       1
       1       1      16       6       6       6       6       6      16       6
       6       1       6       6       6       6       6       1       6       6
       1       1       6       1       1       6       1       1       6       1
       1       6       6       1       1       6       6       6       1       1
       6       1       6       1       6       1       1       6       1       1
       6       1       1       1       1       1       6       6       1       1
       1       6       1       1       1       1      16       6       6       6
       6       6      16       6       6       1       6       6       6       6
       6       1       6       6       1       1       6       1       1       6
       1       1       6       1       1       6       6       1       1       6
       6       6       1       1       6       1       6       1       6       1
       1       6       1       1       6       1       1       1       1       1
       6       6       1       1       1       6       1       1       1       1
      16       6       6       6       6       6      16       6       6       1
       6       6       6       6       6       1       6       6       1       1
       6       1       1       6       1       1       6       1       1       6
       6       1       1       6       6       6       1       1       6       1
       6       1       6       1       1       6       1       1       6       1
       1       1       1       1       6       6       1       1       1       6
       1       1       1       1      16       6       6       6       6       6
      16       6       6       1       6       6       6       6       6       1
       6       6       1       1       6       1       1       6       1       1
       6       1       1       6       6       1       1       6       6       6
       1       1       6       1       6       1       6       1       1       6
       1       1       6       1       1       1       1       1       6       6
       1       1       1       6       1       1       1       1      16       6
       6       6       6       6      16       6       6       1       6       6
       6       6       6       1       6       6       1       1       6       1
       1       6       1       1       6       1       1       6       6       1
       1       6       6       6       1       1       6       1       6       1
       6       1       1       6       1       1       6       1       1       1
       1       1       6       6       1       1       1       6       1       1
       1       1      16       6       6       6       6       6      16       6
       6       1       6       6       6       6       6       1       6       6
       1       1       6       1       1       6       1       1       6       1
       1       6       6       1       1       6       6       6       1       1
       6       1       6       1       6       1       1       6       1       1
       6       1       1       1       1       1       6       6       1       1
       1       6       1       1       1       1      16       6       6       6
       6       6      16       6       6       1       6       6       6       6
       6       1       6       6       1       1       6       1       1       6
       1       1       6       1       1       6       6       1       1       6
       6       6       1       1       6       1       6       1       6       1
       1       6       1       1       6       1       1       1       1       1
       6       6       1       1       1       6       1       1       1       1
      16       6       6       6       6       6      16       6       6       1
       6       6       6       6       6       1       6       6       1       1
       6       1       1       6       1       1       6       1       1       6
       6       1       1       6       6       6       1       1       6       1
       6       1       6       1       1       6       1       1       6       1
       1       1       1       1       6       6       1       1       1       6
       1       1       1       1      16       6       6       6       6       6
      16       6       6       1       6       6       6       6       6       1
       6       6       1       1       6       1       1       6       1       1
       6       1       1       6       6       1       1       6       6       6
       1       1       6       1       6       1       6       1       1       6
       1       1       6       1       1       1       1       1       6       6
       1       1       1       6       1       1       1       1      16       6
       6       6       6       6      16       6       6       1       6       6
       6       6       6       1       6       6       1       1       6       1
       1       6       1       1       6       1       1       6       6       1
       1       6       6       6       1       1       6       1       6       1
       6       1       1       6       1       1       6       1       1       1
       1       1       6       6       1       1       1       6       1       1
       1       1      16       6       6       6       6       6      16       6
       6       1       6       6       6       6       6       1       6       6
       1       1       6       1       1       6       1       1       6       1
       1       6       6       1       1       6       6       6       1       1
       6       1       6       1       6       1       1       6       1       1
       6       1       1       1       1       1       6       6       1       1
       1       6       1       1       1       1      16       6       6       6
       6       6      16       6       6       1       6       6       6       6
       6       1       6       6       1       1       6       1       1       6
       1       1       6       1       1       6       6       1       1       6
       6       6       1       1       6       1       6       1       6       1
       1       6       1       1       6       1       1       1       1       1
       6       6       1       1       1       6       1       1       1       1
      16       6       6       6       6       6      16       6       6       1
       6       6       6       6       6       1       6       6       1       1
       6       1       1       6       1       1       6       1       1       6
       6       1       1       6       6       6       1       1       6       1
       6       1       6       1       1       6       1       1       6       1
       1       1       1       1       6       6       1       1       1       6
       1       1       1       1      16       6       6       6       6       6
      16       6       6       1       6       6       6       6       6       1
       6       6       1       1       6       1       1       6       1       1
       6       1       1       6       6       1       1       6       6       6
       1       1       6       1       6       1       6       1       1       6
       1       1       6       1       1       1       1       1       6       6
       1       1       1       6       1       1       1       1      16       6
       6       6       6       6      16       6       6       1       6       6
       6       6       6       1       6       6       1       1       6       1
       1       6       1       1       6       1       1       6       6       1
       1       6       6       6       1       1       6       1       6       1
       6       1       1       6       1       1       6       1       1       1
       1       1       6       6       1       1       1       6       1       1
       1       1      16       6       6       6       6       6      16       6
       6       1       6       6       6       6       6       1       6       6
       1       1       6       1       1       6       1       1       6       1
       1       6       6       1       1       6       6       6       1       1
       6       1       6       1       6       1       1       6       1       1
       6       1       1       1       1       1       6       6       1       1
       1       6       1       1       1       1      16       6       6       6
       6       6      16       6       6       1       6       6       6       6
       6       1       6       6       1       1       6       1       1       6
       1       1       6       1       1       6       6       1       1       6
       6       6       1       1       6       1       6       1       6       1
       1       6       1       1       6       1       1       1       1       1
       6       6       1       1       1       6       1       1       1       1
      16       6       6       6       6       6      16       6       6       1
       6       6       6       6       6       1       6       6       1       1
       6       1       1       6       1       1       6       1       1       6
       6       1       1       6       6       6       1       1       6       1
       6       1       6       1       1       6       1       1       6       1
       1       1       1       1       6       6       1       1       1       6
       1       1       1       1      16       6       6       6       6       6
      16       6       6       1       6       6       6       6       6       1
       6       6       1       1       6       1       1       6       1       1
       6       1       1       6       6       1       1       6       6       6
       1       1       6       1       6       1       6       1       1       6
       1       1       6       1       1       1       1       1       6       6
       1       1       1       6       1       1       1       1      16       6
       6       6       6       6      16       6       6       1       6       6
       6       6       6       1       6       6       1       1       6       1
       1       6       1       1       6       1       1       6       6       1
       1       6       6       6       1       1       6       1       6       1
       6       1       1       6       1       1       6       1       1       1
       1       1       6       6       1       1       1       6       1       1
       1       1      16       6       6       6       6       6      16       6
       6       1       6       6       6       6       6       1       6       6
       1       1       6       1       1       6       1       1       6       1
       1       6       6       1       1       6       6       6       1       1
       6       1       6       1       6       1       1       6       1       1
       6       1       1       1       1       1       6       6       1       1
       1       6       1       1       1       1      16       6       6       6
       6       6      16       6       6       1       6       6       6       6
       6       1       6       6       1       1       6       1       1       6
       1       1       6       1       1       6       6       1       1       6
       6       6       1       1       6       1       6       1       6       1
       1       6       1       1       6       1       1       1       1       1
       6       6       1       1       1       6       1       1       1       1
      16       6       6       6       6       6      16       6       6       1
       6       6       6       6       6       1       6       6       1       1
       6       1       1       6       1       1       6       1       1       6
       6       1       1       6       6       6       1       1       6       1
       6       1       6       1       1       6       1       1       6       1
       1       1       1       1       6       6       1       1       1       6
       1       1       1       1      16       6       6       6       6       6
      16       6       6       1       6       6       6       6       6       1
       6       6       1       1       6       1       1       6       1       1
       6       1       1       6       6       1       1       6       6       6
       1       1       6       1       6       1       6       1       1       6
       1       1       6       1       1       1       1       1       6       6
       1       1       1       6       1       1       1       1      16       6
       6       6       6       6      16       6       6       1       6       6
       6       6       6       1       6       6       1       1       6       1
       1       6       1       1       6       1       1       6       6       1
       1       6       6       6       1       1       6       1       6       1
       6       1       1       6       1       1       6       1       1       1
       1       1       6       6       1       1       1       6       1       1
       1       1      16       6       6       6       6       6      16       6
       6       1       6       6       6       6       6       1       6       6
       1       1       6       1       1       6       1       1       6       1
       1       6       6       1       1       6       6       6       1       1
       6       1       6       1       6       1       1       6       1       1
       6       1       1       1       1       1       6       6       1       1
       1       6       1       1       1       1      16       6       6       6
       6       6      16       6       6       1       6       6       6       6
       6       1       6       6       1       1       6       1       1       6
       1       1       6       1       1       6       6       1       1       6
       6       6       1       1       6       1       6       1       6       1
       1       6       1       1       6       1       1       1       1       1
       6       6       1       1       1       6       1       1       1       1
      16       6       6       6       6       6      16       6       6       1
       6       6       6       6       6       1       6       6       1       1
       6       1       1       6       1       1       6       1       1       6
       6       1       1       6       6       6       1       1       6       1
       6       1       6       1       1       6       1       1       6       1
       1       1       1       1       6       6       1       1       1       6
       1       1       1       1      16       6       6       6       6       6
      16       6       6       1       6       6       6       6       6       1
       6       6       1       1       6       1       1       6       1       1
       6       1       1       6       6       1       1       6       6       6
       1       1       6       1       6       1       6       1       1       6
       1       1       6       1       1       1       1       1       6       6
       1       1       1       6       1       1       1       1      16       6
       6       6       6       6      16       6       6       1       6       6
       6       6       6       1       6       6       1       1       6       1
       1       6       1       1       6       1       1       6       6       1
       1       6       6       6       1       1       6       1       6       1
       6       1       1       6       1       1       6       1       1       1
       1       1       6       6       1       1       1       6       1       1
       1       1      16       6       6       6       6       6      16       6
       6       1       6       6       6       6       6       1       6       6
       1       1       6       1       1       6       1       1       6       1
       1       6       6       1       1       6       6       6       1       1
       6       1       6       1       6       1       1       6       1       1
       6       1       1       1       1       1       6       6       1       1
       1       6       1       1       1       1      16       6       6       6
       6       6      16       6       6       1       6       6       6       6
       6       1       6       6       1       1       6       1       1       6
       1       1       6       1       1       6       6       1       1       6
       6       6       1       1       6       1       6       1       6       1
       1       6       1       1       6       1       1       1       1       1
       6       6       1       1       1       6       1       1       1       1
      16       6       6       6       6       6      16       6       6       1
       6       6       6       6       6       1       6       6       1       1
       6       1       1       6       1       1       6       1       1       6
       6       1       1       6       6       6       1       1       6       1
       6       1       6       1       1       6       1       1       6       1
       1       1       1       1       6       6       1       1       1       6
       1       1       1       1      16       6       6       6       6       6
      16       6       6       1       6       6       6       6       6       1
       6       6       1       1       6       1       1       6       1       1
       6       1       1       6       6       1       1       6       6       6
       1       1       6       1       6       1       6       1       1       6
       1       1       6       1       1       1       1       1       6       6
       1       1       1       6       1       1       1       1      16       6
       6       6       6       6      16       6       6       1       6       6
       6       6       6       1       6       6       1       1       6       1
       1       6       1       1       6       1       1       6       6       1
       1       6       6       6       1       1       6       1       6       1
       6       1       1       6       1       1       6       1       1       1
       1       1       6       6       1       1       1       6       1       1
       1       1      16       6       6       6       6       6      16       6
       6       1       6       6       6       6       6       1       6       6
       1       1       6       1       1       6       1       1       6       1
       1       6       6       1       1       6       6       6       1       1
       6       1       6       1       6       1       1       6       1       1
       6       1       1       1       1       1       6       6       1       1
       1       6       1       1       1       1      16       6       6       6
       6       6      16       6       6       1       6       6       6       6
       6       1       6       6       1       1       6       1       1       6
       1       1       6       1       1       6       6       1       1       6
       6       6       1       1       6       1       6       1       6       1
       1       6       1       1       6       1       1       1       1       1
       6       6       1       1       1       6       1       1       1       1
      16       6       6       6       6       6      16       6       6       1
       6       6       6       6       6       1       6       6       1       1
       6       1       1       6       1       1       6       1       1       6
       6       1       1       6       6       6       1       1       6       1
       6       1       6       1       1       6       1       1       6       1
       1       1       1       1       6       6       1       1       1       6
       1       1       1       1      16       6       6       6       6       6
      16       6       6       1       6       6       6       6       6       1
       6       6       1       1       6       1       1       6       1       1
       6       1       1       6       6       1       1       6       6       6
       1       1       6       1       6       1       6       1       1       6
       1       1       6       1       1       1       1       1       6       6
       1       1       1       6       1       1       1       1      16       6
       6       6       6       6      16       6       6       1       6       6
       6       6       6       1       6       6       1       1       6       1
       1       6       1       1       6       1       1       6       6       1
       1       6       6       6       1       1       6       1       6       1
       6       1       1       6       1       1       6       1       1       1
       1       1       6       6       1       1       1       6       1       1
       1       1      16       6       6       6       6       6      16       6
       6       1       6       6       6       6       6       1       6       6
       1       1       6       1       1       6       1       1       6       1
       1       6       6       1       1       6       6       6       1       1
       6       1       6       1       6       1       1       6       1       1
       6       1       1       1       1       1       6       6       1       1
       1       6       1       1       1       1      16       6       6       6
       6       6      16       6       6       1       6       6       6       6
       6       1       6       6       1       1       6       1       1       6
       1       1       6       1       1       6       6       1       1       6
       6       6       1       1       6       1       6       1       6       1
       1       6       1       1       6       1       1       1       1       1
       6       6       1       1       1       6       1       1       1       1
      16       6       6       6       6       6      16       6       6       1
       6       6       6       6       6       1       6       6       1       1
       6       1       1       6       1       1       6       1       1       6
       6       1       1       6       6       6       1       1       6       1
       6       1       6       1       1       6       1       1       6       1
       1       1       1       1       6       6       1       1       1       6
       1       1       1       1      16       6       6       6       6       6
      16       6       6       1       6       6       6       6       6       1
       6       6       1       1       6       1       1       6       1       1
       6       1       1       6       6       1       1       6       6       6
       1       1       6       1       6       1       6       1       1       6
       1       1       6       1       1       1       1       1       6       6
       1       1       1       6       1       1       1       1      16       6
       6       6       6       6      16       6       6       1       6       6
       6       6       6       1       6       6       1       1       6       1
       1       6       1       1       6       1       1       6       6       1
       1       6       6       6       1       1       6       1       6       1
       6       1       1       6       1       1       6       1       1       1
       1       1       6       6       1       1       1       6       1       1
       1       1      16       6       6       6       6       6      16       6
       6       1       6       6       6       6       6       1       6       6
       1       1       6       1       1       6       1       1       6       1
       1       6       6       1       1       6       6       6       1       1
       6       1       6       1       6       1       1       6       1       1
       6       1       1       1       1       1       6       6       1       1
       1       6       1       1       1       1      16       6       6       6
       6       6      16       6       6       1       6       6       6       6
       6       1       6       6       1       1       6       1       1       6
       1       1       6       1       1       6       6       1       1       6
       6       6       1       1       6       1       6       1       6       1
       1       6       1       1       6       1       1       1       1       1
       6       6       1       1       1       6       1       1       1       1
      16       6       6       6       6       6      16       6       6       1
       6       6       6       6       6       1       6       6       1       1
       6       1       1       6       1       1       6       1       1       6
       6       1       1       6       6       6       1       1       6       1
       6       1       6       1       1       6       1       1       6       1
       1       1       1       1       6       6       1       1       1       6
       1       1       1       1      16       6       6       6       6       6
      16       6       6       1       6       6       6       6       6       1
       6       6       1       1       6       1       1       6       1       1
       6       1       1       6       6       1       1       6       6       6
       1       1       6       1       6       1       6       1       1       6
       1       1       6       1       1       1       1       1       6       6
       1       1       1       6       1       1       1       1      16       6
       6       6       6       6      16       6       6       1       6       6
       6       6       6       1       6       6       1       1       6       1
       1       6       1       1       6       1       1       6       6       1
       1       6       6       6       1       1       6       1       6       1
       6       1       1       6       1       1       6       1       1       1
       1       1       6       6       1       1       1       6       1       1
       1       1      16       6       6       6       6       6      16       6
       6       1       6       6       6       6       6       1       6       6
       1       1       6       1       1       6       1       1       6       1
       1       6       6       1       1       6       6       6       1       1
       6       1       6       1       6       1       1       6       1       1
       6       1       1       1       1       1       6       6       1       1
       1       6       1       1       1       1      16       6       6       6
       6       6      16       6       6       1       6       6       6       6
       6       1       6       6       1       1       6       1       1       6
       1       1       6       1       1       6       6       1       1       6
       6       6       1       1       6       1       6       1       6       1
       1       6       1       1       6       1       1       1       1       1
       6       6       1       1       1       6       1       1       1       1
      16       6       6       6       6       6      16       6       6       1
       6       6       6       6       6       1       6       6       1       1
       6       1       1       6       1       1       6       1       1       6
       6       1       1       6       6       6       1       1       6       1
       6       1       6       1       1       6       1       1       6       1
       1       1       1       1       6       6       1       1       1       6
       1       1       1       1      16       6       6       6       6       6
      16       6       6       1       6       6       6       6       6       1
       6       6       1       1       6       1       1       6       1       1
       6       1       1       6       6       1       1       6       6       6
       1       1       6       1       6       1       6       1       1       6
       1       1       6       1       1       1       1       1       6       6
       1       1       1       6       1       1       1       1      16       6
       6       6       6       6      16       6       6       1       6       6
       6       6       6       1       6       6       1       1       6       1
       1       6       1       1       6       1       1       6       6       1
       1       6       6       6       1       1       6       1       6       1
       6       1       1       6       1       1       6       1       1       1
       1       1       6       6       1       1       1       6       1       1
       1       1      16       6       6       6       6       6      16       6
       6       1       6       6       6       6       6       1       6       6
       1       1       6       1       1       6       1       1       6       1
       1       6       6       1       1       6       6       6       1       1
       6       1       6       1       6       1       1       6       1       1
       6       1       1       1       1       1       6       6       1       1
       1       6       1       1       1       1      16       6       6       6
       6       6      16       6       6       1       6       6       6       6
       6       1       6       6       1       1       6       1       1       6
       1       1       6       1       1       6       6       1       1       6
       6       6       1       1       6       1       6       1       6       1
       1       6       1       1       6       1       1       1       1       1
       6       6       1       1       1       6       1       1       1       1
      16       6       6       6       6       6      16       6       6       1
       6       6       6       6       6       1       6       6       1       1
       6       1       1       6       1       1       6       1       1       6
       6       1       1       6       6       6       1       1       6       1
       6       1       6       1       1       6       1       1       6       1
       1       1       1       1       6       6       1       1       1       6
       1       1       1       1      16       6       6       6       6       6
      16       6       6       1       6       6       6       6       6       1
       6       6       1       1       6       1       1       6       1       1
       6       1       1       6       6       1       1       6       6       6
       1       1       6       1       6       1       6       1       1       6
       1       1       6       1       1       1       1       1       6       6
       1       1       1       6       1       1       1       1      16       6
       6       6       6       6      16       6       6       1       6       6
       6       6       6       1       6       6       1       1       6       1
       1       6       1       1       6       1       1       6       6       1
       1       6       6       6       1       1       6       1       6       1
       6       1       1       6       1       1       6       1       1       1
       1       1       6       6       1       1       1       6       1       1
       1       1      16       6       6       6       6       6      16       6
       6       1       6       6       6       6       6       1       6       6
       1       1       6       1       1       6       1       1       6       1
       1       6       6       1       1       6       6       6       1       1
       6       1       6       1       6       1       1       6       1       1
       6       1       1       1       1       1       6       6       1       1
       1       6       1       1       1       1      16       6       6       6
       6       6      16       6       6       1       6       6       6       6
       6       1       6       6       1       1       6       1       1       6
       1       1       6       1       1       6       6       1       1       6
       6       6       1       1       6       1       6       1       6       1
       1       6       1       1       6       1       1       1       1       1
       6       6       1       1       1       6       1       1       1       1
      16       6       6       6       6       6      16       6       6       1
       6       6       6       6       6       1       6       6       1       1
       6       1       1       6       1       1       6       1       1       6
       6       1       1       6       6       6       1       1       6       1
       6       1       6       1       1       6       1       1       6       1
       1       1       1       1       6       6       1       1       1       6
       1       1       1       1      16       6       6       6       6       6
      16       6       6       1       6       6       6       6       6       1
       6       6       1       1       6       1       1       6       1       1
       6       1       1       6       6       1       1       6       6       6
       1       1       6       1       6       1       6       1       1       6
       1       1       6       1       1       1       1       1       6       6
       1       1       1       6       1       1       1       1      16       6
       6       6       6       6      16       6       6       1       6       6
       6       6       6       1       6       6       1       1       6       1
       1       6       1       1       6       1       1       6       6       1
       1       6       6       6       1       1       6       1       6       1
       6       1       1       6       1       1       6       1       1       1
       1       1       6       6       1       1       1       6       1       1
       1       1      16       6       6       6       6       6      16       6
       6       1       6       6       6       6       6       1       6       6
       1       1       6       1       1       6       1       1       6       1
       1       6       6       1       1       6       6       6       1       1
       6       1       6       1       6       1       1       6       1       1
       6       1       1       1       1       1       6       6       1       1
       1       6       1       1       1       1      16       6       6       6
       6       6      16       6       6       1       6       6       6       6
       6       1       6       6       1       1       6       1       1       6
       1       1       6       1       1       6       6       1       1       6
       6       6       1       1       6       1       6       1       6       1
       1       6       1       1       6       1       1       1       1       1
       6       6       1       1       1       6       1       1       1       1
      16       6       6       6       6       6      16       6       6       1
       6       6       6       6       6       1       6       6       1       1
       6       1       1       6       1       1       6       1       1       6
       6       1       1       6       6       6       1       1       6       1
       6       1       6       1       1       6       1       1       6       1
       1       1       1       1       6       6       1       1       1       6
       1       1       1       1      16       6       6       6       6       6
      16       6       6       1       6       6       6       6       6       1
       6       6       1       1       6       1       1       6       1       1
       6       1       1       6       6       1       1       6       6       6
       1       1       6       1       6       1       6       1       1       6
       1       1       6       1       1       1       1       1       6       6
       1       1       1       6       1       1       1       1      16       6
       6       6       6       6      16       6       6       1       6       6
       6       6       6       1       6       6       1       1       6       1
       1       6       1       1       6       1       1       6       6       1
       1       6       6       6       1       1       6       1       6       1
       6       1       1       6       1       1       6       1       1       1
       1       1       6       6       1       1       1       6       1       1
       1       1      16       6       6       6       6       6      16       6
       6       1       6       6       6       6       6       1       6       6
       1       1       6       1       1       6       1       1       6       1
       1       6       6       1       1       6       6       6       1       1
       6       1       6       1       6       1       1       6       1       1
       6       1       1       1       1       1       6       6       1       1
       1       6       1       1       1       1      16       6       6       6
       6       6      16       6       6       1       6       6       6       6
       6       1       6       6       1       1       6       1       1       6
       1       1       6       1       1       6       6       1       1       6
       6       6       1       1       6       1       6       1       6       1
       1       6       1       1       6       1       1       1       1       1
       6       6       1       1       1       6       1       1       1       1
      16       6       6       6       6       6      16       6       6       1
       6       6       6       6       6       1       6       6       1       1
       6       1       1       6       1       1       6       1       1       6
       6       1       1       6       6       6       1       1       6       1
       6       1       6       1       1       6       1       1       6       1
       1       1       1       1       6       6       1       1       1       6
       1       1       1       1      16       6       6       6       6       6
      16       6       6       1       6       6       6       6       6       1
       6       6       1       1       6       1       1       6       1       1
       6       1       1       6       6       1       1       6       6       6
       1       1       6       1       6       1       6       1       1       6
       1       1       6       1       1       1       1       1       6       6
       1       1       1       6       1       1       1       1      16       6
       6       6       6       6      16       6       6       1       6       6
       6       6       6       1       6       6       1       1       6       1
       1       6       1       1       6       1       1       6       6       1
       1       6       6       6       1       1       6       1       6       1
       6       1       1       6       1       1       6       1       1       1
       1       1       6       6       1       1       1       6       1       1
       1       1      16       6       6       6       6       6      16       6
       6       1       6       6       6       6       6       1       6       6
       1       1       6       1       1       6       1       1       6       1
       1       6       6       1       1       6       6       6       1       1
       6       1       6       1       6       1       1       6       1       1
       6       1       1       1       1       1       6       6       1       1
       1       6       1       1       1       1      16       6       6       6
       6       6      16       6       6       1       6       6       6       6
       6       1       6       6       1       1       6       1       1       6
       1       1       6       1       1       6       6       1       1       6
       6       6       1       1       6       1       6       1       6       1
       1       6       1       1       6       1       1       1       1       1
       6       6       1       1       1       6       1       1       1       1
      16       6       6       6       6       6      16       6       6       1
       6       6       6       6       6       1       6       6       1       1
       6       1       1       6       1       1       6       1       1       6
       6       1       1       6       6       6       1       1       6       1
       6       1       6       1       1       6       1       1       6       1
       1       1       1       1       6       6       1       1       1       6
       1       1       1       1      16       6       6       6       6       6
      16       6       6       1       6       6       6       6       6       1
       6       6       1       1       6       1       1       6       1       1
       6       1       1       6       6       1       1       6       6       6
       1       1       6       1       6       1       6       1       1       6
       1       1       6       1       1       1       1       1       6       6
       1       1       1       6       1       1       1       1      16       6
       6       6       6       6      16       6       6       1       6       6
       6       6       6       1       6       6       1       1       6       1
       1       6       1       1       6       1       1       6       6       1
       1       6       6       6       1       1       6       1       6       1
       6       1       1       6       1       1       6       1       1       1
       1       1       6       6       1       1       1       6       1       1
       1       1      16       6       6       6       6       6      16       6
       6       1       6       6       6       6       6       1       6       6
       1       1       6       1       1       6       1       1       6       1
       1       6       6       1       1       6       6       6       1       1
       6       1       6       1       6       1       1       6       1       1
       6       1       1       1       1       1       6       6       1       1
       1       6       1       1       1       1      16       6       6       6
       6       6      16       6       6       1       6       6       6       6
       6       1       6       6       1       1       6       1       1       6
       1       1       6       1       1       6       6       1       1       6
       6       6       1       1       6       1       6       1       6       1
       1       6       1       1       6       1       1       1       1       1
       6       6       1       1       1       6       1       1       1       1
      16       6       6       6       6       6      16       6       6       1
       6       6       6       6       6       1       6       6       1       1
       6       1       1       6       1       1       6       1       1       6
       6       1       1       6       6       6       1       1       6       1
       6       1       6       1       1       6       1       1       6       1
       1       1       1       1       6       6       1       1       1       6
       1       1       1       1      16       6       6       6       6       6
      16       6       6       1       6       6       6       6       6       1
       6       6       1       1       6       1       1       6       1       1
       6       1       1       6       6       1       1       6       6       6
       1       1       6       1       6       1       6       1       1       6
       1       1       6       1       1       1       1       1       6       6
       1       1       1       6       1       1       1       1      16       6
       6       6       6       6      16       6       6       1       6       6
       6       6       6       1       6       6       1       1       6       1
       1       6       1       1       6       1       1       6       6       1
       1       6       6       6       1       1       6       1       6       1
       6       1       1       6       1       1       6       1       1       1
       1       1       6       6       1       1       1       6       1       1
       1       1      16       6       6       6       6       6      16       6
       6       1       6       6       6       6       6       1       6       6
       1       1       6       1       1       6       1       1       6       1
       1       6       6       1       1       6       6       6       1       1
       6       1       6       1       6       1       1       6       1       1
       6       1       1       1       1       1       6       6       1       1
       1       6       1       1       1       1      16       6       6       6
       6       6      16       6       6       1       6       6       6       6
       6       1       6       6       1       1       6       1       1       6
       1       1       6       1       1       6       6       1       1       6
       6       6       1       1       6       1       6       1       6       1
       1       6       1       1       6       1       1       1       1       1
       6       6       1       1       1       6       1       1       1       1
      16       6       6       6       6       6      16       6       6       1
       6       6       6       6       6       1       6       6       1       1
       6       1       1       6       1       1       6       1       1       6
       6       1       1       6       6       6       1       1       6       1
       6       1       6       1       1       6       1       1       6       1
       1       1       1       1       6       6       1       1       1       6
       1       1       1       1      16       6       6       6       6       6
      16       6       6       1       6       6       6       6       6       1
       6       6       1       1       6       1       1       6       1       1
       6       1       1       6       6       1       1       6       6       6
       1       1       6       1       6       1       6       1       1       6
       1       1       6       1       1       1       1       1       6       6
       1       1       1       6       1       1       1       1      16       6
       6       6       6       6      16       6       6       1       6       6
       6       6       6       1       6       6       1       1       6       1
       1       6       1       1       6       1       1       6       6       1
       1       6       6       6       1       1       6       1       6       1
       6       1       1       6       1       1       6       1       1       1
       1       1       6       6       1       1       1       6       1       1
       1       1      16       6       6       6       6       6      16       6
       6       1       6       6       6       6       6       1       6       6
       1       1       6       1       1       6       1       1       6       1
       1       6       6       1       1       6       6       6       1       1
       6       1       6       1       6       1       1       6       1       1
       6       1       1       1       1       1       6       6       1       1
       1       6       1       1       1       1      16       6       6       6
       6       6      16       6       6       1       6       6       6       6
       6       1       6       6       1       1       6       1       1       6
       1       1       6       1       1       6       6       1       1       6
       6       6       1       1       6       1       6       1       6       1
       1       6       1       1       6       1       1       1       1       1
       6       6       1       1       1       6       1       1       1       1
      16       6       6       6       6       6      16       6       6       1
       6       6       6       6       6       1       6       6       1       1
       6       1       1       6       1       1       6       1       1       6
       6       1       1       6       6       6       1       1       6       1
       6       1       6       1       1       6       1       1       6       1
       1       1       1       1       6       6       1       1       1       6
       1       1       1       1      16       6       6       6       6       6
      16       6       6       1       6       6       6       6       6       1
       6       6       1       1       6       1       1       6       1       1
       6       1       1       6       6       1       1       6       6       6
       1       1       6       1       6       1       6       1       1       6
       1       1       6       1       1       1       1       1       6       6
       1       1       1       6       1       1       1       1      16       6
       6       6       6       6      16       6       6       1       6       6
       6       6       6       1       6       6       1       1       6       1
       1       6       1       1       6       1       1       6       6       1
       1       6       6       6       1       1       6       1       6       1
       6       1       1       6       1       1       6       1       1       1
       1       1       6       6       1       1       1       6       1       1
       1       1      16       6       6       6       6       6      16       6
       6       1       6       6       6       6       6       1       6       6
       1       1       6       1       1       6       1       1       6       1
       1       6       6       1       1       6       6       6       1       1
       6       1       6       1       6       1       1       6       1       1
       6       1       1       1       1       1       6       6       1       1
       1       6       1       1       1       1      16       6       6       6
       6       6      16       6       6       1       6       6       6       6
       6       1       6       6       1       1       6       1       1       6
       1       1       6       1       1       6       6       1       1       6
       6       6       1       1       6       1       6       1       6       1
       1       6       1       1       6       1       1       1       1       1
       6       6       1       1       1       6       1       1       1       1
      16       6       6       6       6       6      16       6       6       1
       6       6       6       6       6       1       6       6       1       1
       6       1       1       6       1       1       6       1       1       6
       6       1       1       6       6       6       1       1       6       1
       6       1       6       1       1       6       1       1       6       1
       1       1       1       1       6       6       1       1       1       6
       1       1       1       1      16       6       6       6       6       6
      16       6       6       1       6       6       6       6       6       1
       6       6       1       1       6       1       1       6       1       1
       6       1       1       6       6       1       1       6       6       6
       1       1       6       1       6       1       6       1       1       6
       1       1       6       1       1       1       1       1       6       6
       1       1       1       6       1       1       1       1      16       6
       6       6       6       6      16       6       6       1       6       6
       6       6       6       1       6       6       1       1       6       1
       1       6       1       1       6       1       1       6       6       1
       1       6       6       6       1       1       6       1       6       1
       6       1       1       6       1       1       6       1       1       1
       1       1       6       6       1       1       1       6       1       1
       1       1      16       6       6       6       6       6      16       6
       6       1       6       6       6       6       6       1       6       6
       1       1       6       1       1       6       1       1       6       1
       1       6       6       1       1       6       6       6       1       1
       6       1       6       1       6       1       1       6       1       1
       6       1       1       1       1       1       6       6       1       1
       1       6       1       1       1       1      16       6       6       6
       6       6      16       6       6       1       6       6       6       6
       6       1       6       6       1       1       6       1       1       6
       1       1       6       1       1       6       6       1       1       6
       6       6       1       1       6       1       6       1       6       1
       1       6       1       1       6       1       1       1       1       1
       6       6       1       1       1       6       1       1       1       1
      16       6       6       6       6       6      16       6       6       1
       6       6       6       6       6       1       6       6       1       1
       6       1       1       6       1       1       6       1       1       6
       6       1       1       6       6       6       1       1       6       1
       6       1       6       1       1       6       1       1       6       1
       1       1       1       1       6       6       1       1       1       6
       1       1       1       1      16       6       6       6       6       6
      16       6       6       1       6       6       6       6       6       1
       6       6       1       1       6       1       1       6       1       1
       6       1       1       6       6       1       1       6       6       6
       1       1       6       1       6       1       6       1       1       6
       1       1       6       1       1       1       1       1       6       6
       1       1       1       6       1       1       1       1      16       6
       6       6       6       6      16       6       6       1       6       6
       6       6       6       1       6       6       1       1       6       1
       1       6       1       1       6       1       1       6       6       1
       1       6       6       6       1       1       6       1       6       1
       6       1       1       6       1       1       6       1       1       1
       1       1       6       6       1       1       1       6       1       1
       1       1      16       6       6       6       6       6      16       6
       6       1       6       6       6       6       6       1       6       6
       1       1       6       1       1       6       1       1       6       1
       1       6       6       1       1       6       6       6       1       1
       6       1       6       1       6       1       1       6       1       1
       6       1       1       1       1       1       6       6       1       1
       1       6       1       1       1       1      16       6       6       6
       6       6      16       6       6       1       6       6       6       6
       6       1       6       6       1       1       6       1       1       6
       1       1       6       1       1       6       6       1       1       6
       6       6       1       1       6       1       6       1       6       1
       1       6       1       1       6       1       1       1       1       1
       6       6       1       1       1       6       1       1       1       1
      16       6       6       6       6       6      16       6       6       1
       6       6       6       6       6       1       6       6       1       1
       6       1       1       6       1       1       6       1       1       6
       6       1       1       6       6       6       1       1       6       1
       6       1       6       1       1       6       1       1       6       1
       1       1       1       1       6       6       1       1       1       6
       1       1       1       1      16       6       6       6       6       6
      16       6       6       1       6       6       6       6       6       1
       6       6       1       1       6       1       1       6       1       1
       6       1       1       6       6       1       1       6       6       6
       1       1       6       1       6       1       6       1       1       6
       1       1       6       1       1       1       1       1       6       6
       1       1       1       6       1       1       1       1      16       6
       6       6       6       6      16       6       6       1       6       6
       6       6       6       1       6       6       1       1       6       1
       1       6       1       1       6       1       1       6       6       1
       1       6       6       6       1       1       6       1       6       1
       6       1       1       6       1       1       6       1       1       1
       1       1       6       6       1       1       1       6       1       1
       1       1      16       6       6       6       6       6      16       6
       6       1       6       6       6       6       6       1       6       6
       1       1       6       1       1       6       1       1       6       1
       1       6       6       1       1       6       6       6       1       1
       6       1       6       1       6       1       1       6       1       1
       6       1       1       1       1       1       6       6       1       1
       1       6       1       1       1       1      16       6       6       6
       6       6      16       6       6       1       6       6       6       6
       6       1       6       6       1       1       6       1       1       6
       1       1       6       1       1       6       6       1       1       6
       6       6       1       1       6       1       6       1       6       1
       1       6       1       1       6       1       1       1       1       1
       6       6       1       1       1       6       1       1       1       1
      16       6       6       6       6       6      16       6       6       1
       6       6       6       6       6       1       6       6       1       1
       6       1       1       6       1       1       6       1       1       6
       6       1       1       6       6       6       1       1       6       1
       6       1       6       1       1       6       1       1       6       1
       1       1       1       1       6       6       1       1       1       6
       1       1       1       1      16       6       6       6       6       6
      16       6       6       1       6       6       6       6       6       1
       6       6       1       1       6       1       1       6       1       1
       6       1       1       6       6       1       1       6       6       6
       1       1       6       1       6       1       6       1       1       6
       1       1       6       1       1       1       1       1       6       6
       1       1       1       6       1       1       1       1      16       6
       6       6       6       6      16       6       6       1       6       6
       6       6       6       1       6       6       1       1       6       1
       1       6       1       1       6       1       1       6       6       1
       1       6       6       6       1       1       6       1       6       1
       6       1       1       6       1       1       6       1       1       1
       1       1       6       6       1       1       1       6       1       1
       1       1      16       6       6       6       6       6      16       6
       6       1       6       6       6       6       6       1       6       6
       1       1       6       1       1       6       1       1       6       1
       1       6       6       1       1       6       6       6       1       1
       6       1       6       1       6       1       1       6       1       1
       6       1       1       1       1       1       6       6       1       1
       1       6       1       1       1       1      16       6       6       6
       6       6      16       6       6       1       6       6       6       6
       6       1       6       6       1       1       6       1       1       6
       1       1       6       1       1       6       6       1       1       6
       6       6       1       1       6       1       6       1       6       1
       1       6       1       1       6       1       1       1       1       1
       6       6       1       1       1       6       1       1       1       1
      16       6       6       6       6       6      16       6       6       1
       6       6       6       6       6       1       6       6       1       1
       6       1       1       6       1       1       6       1       1       6
       6       1       1       6       6       6       1       1       6       1
       6       1       6       1       1       6       1       1       6       1
       1       1       1       1       6       6       1       1       1       6
       1       1       1       1      16       6       6       6       6       6
      16       6       6       1       6       6       6       6       6       1
       6       6       1       1       6       1       1       6       1       1
       6       1       1       6       6       1       1       6       6       6
       1       1       6       1       6       1       6       1       1       6
       1       1       6       1       1       1       1       1       6       6
       1       1       1       6       1       1       1       1      16       6
       6       6       6       6      16       6       6       1       6       6
       6       6       6       1       6       6       1       1       6       1
       1       6       1       1       6       1       1       6       6       1
       1       6       6       6       1       1       6       1       6       1
       6       1       1       6       1       1       6       1       1       1
       1       1       6       6       1       1       1       6       1       1
       1       1      16       6       6       6       6       6      16       6
       6       1       6       6       6       6       6       1       6       6
       1       1       6       1       1       6       1       1       6       1
       1       6       6       1       1       6       6       6       1       1
       6       1       6       1       6       1       1       6       1       1
       6       1       1       1       1       1       6       6       1       1
       1       6       1       1       1       1      16       6       6       6
       6       6      16       6       6       1       6       6       6       6
       6       1       6       6       1       1       6       1       1       6
       1       1       6       1       1       6       6       1       1       6
       6       6       1       1       6       1       6       1       6       1
       1       6       1       1       6       1       1       1       1       1
       6       6       1       1       1       6       1       1       1       1
      16       6       6       6       6       6      16       6       6       1
       6       6       6       6       6       1       6       6       1       1
       6       1       1       6       1       1       6       1       1       6
       6       1       1       6       6       6       1       1       6       1
       6       1       6       1       1       6       1       1       6       1
       1       1       1       1       6       6       1       1       1       6
       1       1       1       1      16       6       6       6       6       6
      16       6       6       1       6       6       6       6       6       1
       6       6       1       1       6       1       1       6       1       1
       6       1       1       6       6       1       1       6       6       6
       1       1       6       1       6       1       6       1       1       6
       1       1       6       1       1       1       1       1       6       6
       1       1       1       6       1       1       1       1      16       6
       6       6       6       6      16       6       6       1       6       6
       6       6       6       1       6       6       1       1       6       1
       1       6       1       1       6       1       1       6       6       1
       1       6       6       6       1       1       6       1       6       1
       6       1       1       6       1       1       6       1       1       1
       1       1       6       6       1       1       1       6       1       1
       1       1      16       6       6       6       6       6      16       6
       6       1       6       6       6       6       6       1       6       6
       1       1       6       1       1       6       1       1       6       1
       1       6       6       1       1       6       6       6       1       1
       6       1       6       1       6       1       1       6       1       1
       6       1       1       1       1       1       6       6       1       1
       1       6       1       1       1       1      16       6       6       6
       6       6      16       6       6       1       6       6       6       6
       6       1       6       6       1       1       6       1       1       6
       1       1       6       1       1       6       6       1       1       6
       6       6       1       1       6       1       6       1       6       1
       1       6       1       1       6       1       1       1       1       1
       6       6       1       1       1       6       1       1       1       1
      16       6       6       6       6       6      16       6       6       1
       6       6       6       6       6       1       6       6       1       1
       6       1       1       6       1       1       6       1       1       6
       6       1       1       6       6       6       1       1       6       1
       6       1       6       1       1       6       1       1       6       1
       1       1       1       1       6       6       1       1       1       6
       1       1       1       1      16       6       6       6       6       6
      16       6       6       1       6       6       6       6       6       1
       6       6       1       1       6       1       1       6       1       1
       6       1       1       6       6       1       1       6       6       6
       1       1       6       1       6       1       6       1       1       6
       1       1       6       1       1       1       1       1       6       6
       1       1       1       6       1       1       1       1      16       6
       6       6       6       6      16       6       6       1       6       6
       6       6       6       1       6       6       1       1       6       1
       1       6       1       1       6       1       1       6       6       1
       1       6       6       6       1       1       6       1       6       1
       6       1       1       6       1       1       6       1       1       1
       1       1       6       6       1       1       1       6       1       1
       1       1      16       6       6       6       6       6      16       6
       6       1       6       6       6       6       6       1       6       6
       1       1       6       1       1       6       1       1       6       1
       1       6       6       1       1       6       6       6       1       1
       6       1       6       1       6       1       1       6       1       1
       6       1       1       1       1       1       6       6       1       1
       1       6       1       1       1       1      16       6       6       6
       6       6      16       6       6       1       6       6       6       6
       6       1       6       6       1       1       6       1       1       6
       1       1       6       1       1       6       6       1       1       6
       6       6       1       1       6       1       6       1       6       1
       1       6       1       1       6       1       1       1       1       1
       6       6       1       1       1       6       1       1       1       1
      16       6       6       6       6       6      16       6       6       1
       6       6       6       6       6       1       6       6       1       1
       6       1       1       6       1       1       6       1       1       6
       6       1       1       6       6       6       1       1       6       1
       6       1       6       1       1       6       1       1       6       1
       1       1       1       1       6       6       1       1       1       6
       1       1       1       1      16       6       6       6       6       6
      16       6       6       1       6       6       6       6       6       1
       6       6       1       1       6       1       1       6       1       1
       6       1       1       6       6       1       1       6       6       6
       1       1       6       1       6       1       6       1       1       6
       1       1       6       1       1       1       1       1       6       6
       1       1       1       6       1       1       1       1      16       6
       6       6       6       6      16       6       6       1       6       6
       6       6       6       1       6       6       1       1       6       1
       1       6       1       1       6       1       1       6       6       1
       1       6       6       6       1       1       6       1       6       1
       6       1       1       6       1       1       6       1       1       1
       1       1       6       6       1       1       1       6       1       1
       1       1      16       6       6       6       6       6      16       6
       6       1       6       6       6       6       6       1       6       6
       1       1       6       1       1       6       1       1       6       1
       1       6       6       1       1       6       6       6       1       1
       6       1       6       1       6       1       1       6       1       1
       6       1       1       1       1       1       6       6       1       1
       1       6       1       1       1       1      16       6       6       6
       6       6      16       6       6       1       6       6       6       6
       6       1       6       6       1       1       6       1       1       6
       1       1       6       1       1       6       6       1       1       6
       6       6       1       1       6       1       6       1       6       1
       1       6       1       1       6       1       1       1       1       1
       6       6       1       1       1       6       1       1       1       1
      16       6       6       6       6       6      16       6       6       1
       6       6       6       6       6       1       6       6       1       1
       6       1       1       6       1       1       6       1       1       6
       6       1       1       6       6       6       1       1       6       1
       6       1       6       1       1       6       1       1       6       1
       1       1       1       1       6       6       1       1       1       6
       1       1       1       1      16       6       6       6       6       6
      16       6       6       1       6       6       6       6       6       1
       6       6       1       1       6       1       1       6       1       1
       6       1       1       6       6       1       1       6       6       6
       1       1       6       1       6       1       6       1       1       6
       1       1       6       1       1       1       1       1       6       6
       1       1       1       6       1       1       1       1      16       6
       6       6       6       6      16       6       6       1       6       6
       6       6       6       1       6       6       1       1       6       1
       1       6       1       1       6       1       1       6       6       1
       1       6       6       6       1       1       6       1       6       1
       6       1       1       6       1       1       6       1       1       1
       1       1       6       6       1       1       1       6       1       1
       1       1      16       6       6       6       6       6      16       6
       6       1       6       6       6       6       6       1       6       6
       1       1       6       1       1       6       1       1       6       1
       1       6       6       1       1       6       6       6       1       1
       6       1       6       1       6       1       1       6       1       1
       6       1       1       1       1       1       6       6       1       1
       1       6       1       1       1       1      16       6       6       6
       6       6      16       6       6       1       6       6       6       6
       6       1       6       6       1       1       6       1       1       6
       1       1       6       1       1       6       6       1       1       6
       6       6       1       1       6       1       6       1       6       1
       1       6       1       1       6       1       1       1       1       1
       6       6       1       1       1       6       1       1       1       1
      16       6       6       6       6       6      16       6       6       1
       6       6       6       6       6       1       6       6       1       1
       6       1       1       6       1       1       6       1       1       6
       6       1       1       6       6       6       1       1       6       1
       6       1       6       1       1       6       1       1       6       1
       1       1       1       1       6       6       1       1       1       6
       1       1       1       1      16       6       6       6       6       6
      16       6       6       1       6       6       6       6       6       1
       6       6       1       1       6       1       1       6       1       1
       6       1       1       6       6       1       1       6       6       6
       1       1       6       1       6       1       6       1       1       6
       1       1       6       1       1       1       1       1       6       6
       1       1       1       6       1       1       1       1      16       6
       6       6       6       6      16       6       6       1       6       6
       6       6       6       1       6       6       1       1       6       1
       1       6       1       1       6       1       1       6       6       1
       1       6       6       6       1       1       6       1       6       1
       6       1       1       6       1       1       6       1       1       1
       1       1       6       6       1       1       1       6       1       1
       1       1      16       6       6       6       6       6      16       6
       6       1       6       6       6       6       6       1       6       6
       1       1       6       1       1       6       1       1       6       1
       1       6       6       1       1       6       6       6       1       1
       6       1       6       1       6       1       1       6       1       1
       6       1       1       1       1       1       6       6       1       1
       1       6       1       1       1       1      16       6       6       6
       6       6      16       6       6       1       6       6       6       6
       6       1       6       6       1       1       6       1       1       6
       1       1       6       1       1       6       6       1       1       6
       6       6       1       1       6       1       6       1       6       1
       1       6       1       1       6       1       1       1       1       1
       6       6       1       1       1       6       1       1       1       1
      16       6       6       6       6       6      16       6       6       1
       6       6       6       6       6       1       6       6       1       1
       6       1       1       6       1       1       6       1       1       6
       6       1       1       6       6       6       1       1       6       1
       6       1       6       1       1       6       1       1       6       1
       1       1       1       1       6       6       1       1       1       6
       1       1       1       1      16       6       6       6       6       6
      16       6       6       1       6       6       6       6       6       1
       6       6       1       1       6       1       1       6       1       1
       6       1       1       6       6       1       1       6       6       6
       1       1       6       1       6       1       6       1       1       6
       1       1       6       1       1       1       1       1       6       6
       1       1       1       6       1       1       1       1      16       6
       6       6       6       6      16       6       6       1       6       6
       6       6       6       1       6       6       1       1       6       1
       1       6       1       1       6       1       1       6       6       1
       1       6       6       6       1       1       6       1       6       1
       6       1       1       6       1       1       6       1       1       1
       1       1       6       6       1       1       1       6       1       1
       1       1      16       6       6       6       6       6      16       6
       6       1       6       6       6       6       6       1       6       6
       1       1       6       1       1       6       1       1       6       1
       1       6       6       1       1       6       6       6       1       1
       6       1       6       1       6       1       1       6       1       1
       6       1       1       1       1       1       6       6       1       1
       1       6       1       1       1       1      16       6       6       6
       6       6      16       6       6       1       6       6       6       6
       6       1       6       6       1       1       6       1       1       6
       1       1       6       1       1       6       6       1       1       6
       6       6       1       1       6       1       6       1       6       1
       1       6       1       1       6       1       1       1       1       1
       6       6       1       1       1       6       1       1       1       1
      16       6       6       6       6       6      16       6       6       1
       6       6       6       6       6       1       6       6       1       1
       6       1       1       6       1       1       6       1       1       6
       6       1       1       6       6       6       1       1       6       1
       6       1       6       1       1       6       1       1       6       1
       1       1       1       1       6       6       1       1       1       6
       1       1       1       1      16       6       6       6       6       6
      16       6       6       1       6       6       6       6       6       1
       6       6       1       1       6       1       1       6       1       1
       6       1       1       6       6       1       1       6       6       6
       1       1       6       1       6       1       6       1       1       6
       1       1       6       1       1       1       1       1       6       6
       1       1       1       6       1       1       1       1      16       6
       6       6       6       6      16       6       6       1       6       6
       6       6       6       1       6       6       1       1       6       1
       1       6       1       1       6       1       1       6       6       1
       1       6       6       6       1       1       6       1       6       1
       6       1       1       6       1       1       6       1       1       1
       1       1       6       6       1       1       1       6       1       1
       1       1      16       6       6       6       6       6      16       6
       6       1       6       6       6       6       6       1       6       6
       1       1       6       1       1       6       1       1       6       1
       1       6       6       1       1       6       6       6       1       1
       6       1       6       1       6       1       1       6       1       1
       6       1       1       1       1       1       6       6       1       1
       1       6       1       1       1       1      16       6       6       6
       6       6      16       6       6       1       6       6       6       6
       6       1       6       6       1       1       6       1       1       6
       1       1       6       1       1       6       6       1       1       6
       6       6       1       1       6       1       6       1       6       1
       1       6       1       1       6       1       1       1       1       1
       6       6       1       1       1       6       1       1       1       1
      16       6       6       6       6       6      16       6       6       1
       6       6       6       6       6       1       6       6       1       1
       6       1       1       6       1       1       6       1       1       6
       6       1       1       6       6       6       1       1       6       1
       6       1       6       1       1       6       1       1       6       1
       1       1       1       1       6       6       1       1       1       6
       1       1       1       1      16       6       6       6       6       6
      16       6       6       1       6       6       6       6       6       1
       6       6       1       1       6       1       1       6       1       1
       6       1       1       6       6       1       1       6       6       6
       1       1       6       1       6       1       6       1       1       6
       1       1       6       1       1       1       1       1       6       6
       1       1       1       6       1       1       1       1      16       6
       6       6       6       6      16       6       6       1       6       6
       6       6       6       1       6       6       1       1       6       1
       1       6       1       1       6       1       1       6       6       1
       1       6       6       6       1       1       6       1       6       1
       6       1       1       6       1       1       6       1       1       1
       1       1       6       6       1       1       1       6       1       1
       1       1      16       6       6       6       6       6      16       6
       6       1       6       6       6       6       6       1       6       6
       1       1       6       1       1       6       1       1       6       1
       1       6       6       1       1       6       6       6       1       1
       6       1       6       1       6       1       1       6       1       1
       6       1       1       1       1       1       6       6       1       1
       1       6       1       1       1       1      16       6       6       6
       6       6      16       6       6       1       6       6       6       6
       6       1       6       6       1       1       6       1       1       6
       1       1       6       1       1       6       6       1       1       6
       6       6       1       1       6       1       6       1       6       1
       1       6       1       1       6       1       1       1       1       1
       6       6       1       1       1       6       1       1       1       1
      16       6       6       6       6       6      16       6       6       1
       6       6       6       6       6       1       6       6       1       1
       6       1       1       6       1       1       6       1       1       6
       6       1       1       6       6       6       1       1       6       1
       6       1       6       1       1       6       1       1       6       1
       1       1       1       1       6       6       1       1       1       6
       1       1       1       1      16       6       6       6       6       6
      16       6       6       1       6       6       6       6       6       1
       6       6       1       1       6       1       1       6       1       1
       6       1       1       6       6       1       1       6       6       6
       1       1       6       1       6       1       6       1       1       6
       1       1       6       1       1       1       1       1       6       6
       1       1       1       6       1       1       1       1      16       6
       6       6       6       6      16       6       6       1       6       6
       6       6       6       1       6       6       1       1       6       1
       1       6       1       1       6       1       1       6       6       1
       1       6       6       6       1       1       6       1       6       1
       6       1       1       6       1       1       6       1       1       1
       1       1       6       6       1       1       1       6       1       1
       1       1      16       6       6       6       6       6      16       6
       6       1       6       6       6       6       6       1       6       6
       1       1       6       1       1       6       1       1       6       1
       1       6       6       1       1       6       6       6       1       1
       6       1       6       1       6       1       1       6       1       1
       6       1       1       1       1       1       6       6       1       1
       1       6       1       1       1       1      16       6       6       6
       6       6      16       6       6       1       6       6       6       6
       6       1       6       6       1       1       6       1       1       6
       1       1       6       1       1       6       6       1       1       6
       6       6       1       1       6       1       6       1       6       1
       1       6       1       1       6       1       1       1       1       1
       6       6       1       1       1       6       1       1       1       1
      16       6       6       6       6       6      16       6       6       1
       6       6       6       6       6       1       6       6       1       1
       6       1       1       6       1       1       6       1       1       6
       6       1       1       6       6       6       1       1       6       1
       6       1       6       1       1       6       1       1       6       1
       1       1       1       1       6       6       1       1       1       6
       1       1       1       1      16       6       6       6       6       6
      16       6       6       1       6       6       6       6       6       1
       6       6       1       1       6       1       1       6       1       1
       6       1       1       6       6       1       1       6       6       6
       1       1       6       1       6       1       6       1       1       6
       1       1       6       1       1       1       1       1       6       6
       1       1       1       6       1       1       1       1      16       6
       6       6       6       6      16       6       6       1       6       6
       6       6       6       1       6       6       1       1       6       1
       1       6       1       1       6       1       1       6       6       1
       1       6       6       6       1       1       6       1       6       1
       6       1       1       6       1       1       6       1       1       1
       1       1       6       6       1       1       1       6       1       1
       1       1      16       6       6       6       6       6      16       6
       6       1       6       6       6       6       6       1       6       6
       1       1       6       1       1       6       1       1       6       1
       1       6       6       1       1       6       6       6       1       1
       6       1       6       1       6       1       1       6       1       1
       6       1       1       1       1       1       6       6       1       1
       1       6       1       1       1       1      16       6       6       6
       6       6      16       6       6       1       6       6       6       6
       6       1       6       6       1       1       6       1       1       6
       1       1       6       1       1       6       6       1       1       6
       6       6       1       1       6       1       6       1       6       1
       1       6       1       1       6       1       1       1       1       1
       6       6       1       1       1       6       1       1       1       1
      16       6       6       6       6       6      16       6       6       1
       6       6       6       6       6       1       6       6       1       1
       6       1       1       6       1       1       6       1       1       6
       6       1       1       6       6       6       1       1       6       1
       6       1       6       1       1       6       1       1       6       1
       1       1       1       1       6       6       1       1       1       6
       1       1       1       1      16       6       6       6       6       6
      16       6       6       1       6       6       6       6       6       1
       6       6       1       1       6       1       1       6       1       1
       6       1       1       6       6       1       1       6       6       6
       1       1       6       1       6       1       6       1       1       6
       1       1       6       1       1       1       1       1       6       6
       1       1       1       6       1       1       1       1      16       6
       6       6       6       6      16       6       6       1       6       6
       6       6       6       1       6       6       1       1       6       1
       1       6       1       1       6       1       1       6       6       1
       1       6       6       6       1       1       6       1       6       1
       6       1       1       6       1       1       6       1       1       1
       1       1       6       6       1       1       1       6       1       1
       1       1      16       6       6       6       6       6      16       6
       6       1       6       6       6       6       6       1       6       6
       1       1       6       1       1       6       1       1       6       1
       1       6       6       1       1       6       6       6       1       1
       6       1       6       1       6       1       1       6       1       1
       6       1       1       1       1       1       6       6       1       1
       1       6       1       1       1       1      16       6       6       6
       6       6      16       6       6       1       6       6       6       6
       6       1       6       6       1       1       6       1       1       6
       1       1       6       1       1       6       6       1       1       6
       6       6       1       1       6       1       6       1       6       1
       1       6       1       1       6       1       1       1       1       1
       6       6       1       1       1       6       1       1       1       1
      16       6       6       6       6       6      16       6       6       1
       6       6       6       6       6       1       6       6       1       1
       6       1       1       6       1       1       6       1       1       6
       6       1       1       6       6       6       1       1       6       1
       6       1       6       1       1       6       1       1       6       1
       1       1       1       1       6       6       1       1       1       6
       1       1       1       1      16       6       6       6       6       6
      16       6       6       1       6       6       6       6       6       1
       6       6       1       1       6       1       1       6       1       1
       6       1       1       6       6       1       1       6       6       6
       1       1       6       1       6       1       6       1       1       6
       1       1       6       1       1       1       1       1       6       6
       1       1       1       6       1       1       1       1      16       6
       6       6       6       6      16       6       6       1       6       6
       6       6       6       1       6       6       1       1       6       1
       1       6       1       1       6       1       1       6       6       1
       1       6       6       6       1       1       6       1       6       1
       6       1       1       6       1       1       6       1       1       1
       1       1       6       6       1       1       1       6       1       1
       1       1      16       6       6       6       6       6      16       6
       6       1       6       6       6       6       6       1       6       6
       1       1       6       1       1       6       1       1       6       1
       1       6       6       1       1       6       6       6       1       1
       6       1       6       1       6       1       1       6       1       1
       6       1       1       1       1       1       6       6       1       1
       1       6       1       1       1       1      16       6       6       6
       6       6      16       6       6       1       6       6       6       6
       6       1       6       6       1       1       6       1       1       6
       1       1       6       1       1       6       6       1       1       6
       6       6       1       1       6       1       6       1       6       1
       1       6       1       1       6       1       1       1       1       1
       6       6       1       1       1       6       1       1       1       1
      16       6       6       6       6       6      16       6       6       1
       6       6       6       6       6       1       6       6       1       1
       6       1       1       6       1       1       6       1       1       6
       6       1       1       6       6       6       1       1       6       1
       6       1       6       1       1       6       1       1       6       1
       1       1       1       1       6       6       1       1       1       6
       1       1       1       1      16       6       6       6       6       6
      16       6       6       1       6       6       6       6       6       1
       6       6       1       1       6       1       1       6       1       1
       6       1       1       6       6       1       1       6       6       6
       1       1       6       1       6       1       6       1       1       6
       1       1       6       1       1       1       1       1       6       6
       1       1       1       6       1       1       1       1      16       6
       6       6       6       6      16       6       6       1       6       6
       6       6       6       1       6       6       1       1       6       1
       1       6       1       1       6       1       1       6       6       1
       1       6       6       6       1       1       6       1       6       1
       6       1       1       6       1       1       6       1       1       1
       1       1       6       6       1       1       1       6       1       1
       1       1      16       6       6       6       6       6      16       6
       6       1       6       6       6       6       6       1       6       6
       1       1       6       1       1       6       1       1       6       1
       1       6       6       1       1       6       6       6       1       1
       6       1       6       1       6       1       1       6       1       1
       6       1       1       1       1       1       6       6       1       1
       1       6       1       1       1       1      16       6       6       6
       6       6      16       6       6       1       6       6       6       6
       6       1       6       6       1       1       6       1       1       6
       1       1       6       1       1       6       6       1       1       6
       6       6       1       1       6       1       6       1       6       1
       1       6       1       1       6       1       1       1       1       1
       6       6       1       1       1       6       1       1       1       1
      16       6       6       6       6       6      16       6       6       1
       6       6       6       6       6       1       6       6       1       1
       6       1       1       6       1       1       6       1       1       6
       6       1       1       6       6       6       1       1       6       1
       6       1       6       1       1       6       1       1       6       1
       1       1       1       1       6       6       1       1       1       6
       1       1       1       1      16       6       6       6       6       6
      16       6       6       1       6       6       6       6       6       1
       6       6       1       1       6       1       1       6       1       1
       6       1       1       6       6       1       1       6       6       6
       1       1       6       1       6       1       6       1       1       6
       1       1       6       1       1       1       1       1       6       6
       1       1       1       6       1       1       1       1      16       6
       6       6       6       6      16       6       6       1       6       6
       6       6       6       1       6       6       1       1       6       1
       1       6       1       1       6       1       1       6       6       1
       1       6       6       6       1       1       6       1       6       1
       6       1       1       6       1       1       6       1       1       1
       1       1       6       6       1       1       1       6       1       1
       1       1      16       6       6       6       6       6      16       6
       6       1       6       6       6       6       6       1       6       6
       1       1       6       1       1       6       1       1       6       1
       1       6       6       1       1       6       6       6       1       1
       6       1       6       1       6       1       1       6       1       1
       6       1       1       1       1       1       6       6       1       1
       1       6       1       1       1       1      16       6       6       6
       6       6      16       6       6       1       6       6       6       6
       6       1       6       6       1       1       6       1       1       6
       1       1       6       1       1       6       6       1       1       6
       6       6       1       1       6       1       6       1       6       1
       1       6       1       1       6       1       1       1       1       1
       6       6       1       1       1       6       1       1       1       1
      16       6       6       6       6       6      16       6       6       1
       6       6       6       6       6       1       6       6       1       1
       6       1       1       6       1       1       6       1       1       6
       6       1       1       6       6       6       1       1       6       1
       6       1       6       1       1       6       1       1       6       1
       1       1       1       1       6       6       1       1       1       6
       1       1       1       1      16       6       6       6       6       6
      16       6       6       1       6       6       6       6       6       1
       6       6       1       1       6       1       1       6       1       1
       6       1       1       6       6       1       1       6       6       6
       1       1       6       1       6       1       6       1       1       6
       1       1       6       1       1       1       1       1       6       6
       1       1       1       6       1       1       1       1      16       6
       6       6       6       6      16       6       6       1       6       6
       6       6       6       1       6       6       1       1       6       1
       1       6       1       1       6       1       1       6       6       1
       1       6       6       6       1       1       6       1       6       1
       6       1       1       6       1       1       6       1       1       1
       1       1       6       6       1       1       1       6       1       1
       1       1      16       6       6       6       6       6      16       6
       6       1       6       6       6       6       6       1       6       6
       1       1       6       1       1       6       1       1       6       1
       1       6       6       1       1       6       6       6       1       1
       6       1       6       1       6       1       1       6       1       1
       6       1       1       1       1       1       6       6       1       1
       1       6       1       1       1       1      16       6       6       6
       6       6      16       6       6       1       6       6       6       6
       6       1       6       6       1       1       6       1       1       6
       1       1       6       1       1       6       6       1       1       6
       6       6       1       1       6       1       6       1       6       1
       1       6       1       1       6       1       1       1       1       1
       6       6       1       1       1       6       1       1       1       1
      16       6       6       6       6       6      16       6       6       1
       6       6       6       6       6       1       6       6       1       1
       6       1       1       6       1       1       6       1       1       6
       6       1       1       6       6       6       1       1       6       1
       6       1       6       1       1       6       1       1       6       1
       1       1       1       1       6       6       1       1       1       6
       1       1       1       1      16       6       6       6       6       6
      16       6       6       1       6       6       6       6       6       1
       6       6       1       1       6       1       1       6       1       1
       6       1       1       6       6       1       1       6       6       6
       1       1       6       1       6       1       6       1       1       6
       1       1       6       1       1       1       1       1       6       6
       1       1       1       6       1       1       1       1      16       6
       6       6       6       6      16       6       6       1       6       6
       6       6       6       1       6       6       1       1       6       1
       1       6       1       1       6       1       1       6       6       1
       1       6       6       6       1       1       6       1       6       1
       6       1       1       6       1       1       6       1       1       1
       1       1       6       6       1       1       1       6       1       1
       1       1      16       6       6       6       6       6      16       6
       6       1       6       6       6       6       6       1       6       6
       1       1       6       1       1       6       1       1       6       1
       1       6       6       1       1       6       6       6       1       1
       6       1       6       1       6       1       1       6       1       1
       6       1       1       1       1       1       6       6       1       1
       1       6       1       1       1       1      16       6       6       6
       6       6      16       6       6       1       6       6       6       6
       6       1       6       6       1       1       6       1       1       6
       1       1       6       1       1       6       6       1       1       6
       6       6       1       1       6       1       6       1       6       1
       1       6       1       1       6       1       1       1       1       1
       6       6       1       1       1       6       1       1       1       1
      16       6       6       6       6       6      16       6       6       1
       6       6       6       6       6       1       6       6       1       1
       6       1       1       6       1       1       6       1       1       6
       6       1       1       6       6       6       1       1       6       1
       6       1       6       1       1       6       1       1       6       1
       1       1       1       1       6       6       1       1       1       6
       1       1       1       1      16       6       6       6       6       6
      16       6       6       1       6       6       6       6       6       1
       6       6       1       1       6       1       1       6       1       1
       6       1       1       6       6       1       1       6       6       6
       1       1       6       1       6       1       6       1       1       6
       1       1       6       1       1       1       1       1       6       6
       1       1       1       6       1       1       1       1      16       6
       6       6       6       6      16       6       6       1       6       6
       6       6       6       1       6       6       1       1       6       1
       1       6       1       1       6       1       1       6       6       1
       1       6       6       6       1       1       6       1       6       1
       6       1       1       6       1       1       6       1       1       1
       1       1       6       6       1       1       1       6       1       1
       1       1      16       6       6       6       6       6      16       6
       6       1       6       6       6       6       6       1       6       6
       1       1       6       1       1       6       1       1       6       1
       1       6       6       1       1       6       6       6       1       1
       6       1       6       1       6       1       1       6       1       1
       6       1       1       1       1       1       6       6       1       1
       1       6       1       1       1       1      16       6       6       6
       6       6      16       6       6       1       6       6       6       6
       6       1       6       6       1       1       6       1       1       6
       1       1       6       1       1       6       6       1       1       6
       6       6       1       1       6       1       6       1       6       1
       1       6       1       1       6       1       1       1       1       1
       6       6       1       1       1       6       1       1       1       1
      16       6       6       6       6       6      16       6       6       1
       6       6       6       6       6       1       6       6       1       1
       6       1       1       6       1       1       6       1       1       6
       6       1       1       6       6       6       1       1       6       1
       6       1       6       1       1       6       1       1       6       1
       1       1       1       1       6       6       1       1       1       6
       1       1       1       1      16       6       6       6       6       6
      16       6       6       1       6       6       6       6       6       1
       6       6       1       1       6       1       1       6       1       1
       6       1       1       6       6       1       1       6       6       6
       1       1       6       1       6       1       6       1       1       6
       1       1       6       1       1       1       1       1       6       6
       1       1       1       6       1       1       1       1      16       6
       6       6       6       6      16       6       6       1       6       6
       6       6       6       1       6       6       1       1       6       1
       1       6       1       1       6       1       1       6       6       1
       1       6       6       6       1       1       6       1       6       1
       6       1       1       6       1       1       6       1       1       1
       1       1       6       6       1       1       1       6       1       1
       1       1      16       6       6       6       6       6      16       6
       6       1       6       6       6       6       6       1       6       6
       1       1       6       1       1       6       1       1       6       1
       1       6       6       1       1       6       6       6       1       1
       6       1       6       1       6       1       1       6       1       1
       6       1       1       1       1       1       6       6       1       1
       1       6       1       1       1       1      16       6       6       6
       6       6      16       6       6       1       6       6       6       6
       6       1       6       6       1       1       6       1       1       6
       1       1       6       1       1       6       6       1       1       6
       6       6       1       1       6       1       6       1       6       1
       1       6       1       1       6       1       1       1       1       1
       6       6       1       1       1       6       1       1       1       1
      16       6       6       6       6       6      16       6       6       1
       6       6       6       6       6       1       6       6       1       1
       6       1       1       6       1       1       6       1       1       6
       6       1       1       6       6       6       1       1       6       1
       6       1       6       1       1       6       1       1       6       1
       1       1       1       1       6       6       1       1       1       6
       1       1       1       1      16       6       6       6       6       6
      16       6       6       1       6       6       6       6       6       1
       6       6       1       1       6       1       1       6       1       1
       6       1       1       6       6       1       1       6       6       6
       1       1       6       1       6       1       6       1       1       6
       1       1       6       1       1       1       1       1       6       6
       1       1       1       6       1       1       1       1      16       6
       6       6       6       6      16       6       6       1       6       6
       6       6       6       1       6       6       1       1       6       1
       1       6       1       1       6       1       1       6       6       1
       1       6       6       6       1       1       6       1       6       1
       6       1       1       6       1       1       6       1       1       1
       1       1       6       6       1       1       1       6       1       1
       1       1      16       6       6       6       6       6      16       6
       6       1       6       6       6       6       6       1       6       6
       1       1       6       1       1       6       1       1       6       1
       1       6       6       1       1       6       6       6       1       1
       6       1       6       1       6       1       1       6       1       1
       6       1       1       1       1       1       6       6       1       1
       1       6       1       1       1       1      16       6       6       6
       6       6      16       6       6       1       6       6       6       6
       6       1       6       6       1       1       6       1       1       6
       1       1       6       1       1       6       6       1       1       6
       6       6       1       1       6       1       6       1       6       1
       1       6       1       1       6       1       1       1       1       1
       6       6       1       1       1       6       1       1       1       1
      16       6       6       6       6       6      16       6       6       1
       6       6       6       6       6       1       6       6       1       1
       6       1       1       6       1       1       6       1       1       6
       6       1       1       6       6       6       1       1       6       1
       6       1       6       1       1       6       1       1       6       1
       1       1       1       1       6       6       1       1       1       6
       1       1       1       1      16       6       6       6       6       6
      16       6       6       1       6       6       6       6       6       1
       6       6       1       1       6       1       1       6       1       1
       6       1       1       6       6       1       1       6       6       6
       1       1       6       1       6       1       6       1       1       6
       1       1       6       1       1       1       1       1       6       6
       1       1       1       6       1       1       1       1      16       6
       6       6       6       6      16       6       6       1       6       6
       6       6       6       1       6       6       1       1       6       1
       1       6       1       1       6       1       1       6       6       1
       1       6       6       6       1       1       6       1       6       1
       6       1       1       6       1       1       6       1       1       1
       1       1       6       6       1       1       1       6       1       1
       1       1      16       6       6       6       6       6      16       6
       6       1       6       6       6       6       6       1       6       6
       1       1       6       1       1       6       1       1       6       1
       1       6       6       1       1       6       6       6       1       1
       6       1       6       1       6       1       1       6       1       1
       6       1       1       1       1       1       6       6       1       1
       1       6       1       1       1       1      16       6       6       6
       6       6      16       6       6       1       6       6       6       6
       6       1       6       6       1       1       6       1       1       6
       1       1       6       1       1       6       6       1       1       6
       6       6       1       1       6       1       6       1       6       1
       1       6       1       1       6       1       1       1       1       1
       6       6       1       1       1       6       1       1       1       1
      16       6       6       6       6       6      16       6       6       1
       6       6       6       6       6       1       6       6       1       1
       6       1       1       6       1       1       6       1       1       6
       6       1       1       6       6       6       1       1       6       1
       6       1       6       1       1       6       1       1       6       1
       1       1       1       1       6       6       1       1       1       6
       1       1       1       1      16       6       6       6       6       6
      16       6       6       1       6       6       6       6       6       1
       6       6       1       1       6       1       1       6       1       1
       6       1       1       6       6       1       1       6       6       6
       1       1       6       1       6       1       6       1       1       6
       1       1       6       1       1       1       1       1       6       6
       1       1       1       6       1       1       1       1      16       6
       6       6       6       6      16       6       6       1       6       6
       6       6       6       1       6       6       1       1       6       1
       1       6       1       1       6       1       1       6       6       1
       1       6       6       6       1       1       6       1       6       1
       6       1       1       6       1       1       6       1       1       1
       1       1       6       6       1       1       1       6       1       1
       1       1      16       6       6       6       6       6      16       6
       6       1       6       6       6       6       6       1       6       6
       1       1       6       1       1       6       1       1       6       1
       1       6       6       1       1       6       6       6       1       1
       6       1       6       1       6       1       1       6       1       1
       6       1       1       1       1       1       6       6       1       1
       1       6       1       1       1       1      16       6       6       6
       6       6      16       6       6       1       6       6       6       6
       6       1       6       6       1       1       6       1       1       6
       1       1       6       1       1       6       6       1       1       6
       6       6       1       1       6       1       6       1       6       1
       1       6       1       1       6       1       1       1       1       1
       6       6       1       1       1       6       1       1       1       1
      16       6       6       6       6       6      16       6       6       1
       6       6       6       6       6       1       6       6       1       1
       6       1       1       6       1       1       6       1       1       6
       6       1       1       6       6       6       1       1       6       1
       6       1       6       1       1       6       1       1       6       1
       1       1       1       1       6       6       1       1       1       6
       1       1       1       1      16       6       6       6       6       6
      16       6       6       1       6       6       6       6       6       1
       6       6       1       1       6       1       1       6       1       1
       6       1       1       6       6       1       1       6       6       6
       1       1       6       1       6       1       6       1       1       6
       1       1       6       1       1       1       1       1       6       6
       1       1       1       6       1       1       1       1      16       6
       6       6       6       6      16       6       6       1       6       6
       6       6       6       1       6       6       1       1       6       1
       1       6       1       1       6       1       1       6       6       1
       1       6       6       6       1       1       6       1       6       1
       6       1       1       6       1       1       6       1       1       1
       1       1       6       6       1       1       1       6       1       1
       1       1      16       6       6       6       6       6      16       6
       6       1       6       6       6       6       6       1       6       6
       1       1       6       1       1       6       1       1       6       1
       1       6       6       1       1       6       6       6       1       1
       6       1       6       1       6       1       1       6       1       1
       6       1       1       1       1       1       6       6       1       1
       1       6       1       1       1       1      16       6       6       6
       6       6      16       6       6       1       6       6       6       6
       6       1       6       6       1       1       6       1       1       6
       1       1       6       1       1       6       6       1       1       6
       6       6       1       1       6       1       6       1       6       1
       1       6       1       1       6       1       1       1       1       1
       6       6       1       1       1       6       1       1       1       1
      16       6       6       6       6       6      16       6       6       1
       6       6       6       6       6       1       6       6       1       1
       6       1       1       6       1       1       6       1       1       6
       6       1       1       6       6       6       1       1       6       1
       6       1       6       1       1       6       1       1       6       1
       1       1       1       1       6       6       1       1       1       6
       1       1       1       1      16       6       6       6       6       6
      16       6       6       1       6       6       6       6       6       1
       6       6       1       1       6       1       1       6       1       1
       6       1       1       6       6       1       1       6       6       6
       1       1       6       1       6       1       6       1       1       6
       1       1       6       1       1       1       1       1       6       6
       1       1       1       6       1       1       1       1      16       6
       6       6       6       6      16       6       6       1       6       6
       6       6       6       1       6       6       1       1       6       1
       1       6       1       1       6       1       1       6       6       1
       1       6       6       6       1       1       6       1       6       1
       6       1       1       6       1       1       6       1       1       1
       1       1       6       6       1       1       1       6       1       1
       1       1
%FLAG MASS                                                                      
%FORMAT(5E16.8)                                                                 
  3.20600000E+01  1.20100000E+01  1.20100000E+01  1.20100000E+01  1.20100000E+01
  1.20100000E+01  3.20600000E+01  1.20100000E+01  1.20100000E+01  1.00800000E+00
  1.20100000E+01  1.20100000E+01  1.20100000E+01  1.20100000E+01  1.20100000E+01
  1.00800000E+00  1.20100000E+01  1.20100000E+01  1.00800000E+00  1.00800000E+00
  1.20100000E+01  1.00800000E+00  1.00800000E+00  1.20100000E+01  1.00800000E+00
  1.00800000E+00  1.20100000E+01  1.00800000E+00  1.00800000E+00  1.20100000E+01
  1.20100000E+01  1.00800000E+00  1.00800000E+00  1.20100000E+01  1.20100000E+01
  1.20100000E+01  1.00800000E+00  1.00800000E+00  1.20100000E+01  1.00800000E+00
  1.20100000E+01  1.00800000E+00  1.20100000E+01  1.00800000E+00  1.00800000E+00
  1.20100000E+01  1.00800000E+00  1.00800000E+00  1.20100000E+01  1.00800000E+00
  1.00800000E+00  1.00800000E+00  1.00800000E+00  1.00800000E+00  1.20100000E+01
  1.20100000E+01  1.00800000E+00  1.00800000E+00  1.00800000E+00  1.20100000E+01
  1.00800000E+00  1.00800000E+00  1.00800000E+00  1.00800000E+00  3.20600000E+01
  1.20100000E+01  1.20100000E+01  1.20100000E+01  1.20100000E+01  1.20100000E+01
  3.20600000E+01  1.20100000E+01  1.20100000E+01  1.00800000E+00  1.20100000E+01
  1.20100000E+01  1.20100000E+01  1.20100000E+01  1.20100000E+01  1.00800000E+00
  1.20100000E+01  1.20100000E+01  1.00800000E+00  1.00800000E+00  1.20100000E+01
  1.00800000E+00  1.00800000E+00  1.20100000E+01  1.00800000E+00  1.00800000E+00
  1.20100000E+01  1.00800000E+00  1.00800000E+00  1.20100000E+01  1.20100000E+01
  1.00800000E+00  1.00800000E+00  1.20100000E+01  1.20100000E+01  1.20100000E+01
  1.00800000E+00  1.00800000E+00  1.20100000E+01  1.00800000E+00  1.20100000E+01
  1.00800000E+00  1.20100000E+01  1.00800000E+00  1.00800000E+00  1.20100000E+01
  1.00800000E+00  1.00800000E+00  1.20100000E+01  1.00800000E+00  1.00800000E+00
  1.00800000E+00  1.00800000E+00  1.00800000E+00  1.20100000E+01  1.20100000E+01
  1.00800000E+00  1.00800000E+00  1.00800000E+00  1.20100000E+01  1.00800000E+00
  1.00800000E+00  1.00800000E+00  1.00800000E+00  3.20600000E+01  1.20100000E+01
  1.20100000E+01  1.20100000E+01  1.20100000E+01  1.20100000E+01  3.20600000E+01
  1.20100000E+01  1.20100000E+01  1.00800000E+00  1.20100000E+01  1.20100000E+01
  1.20100000E+01  1.20100000E+01  1.20100000E+01  1.00800000E+00  1.20100000E+01
  1.20100000E+01  1.00800000E+00  1.00800000E+00  1.20100000E+01  1.00800000E+00
  1.00800000E+00  1.20100000E+01  1.00800000E+00  1.00800000E+00  1.20100000E+01
  1.00800000E+00  1.00800000E+00  1.20100000E+01  1.20100000E+01  1.00800000E+00
  1.00800000E+00  1.20100000E+01  1.20100000E+01  1.20100000E+01  1.00800000E+00
  1.00800000E+00  1.20100000E+01  1.00800000E+00  1.20100000E+01  1.00800000E+00
  1.20100000E+01  1.00800000E+00  1.00800000E+00  1.20100000E+01  1.00800000E+00
  1.00800000E+00  1.20100000E+01  1.00800000E+00  1.00800000E+00  1.00800000E+00
  1.00800000E+00  1.00800000E+00  1.20100000E+01  1.20100000E+01  1.00800000E+00
  1.00800000E+00  1.00800000E+00  1.20100000E+01  1.00800000E+00  1.00800000E+00
  1.00800000E+00  1.00800000E+00  3.20600000E+01  1.20100000E+01  1.20100000E+01
  1.20100000E+01  1.20100000E+01  1.20100000E+01  3.20600000E+01  1.20100000E+01
  1.20100000E+01  1.00800000E+00  1.20100000E+01  1.20100000E+01  1.20100000E+01
  1.20100000E+01  1.20100000E+01  1.00800000E+00  1.20100000E+01  1.20100000E+01
  1.00800000E+00  1.00800000E+00  1.20100000E+01  1.00800000E+00  1.00800000E+00
  1.20100000E+01  1.00800000E+00  1.00800000E+00  1.20100000E+01  1.00800000E+00
  1.00800000E+00  1.20100000E+01  1.20100000E+01  1.00800000E+00  1.00800000E+00
  1.20100000E+01  1.20100000E+01  1.20100000E+01  1.00800000E+00  1.00800000E+00
  1.20100000E+01  1.00800000E+00  1.20100000E+01  1.00800000E+00  1.20100000E+01
  1.00800000E+00  1.00800000E+00  1.20100000E+01  1.00800000E+00  1.00800000E+00
  1.20100000E+01  1.00800000E+00  1.00800000E+00  1.00800000E+00  1.00800000E+00
  1.00800000E+00  1.20100000E+01  1.20100000E+01  1.00800000E+00  1.00800000E+00
  1.00800000E+00  1.20100000E+01  1.00800000E+00  1.00800000E+00  1.00800000E+00
  1.00800000E+00  3.20600000E+01  1.20100000E+01  1.20100000E+01  1.20100000E+01
  1.20100000E+01  1.20100000E+01  3.20600000E+01  1.20100000E+01  1.20100000E+01
  1.00800000E+00  1.20100000E+01  1.20100000E+01  1.20100000E+01  1.20100000E+01
  1.20100000E+01  1.00800000E+00  1.20100000E+01  1.20100000E+01  1.00800000E+00
  1.00800000E+00  1.20100000E+01  1.00800000E+00  1.00800000E+00  1.20100000E+01
  1.00800000E+00  1.00800000E+00  1.20100000E+01  1.00800000E+00  1.00800000E+00
  1.20100000E+01  1.20100000E+01  1.00800000E+00  1.00800000E+00  1.20100000E+01
  1.20100000E+01  1.20100000E+01  1.00800000E+00  1.00800000E+00  1.20100000E+01
  1.00800000E+00  1.20100000E+01  1.00800000E+00  1.20100000E+01  1.00800000E+00
  1.00800000E+00  1.20100000E+01  1.00800000E+00  1.00800000E+00  1.20100000E+01
  1.00800000E+00  1.00800000E+00  1.00800000E+00  1.00800000E+00  1.00800000E+00
  1.20100000E+01  1.20100000E+01  1.00800000E+00  1.00800000E+00  1.00800000E+00
  1.20100000E+01  1.00800000E+00  1.00800000E+00  1.00800000E+00  1.00800000E+00
  3.20600000E+01  1.20100000E+01  1.20100000E+01  1.20100000E+01  1.20100000E+01
  1.20100000E+01  3.20600000E+01  1.20100000E+01  1.20100000E+01  1.00800000E+00
  1.20100000E+01  1.20100000E+01  1.20100000E+01  1.20100000E+01  1.20100000E+01
  1.00800000E+00  1.20100000E+01  1.20100000E+01  1.00800000E+00  1.00800000E+00
  1.20100000E+01  1.00800000E+00  1.00800000E+00  1.20100000E+01  1.00800000E+00
  1.00800000E+00  1.20100000E+01  1.00800000E+00  1.00800000E+00  1.20100000E+01
  1.20100000E+01  1.00800000E+00  1.00800000E+00  1.20100000E+01  1.20100000E+01
  1.20100000E+01  1.00800000E+00  1.00800000E+00  1.20100000E+01  1.00800000E+00
  1.20100000E+01  1.00800000E+00  1.20100000E+01  1.00800000E+00  1.00800000E+00
  1.20100000E+01  1.00800000E+00  1.00800000E+00  1.20100000E+01  1.00800000E+00
  1.00800000E+00  1.00800000E+00  1.00800000E+00  1.00800000E+00  1.20100000E+01
  1.20100000E+01  1.00800000E+00  1.00800000E+00  1.00800000E+00  1.20100000E+01
  1.00800000E+00  1.00800000E+00  1.00800000E+00  1.00800000E+00  3.20600000E+01
  1.20100000E+01  1.20100000E+01  1.20100000E+01  1.20100000E+01  1.20100000E+01
  3.20600000E+01  1.20100000E+01  1.20100000E+01  1.00800000E+00  1.20100000E+01
  1.20100000E+01  1.20100000E+01  1.20100000E+01  1.20100000E+01  1.00800000E+00
  1.20100000E+01  1.20100000E+01  1.00800000E+00  1.00800000E+00  1.20100000E+01
  1.00800000E+00  1.00800000E+00  1.20100000E+01  1.00800000E+00  1.00800000E+00
  1.20100000E+01  1.00800000E+00  1.00800000E+00  1.20100000E+01  1.20100000E+01
  1.00800000E+00  1.00800000E+00  1.20100000E+01  1.20100000E+01  1.20100000E+01
  1.00800000E+00  1.00800000E+00  1.20100000E+01  1.00800000E+00  1.20100000E+01
  1.00800000E+00  1.20100000E+01  1.00800000E+00  1.00800000E+00  1.20100000E+01
  1.00800000E+00  1.00800000E+00  1.20100000E+01  1.00800000E+00  1.00800000E+00
  1.00800000E+00  1.00800000E+00  1.00800000E+00  1.20100000E+01  1.20100000E+01
  1.00800000E+00  1.00800000E+00  1.00800000E+00  1.20100000E+01  1.00800000E+00
  1.00800000E+00  1.00800000E+00  1.00800000E+00  3.20600000E+01  1.20100000E+01
  1.20100000E+01  1.20100000E+01  1.20100000E+01  1.20100000E+01  3.20600000E+01
  1.20100000E+01  1.20100000E+01  1.00800000E+00  1.20100000E+01  1.20100000E+01
  1.20100000E+01  1.20100000E+01  1.20100000E+01  1.00800000E+00  1.20100000E+01
  1.20100000E+01  1.00800000E+00  1.00800000E+00  1.20100000E+01  1.00800000E+00
  1.00800000E+00  1.20100000E+01  1.00800000E+00  1.00800000E+00  1.20100000E+01
  1.00800000E+00  1.00800000E+00  1.20100000E+01  1.20100000E+01  1.00800000E+00
  1.00800000E+00  1.20100000E+01  1.20100000E+01  1.20100000E+01  1.00800000E+00
  1.00800000E+00  1.20100000E+01  1.00800000E+00  1.20100000E+01  1.00800000E+00
  1.20100000E+01  1.00800000E+00  1.00800000E+00  1.20100000E+01  1.00800000E+00
  1.00800000E+00  1.20100000E+01  1.00800000E+00  1.00800000E+00  1.00800000E+00
  1.00800000E+00  1.00800000E+00  1.20100000E+01  1.20100000E+01  1.00800000E+00
  1.00800000E+00  1.00800000E+00  1.20100000E+01  1.00800000E+00  1.00800000E+00
  1.00800000E+00  1.00800000E+00  3.20600000E+01  1.20100000E+01  1.20100000E+01
  1.20100000E+01  1.20100000E+01  1.20100000E+01  3.20600000E+01  1.20100000E+01
  1.20100000E+01  1.00800000E+00  1.20100000E+01  1.20100000E+01  1.20100000E+01
  1.20100000E+01  1.20100000E+01  1.00800000E+00  1.20100000E+01  1.20100000E+01
  1.00800000E+00  1.00800000E+00  1.20100000E+01  1.00800000E+00  1.00800000E+00
  1.20100000E+01  1.00800000E+00  1.00800000E+00  1.20100000E+01  1.00800000E+00
  1.00800000E+00  1.20100000E+01  1.20100000E+01  1.00800000E+00  1.00800000E+00
  1.20100000E+01  1.20100000E+01  1.20100000E+01  1.00800000E+00  1.00800000E+00
  1.20100000E+01  1.00800000E+00  1.20100000E+01  1.00800000E+00  1.20100000E+01
  1.00800000E+00  1.00800000E+00  1.20100000E+01  1.00800000E+00  1.00800000E+00
  1.20100000E+01  1.00800000E+00  1.00800000E+00  1.00800000E+00  1.00800000E+00
  1.00800000E+00  1.20100000E+01  1.20100000E+01  1.00800000E+00  1.00800000E+00
  1.00800000E+00  1.20100000E+01  1.00800000E+00  1.00800000E+00  1.00800000E+00
  1.00800000E+00  3.20600000E+01  1.20100000E+01  1.20100000E+01  1.20100000E+01
  1.20100000E+01  1.20100000E+01  3.20600000E+01  1.20100000E+01  1.20100000E+01
  1.00800000E+00  1.20100000E+01  1.20100000E+01  1.20100000E+01  1.20100000E+01
  1.20100000E+01  1.00800000E+00  1.20100000E+01  1.20100000E+01  1.00800000E+00
  1.00800000E+00  1.20100000E+01  1.00800000E+00  1.00800000E+00  1.20100000E+01
  1.00800000E+00  1.00800000E+00  1.20100000E+01  1.00800000E+00  1.00800000E+00
  1.20100000E+01  1.20100000E+01  1.00800000E+00  1.00800000E+00  1.20100000E+01
  1.20100000E+01  1.20100000E+01  1.00800000E+00  1.00800000E+00  1.20100000E+01
  1.00800000E+00  1.20100000E+01  1.00800000E+00  1.20100000E+01  1.00800000E+00
  1.00800000E+00  1.20100000E+01  1.00800000E+00  1.00800000E+00  1.20100000E+01
  1.00800000E+00  1.00800000E+00  1.00800000E+00  1.00800000E+00  1.00800000E+00
  1.20100000E+01  1.20100000E+01  1.00800000E+00  1.00800000E+00  1.00800000E+00
  1.20100000E+01  1.00800000E+00  1.00800000E+00  1.00800000E+00  1.00800000E+00
  3.20600000E+01  1.20100000E+01  1.20100000E+01  1.20100000E+01  1.20100000E+01
  1.20100000E+01  3.20600000E+01  1.20100000E+01  1.20100000E+01  1.00800000E+00
  1.20100000E+01  1.20100000E+01  1.20100000E+01  1.20100000E+01  1.20100000E+01
  1.00800000E+00  1.20100000E+01  1.20100000E+01  1.00800000E+00  1.00800000E+00
  1.20100000E+01  1.00800000E+00  1.00800000E+00  1.20100000E+01  1.00800000E+00
  1.00800000E+00  1.20100000E+01  1.00800000E+00  1.00800000E+00  1.20100000E+01
  1.20100000E+01  1.00800000E+00  1.00800000E+00  1.20100000E+01  1.20100000E+01
  1.20100000E+01  1.00800000E+00  1.00800000E+00  1.20100000E+01  1.00800000E+00
  1.20100000E+01  1.00800000E+00  1.20100000E+01  1.00800000E+00  1.00800000E+00
  1.20100000E+01  1.00800000E+00  1.00800000E+00  1.20100000E+01  1.00800000E+00
  1.00800000E+00  1.00800000E+00  1.00800000E+00  1.00800000E+00  1.20100000E+01
  1.20100000E+01  1.00800000E+00  1.00800000E+00  1.00800000E+00  1.20100000E+01
  1.00800000E+00  1.00800000E+00  1.00800000E+00  1.00800000E+00  3.20600000E+01
  1.20100000E+01  1.20100000E+01  1.20100000E+01  1.20100000E+01  1.20100000E+01
  3.20600000E+01  1.20100000E+01  1.20100000E+01  1.00800000E+00  1.20100000E+01
  1.20100000E+01  1.20100000E+01  1.20100000E+01  1.20100000E+01  1.00800000E+00
  1.20100000E+01  1.20100000E+01  1.00800000E+00  1.00800000E+00  1.20100000E+01
  1.00800000E+00  1.00800000E+00  1.20100000E+01  1.00800000E+00  1.00800000E+00
  1.20100000E+01  1.00800000E+00  1.00800000E+00  1.20100000E+01  1.20100000E+01
  1.00800000E+00  1.00800000E+00  1.20100000E+01  1.20100000E+01  1.20100000E+01
  1.00800000E+00  1.00800000E+00  1.20100000E+01  1.00800000E+00  1.20100000E+01
  1.00800000E+00  1.20100000E+01  1.00800000E+00  1.00800000E+00  1.20100000E+01
  1.00800000E+00  1.00800000E+00  1.20100000E+01  1.00800000E+00  1.00800000E+00
  1.00800000E+00  1.00800000E+00  1.00800000E+00  1.20100000E+01  1.20100000E+01
  1.00800000E+00  1.00800000E+00  1.00800000E+00  1.20100000E+01  1.00800000E+00
  1.00800000E+00  1.00800000E+00  1.00800000E+00  3.20600000E+01  1.20100000E+01
  1.20100000E+01  1.20100000E+01  1.20100000E+01  1.20100000E+01  3.20600000E+01
  1.20100000E+01  1.20100000E+01  1.00800000E+00  1.20100000E+01  1.20100000E+01
  1.20100000E+01  1.20100000E+01  1.20100000E+01  1.00800000E+00  1.20100000E+01
  1.20100000E+01  1.00800000E+00  1.00800000E+00  1.20100000E+01  1.00800000E+00
  1.00800000E+00  1.20100000E+01  1.00800000E+00  1.00800000E+00  1.20100000E+01
  1.00800000E+00  1.00800000E+00  1.20100000E+01  1.20100000E+01  1.00800000E+00
  1.00800000E+00  1.20100000E+01  1.20100000E+01  1.20100000E+01  1.00800000E+00
  1.00800000E+00  1.20100000E+01  1.00800000E+00  1.20100000E+01  1.00800000E+00
  1.20100000E+01  1.00800000E+00  1.00800000E+00  1.20100000E+01  1.00800000E+00
  1.00800000E+00  1.20100000E+01  1.00800000E+00  1.00800000E+00  1.00800000E+00
  1.00800000E+00  1.00800000E+00  1.20100000E+01  1.20100000E+01  1.00800000E+00
  1.00800000E+00  1.00800000E+00  1.20100000E+01  1.00800000E+00  1.00800000E+00
  1.00800000E+00  1.00800000E+00  3.20600000E+01  1.20100000E+01  1.20100000E+01
  1.20100000E+01  1.20100000E+01  1.20100000E+01  3.20600000E+01  1.20100000E+01
  1.20100000E+01  1.00800000E+00  1.20100000E+01  1.20100000E+01  1.20100000E+01
  1.20100000E+01  1.20100000E+01  1.00800000E+00  1.20100000E+01  1.20100000E+01
  1.00800000E+00  1.00800000E+00  1.20100000E+01  1.00800000E+00  1.00800000E+00
  1.20100000E+01  1.00800000E+00  1.00800000E+00  1.20100000E+01  1.00800000E+00
  1.00800000E+00  1.20100000E+01  1.20100000E+01  1.00800000E+00  1.00800000E+00
  1.20100000E+01  1.20100000E+01  1.20100000E+01  1.00800000E+00  1.00800000E+00
  1.20100000E+01  1.00800000E+00  1.20100000E+01  1.00800000E+00  1.20100000E+01
  1.00800000E+00  1.00800000E+00  1.20100000E+01  1.00800000E+00  1.00800000E+00
  1.20100000E+01  1.00800000E+00  1.00800000E+00  1.00800000E+00  1.00800000E+00
  1.00800000E+00  1.20100000E+01  1.20100000E+01  1.00800000E+00  1.00800000E+00
  1.00800000E+00  1.20100000E+01  1.00800000E+00  1.00800000E+00  1.00800000E+00
  1.00800000E+00  3.20600000E+01  1.20100000E+01  1.20100000E+01  1.20100000E+01
  1.20100000E+01  1.20100000E+01  3.20600000E+01  1.20100000E+01  1.20100000E+01
  1.00800000E+00  1.20100000E+01  1.20100000E+01  1.20100000E+01  1.20100000E+01
  1.20100000E+01  1.00800000E+00  1.20100000E+01  1.20100000E+01  1.00800000E+00
  1.00800000E+00  1.20100000E+01  1.00800000E+00  1.00800000E+00  1.20100000E+01
  1.00800000E+00  1.00800000E+00  1.20100000E+01  1.00800000E+00  1.00800000E+00
  1.20100000E+01  1.20100000E+01  1.00800000E+00  1.00800000E+00  1.20100000E+01
  1.20100000E+01  1.20100000E+01  1.00800000E+00  1.00800000E+00  1.20100000E+01
  1.00800000E+00  1.20100000E+01  1.00800000E+00  1.20100000E+01  1.00800000E+00
  1.00800000E+00  1.20100000E+01  1.00800000E+00  1.00800000E+00  1.20100000E+01
  1.00800000E+00  1.00800000E+00  1.00800000E+00  1.00800000E+00  1.00800000E+00
  1.20100000E+01  1.20100000E+01  1.00800000E+00  1.00800000E+00  1.00800000E+00
  1.20100000E+01  1.00800000E+00  1.00800000E+00  1.00800000E+00  1.00800000E+00
  3.20600000E+01  1.20100000E+01  1.20100000E+01  1.20100000E+01  1.20100000E+01
  1.20100000E+01  3.20600000E+01  1.20100000E+01  1.20100000E+01  1.00800000E+00
  1.20100000E+01  1.20100000E+01  1.20100000E+01  1.20100000E+01  1.20100000E+01
  1.00800000E+00  1.20100000E+01  1.20100000E+01  1.00800000E+00  1.00800000E+00
  1.20100000E+01  1.00800000E+00  1.00800000E+00  1.20100000E+01  1.00800000E+00
  1.00800000E+00  1.20100000E+01  1.00800000E+00  1.00800000E+00  1.20100000E+01
  1.20100000E+01  1.00800000E+00  1.00800000E+00  1.20100000E+01  1.20100000E+01
  1.20100000E+01  1.00800000E+00  1.00800000E+00  1.20100000E+01  1.00800000E+00
  1.20100000E+01  1.00800000E+00  1.20100000E+01  1.00800000E+00  1.00800000E+00
  1.20100000E+01  1.00800000E+00  1.00800000E+00  1.20100000E+01  1.00800000E+00
  1.00800000E+00  1.00800000E+00  1.00800000E+00  1.00800000E+00  1.20100000E+01
  1.20100000E+01  1.00800000E+00  1.00800000E+00  1.00800000E+00  1.20100000E+01
  1.00800000E+00  1.00800000E+00  1.00800000E+00  1.00800000E+00  3.20600000E+01
  1.20100000E+01  1.20100000E+01  1.20100000E+01  1.20100000E+01  1.20100000E+01
  3.20600000E+01  1.20100000E+01  1.20100000E+01  1.00800000E+00  1.20100000E+01
  1.20100000E+01  1.20100000E+01  1.20100000E+01  1.20100000E+01  1.00800000E+00
  1.20100000E+01  1.20100000E+01  1.00800000E+00  1.00800000E+00  1.20100000E+01
  1.00800000E+00  1.00800000E+00  1.20100000E+01  1.00800000E+00  1.00800000E+00
  1.20100000E+01  1.00800000E+00  1.00800000E+00  1.20100000E+01  1.20100000E+01
  1.00800000E+00  1.00800000E+00  1.20100000E+01  1.20100000E+01  1.20100000E+01
  1.00800000E+00  1.00800000E+00  1.20100000E+01  1.00800000E+00  1.20100000E+01
  1.00800000E+00  1.20100000E+01  1.00800000E+00  1.00800000E+00  1.20100000E+01
  1.00800000E+00  1.00800000E+00  1.20100000E+01  1.00800000E+00  1.00800000E+00
  1.00800000E+00  1.00800000E+00  1.00800000E+00  1.20100000E+01  1.20100000E+01
  1.00800000E+00  1.00800000E+00  1.00800000E+00  1.20100000E+01  1.00800000E+00
  1.00800000E+00  1.00800000E+00  1.00800000E+00  3.20600000E+01  1.20100000E+01
  1.20100000E+01  1.20100000E+01  1.20100000E+01  1.20100000E+01  3.20600000E+01
  1.20100000E+01  1.20100000E+01  1.00800000E+00  1.20100000E+01  1.20100000E+01
  1.20100000E+01  1.20100000E+01  1.20100000E+01  1.00800000E+00  1.20100000E+01
  1.20100000E+01  1.00800000E+00  1.00800000E+00  1.20100000E+01  1.00800000E+00
  1.00800000E+00  1.20100000E+01  1.00800000E+00  1.00800000E+00  1.20100000E+01
  1.00800000E+00  1.00800000E+00  1.20100000E+01  1.20100000E+01  1.00800000E+00
  1.00800000E+00  1.20100000E+01  1.20100000E+01  1.20100000E+01  1.00800000E+00
  1.00800000E+00  1.20100000E+01  1.00800000E+00  1.20100000E+01  1.00800000E+00
  1.20100000E+01  1.00800000E+00  1.00800000E+00  1.20100000E+01  1.00800000E+00
  1.00800000E+00  1.20100000E+01  1.00800000E+00  1.00800000E+00  1.00800000E+00
  1.00800000E+00  1.00800000E+00  1.20100000E+01  1.20100000E+01  1.00800000E+00
  1.00800000E+00  1.00800000E+00  1.20100000E+01  1.00800000E+00  1.00800000E+00
  1.00800000E+00  1.00800000E+00  3.20600000E+01  1.20100000E+01  1.20100000E+01
  1.20100000E+01  1.20100000E+01  1.20100000E+01  3.20600000E+01  1.20100000E+01
  1.20100000E+01  1.00800000E+00  1.20100000E+01  1.20100000E+01  1.20100000E+01
  1.20100000E+01  1.20100000E+01  1.00800000E+00  1.20100000E+01  1.20100000E+01
  1.00800000E+00  1.00800000E+00  1.20100000E+01  1.00800000E+00  1.00800000E+00
  1.20100000E+01  1.00800000E+00  1.00800000E+00  1.20100000E+01  1.00800000E+00
  1.00800000E+00  1.20100000E+01  1.20100000E+01  1.00800000E+00  1.00800000E+00
  1.20100000E+01  1.20100000E+01  1.20100000E+01  1.00800000E+00  1.00800000E+00
  1.20100000E+01  1.00800000E+00  1.20100000E+01  1.00800000E+00  1.20100000E+01
  1.00800000E+00  1.00800000E+00  1.20100000E+01  1.00800000E+00  1.00800000E+00
  1.20100000E+01  1.00800000E+00  1.00800000E+00  1.00800000E+00  1.00800000E+00
  1.00800000E+00  1.20100000E+01  1.20100000E+01  1.00800000E+00  1.00800000E+00
  1.00800000E+00  1.20100000E+01  1.00800000E+00  1.00800000E+00  1.00800000E+00
  1.00800000E+00  3.20600000E+01  1.20100000E+01  1.20100000E+01  1.20100000E+01
  1.20100000E+01  1.20100000E+01  3.20600000E+01  1.20100000E+01  1.20100000E+01
  1.00800000E+00  1.20100000E+01  1.20100000E+01  1.20100000E+01  1.20100000E+01
  1.20100000E+01  1.00800000E+00  1.20100000E+01  1.20100000E+01  1.00800000E+00
  1.00800000E+00  1.20100000E+01  1.00800000E+00  1.00800000E+00  1.20100000E+01
  1.00800000E+00  1.00800000E+00  1.20100000E+01  1.00800000E+00  1.00800000E+00
  1.20100000E+01  1.20100000E+01  1.00800000E+00  1.00800000E+00  1.20100000E+01
  1.20100000E+01  1.20100000E+01  1.00800000E+00  1.00800000E+00  1.20100000E+01
  1.00800000E+00  1.20100000E+01  1.00800000E+00  1.20100000E+01  1.00800000E+00
  1.00800000E+00  1.20100000E+01  1.00800000E+00  1.00800000E+00  1.20100000E+01
  1.00800000E+00  1.00800000E+00  1.00800000E+00  1.00800000E+00  1.00800000E+00
  1.20100000E+01  1.20100000E+01  1.00800000E+00  1.00800000E+00  1.00800000E+00
  1.20100000E+01  1.00800000E+00  1.00800000E+00  1.00800000E+00  1.00800000E+00
  3.20600000E+01  1.20100000E+01  1.20100000E+01  1.20100000E+01  1.20100000E+01
  1.20100000E+01  3.20600000E+01  1.20100000E+01  1.20100000E+01  1.00800000E+00
  1.20100000E+01  1.20100000E+01  1.20100000E+01  1.20100000E+01  1.20100000E+01
  1.00800000E+00  1.20100000E+01  1.20100000E+01  1.00800000E+00  1.00800000E+00
  1.20100000E+01  1.00800000E+00  1.00800000E+00  1.20100000E+01  1.00800000E+00
  1.00800000E+00  1.20100000E+01  1.00800000E+00  1.00800000E+00  1.20100000E+01
  1.20100000E+01  1.00800000E+00  1.00800000E+00  1.20100000E+01  1.20100000E+01
  1.20100000E+01  1.00800000E+00  1.00800000E+00  1.20100000E+01  1.00800000E+00
  1.20100000E+01  1.00800000E+00  1.20100000E+01  1.00800000E+00  1.00800000E+00
  1.20100000E+01  1.00800000E+00  1.00800000E+00  1.20100000E+01  1.00800000E+00
  1.00800000E+00  1.00800000E+00  1.00800000E+00  1.00800000E+00  1.20100000E+01
  1.20100000E+01  1.00800000E+00  1.00800000E+00  1.00800000E+00  1.20100000E+01
  1.00800000E+00  1.00800000E+00  1.00800000E+00  1.00800000E+00  3.20600000E+01
  1.20100000E+01  1.20100000E+01  1.20100000E+01  1.20100000E+01  1.20100000E+01
  3.20600000E+01  1.20100000E+01  1.20100000E+01  1.00800000E+00  1.20100000E+01
  1.20100000E+01  1.20100000E+01  1.20100000E+01  1.20100000E+01  1.00800000E+00
  1.20100000E+01  1.20100000E+01  1.00800000E+00  1.00800000E+00  1.20100000E+01
  1.00800000E+00  1.00800000E+00  1.20100000E+01  1.00800000E+00  1.00800000E+00
  1.20100000E+01  1.00800000E+00  1.00800000E+00  1.20100000E+01  1.20100000E+01
  1.00800000E+00  1.00800000E+00  1.20100000E+01  1.20100000E+01  1.20100000E+01
  1.00800000E+00  1.00800000E+00  1.20100000E+01  1.00800000E+00  1.20100000E+01
  1.00800000E+00  1.20100000E+01  1.00800000E+00  1.00800000E+00  1.20100000E+01
  1.00800000E+00  1.00800000E+00  1.20100000E+01  1.00800000E+00  1.00800000E+00
  1.00800000E+00  1.00800000E+00  1.00800000E+00  1.20100000E+01  1.20100000E+01
  1.00800000E+00  1.00800000E+00  1.00800000E+00  1.20100000E+01  1.00800000E+00
  1.00800000E+00  1.00800000E+00  1.00800000E+00  3.20600000E+01  1.20100000E+01
  1.20100000E+01  1.20100000E+01  1.20100000E+01  1.20100000E+01  3.20600000E+01
  1.20100000E+01  1.20100000E+01  1.00800000E+00  1.20100000E+01  1.20100000E+01
  1.20100000E+01  1.20100000E+01  1.20100000E+01  1.00800000E+00  1.20100000E+01
  1.20100000E+01  1.00800000E+00  1.00800000E+00  1.20100000E+01  1.00800000E+00
  1.00800000E+00  1.20100000E+01  1.00800000E+00  1.00800000E+00  1.20100000E+01
  1.00800000E+00  1.00800000E+00  1.20100000E+01  1.20100000E+01  1.00800000E+00
  1.00800000E+00  1.20100000E+01  1.20100000E+01  1.20100000E+01  1.00800000E+00
  1.00800000E+00  1.20100000E+01  1.00800000E+00  1.20100000E+01  1.00800000E+00
  1.20100000E+01  1.00800000E+00  1.00800000E+00  1.20100000E+01  1.00800000E+00
  1.00800000E+00  1.20100000E+01  1.00800000E+00  1.00800000E+00  1.00800000E+00
  1.00800000E+00  1.00800000E+00  1.20100000E+01  1.20100000E+01  1.00800000E+00
  1.00800000E+00  1.00800000E+00  1.20100000E+01  1.00800000E+00  1.00800000E+00
  1.00800000E+00  1.00800000E+00  3.20600000E+01  1.20100000E+01  1.20100000E+01
  1.20100000E+01  1.20100000E+01  1.20100000E+01  3.20600000E+01  1.20100000E+01
  1.20100000E+01  1.00800000E+00  1.20100000E+01  1.20100000E+01  1.20100000E+01
  1.20100000E+01  1.20100000E+01  1.00800000E+00  1.20100000E+01  1.20100000E+01
  1.00800000E+00  1.00800000E+00  1.20100000E+01  1.00800000E+00  1.00800000E+00
  1.20100000E+01  1.00800000E+00  1.00800000E+00  1.20100000E+01  1.00800000E+00
  1.00800000E+00  1.20100000E+01  1.20100000E+01  1.00800000E+00  1.00800000E+00
  1.20100000E+01  1.20100000E+01  1.20100000E+01  1.00800000E+00  1.00800000E+00
  1.20100000E+01  1.00800000E+00  1.20100000E+01  1.00800000E+00  1.20100000E+01
  1.00800000E+00  1.00800000E+00  1.20100000E+01  1.00800000E+00  1.00800000E+00
  1.20100000E+01  1.00800000E+00  1.00800000E+00  1.00800000E+00  1.00800000E+00
  1.00800000E+00  1.20100000E+01  1.20100000E+01  1.00800000E+00  1.00800000E+00
  1.00800000E+00  1.20100000E+01  1.00800000E+00  1.00800000E+00  1.00800000E+00
  1.00800000E+00  3.20600000E+01  1.20100000E+01  1.20100000E+01  1.20100000E+01
  1.20100000E+01  1.20100000E+01  3.20600000E+01  1.20100000E+01  1.20100000E+01
  1.00800000E+00  1.20100000E+01  1.20100000E+01  1.20100000E+01  1.20100000E+01
  1.20100000E+01  1.00800000E+00  1.20100000E+01  1.20100000E+01  1.00800000E+00
  1.00800000E+00  1.20100000E+01  1.00800000E+00  1.00800000E+00  1.20100000E+01
  1.00800000E+00  1.00800000E+00  1.20100000E+01  1.00800000E+00  1.00800000E+00
  1.20100000E+01  1.20100000E+01  1.00800000E+00  1.00800000E+00  1.20100000E+01
  1.20100000E+01  1.20100000E+01  1.00800000E+00  1.00800000E+00  1.20100000E+01
  1.00800000E+00  1.20100000E+01  1.00800000E+00  1.20100000E+01  1.00800000E+00
  1.00800000E+00  1.20100000E+01  1.00800000E+00  1.00800000E+00  1.20100000E+01
  1.00800000E+00  1.00800000E+00  1.00800000E+00  1.00800000E+00  1.00800000E+00
  1.20100000E+01  1.20100000E+01  1.00800000E+00  1.00800000E+00  1.00800000E+00
  1.20100000E+01  1.00800000E+00  1.00800000E+00  1.00800000E+00  1.00800000E+00
  3.20600000E+01  1.20100000E+01  1.20100000E+01  1.20100000E+01  1.20100000E+01
  1.20100000E+01  3.20600000E+01  1.20100000E+01  1.20100000E+01  1.00800000E+00
  1.20100000E+01  1.20100000E+01  1.20100000E+01  1.20100000E+01  1.20100000E+01
  1.00800000E+00  1.20100000E+01  1.20100000E+01  1.00800000E+00  1.00800000E+00
  1.20100000E+01  1.00800000E+00  1.00800000E+00  1.20100000E+01  1.00800000E+00
  1.00800000E+00  1.20100000E+01  1.00800000E+00  1.00800000E+00  1.20100000E+01
  1.20100000E+01  1.00800000E+00  1.00800000E+00  1.20100000E+01  1.20100000E+01
  1.20100000E+01  1.00800000E+00  1.00800000E+00  1.20100000E+01  1.00800000E+00
  1.20100000E+01  1.00800000E+00  1.20100000E+01  1.00800000E+00  1.00800000E+00
  1.20100000E+01  1.00800000E+00  1.00800000E+00  1.20100000E+01  1.00800000E+00
  1.00800000E+00  1.00800000E+00  1.00800000E+00  1.00800000E+00  1.20100000E+01
  1.20100000E+01  1.00800000E+00  1.00800000E+00  1.00800000E+00  1.20100000E+01
  1.00800000E+00  1.00800000E+00  1.00800000E+00  1.00800000E+00  3.20600000E+01
  1.20100000E+01  1.20100000E+01  1.20100000E+01  1.20100000E+01  1.20100000E+01
  3.20600000E+01  1.20100000E+01  1.20100000E+01  1.00800000E+00  1.20100000E+01
  1.20100000E+01  1.20100000E+01  1.20100000E+01  1.20100000E+01  1.00800000E+00
  1.20100000E+01  1.20100000E+01  1.00800000E+00  1.00800000E+00  1.20100000E+01
  1.00800000E+00  1.00800000E+00  1.20100000E+01  1.00800000E+00  1.00800000E+00
  1.20100000E+01  1.00800000E+00  1.00800000E+00  1.20100000E+01  1.20100000E+01
  1.00800000E+00  1.00800000E+00  1.20100000E+01  1.20100000E+01  1.20100000E+01
  1.00800000E+00  1.00800000E+00  1.20100000E+01  1.00800000E+00  1.20100000E+01
  1.00800000E+00  1.20100000E+01  1.00800000E+00  1.00800000E+00  1.20100000E+01
  1.00800000E+00  1.00800000E+00  1.20100000E+01  1.00800000E+00  1.00800000E+00
  1.00800000E+00  1.00800000E+00  1.00800000E+00  1.20100000E+01  1.20100000E+01
  1.00800000E+00  1.00800000E+00  1.00800000E+00  1.20100000E+01  1.00800000E+00
  1.00800000E+00  1.00800000E+00  1.00800000E+00  3.20600000E+01  1.20100000E+01
  1.20100000E+01  1.20100000E+01  1.20100000E+01  1.20100000E+01  3.20600000E+01
  1.20100000E+01  1.20100000E+01  1.00800000E+00  1.20100000E+01  1.20100000E+01
  1.20100000E+01  1.20100000E+01  1.20100000E+01  1.00800000E+00  1.20100000E+01
  1.20100000E+01  1.00800000E+00  1.00800000E+00  1.20100000E+01  1.00800000E+00
  1.00800000E+00  1.20100000E+01  1.00800000E+00  1.00800000E+00  1.20100000E+01
  1.00800000E+00  1.00800000E+00  1.20100000E+01  1.20100000E+01  1.00800000E+00
  1.00800000E+00  1.20100000E+01  1.20100000E+01  1.20100000E+01  1.00800000E+00
  1.00800000E+00  1.20100000E+01  1.00800000E+00  1.20100000E+01  1.00800000E+00
  1.20100000E+01  1.00800000E+00  1.00800000E+00  1.20100000E+01  1.00800000E+00
  1.00800000E+00  1.20100000E+01  1.00800000E+00  1.00800000E+00  1.00800000E+00
  1.00800000E+00  1.00800000E+00  1.20100000E+01  1.20100000E+01  1.00800000E+00
  1.00800000E+00  1.00800000E+00  1.20100000E+01  1.00800000E+00  1.00800000E+00
  1.00800000E+00  1.00800000E+00  3.20600000E+01  1.20100000E+01  1.20100000E+01
  1.20100000E+01  1.20100000E+01  1.20100000E+01  3.20600000E+01  1.20100000E+01
  1.20100000E+01  1.00800000E+00  1.20100000E+01  1.20100000E+01  1.20100000E+01
  1.20100000E+01  1.20100000E+01  1.00800000E+00  1.20100000E+01  1.20100000E+01
  1.00800000E+00  1.00800000E+00  1.20100000E+01  1.00800000E+00  1.00800000E+00
  1.20100000E+01  1.00800000E+00  1.00800000E+00  1.20100000E+01  1.00800000E+00
  1.00800000E+00  1.20100000E+01  1.20100000E+01  1.00800000E+00  1.00800000E+00
  1.20100000E+01  1.20100000E+01  1.20100000E+01  1.00800000E+00  1.00800000E+00
  1.20100000E+01  1.00800000E+00  1.20100000E+01  1.00800000E+00  1.20100000E+01
  1.00800000E+00  1.00800000E+00  1.20100000E+01  1.00800000E+00  1.00800000E+00
  1.20100000E+01  1.00800000E+00  1.00800000E+00  1.00800000E+00  1.00800000E+00
  1.00800000E+00  1.20100000E+01  1.20100000E+01  1.00800000E+00  1.00800000E+00
  1.00800000E+00  1.20100000E+01  1.00800000E+00  1.00800000E+00  1.00800000E+00
  1.00800000E+00  3.20600000E+01  1.20100000E+01  1.20100000E+01  1.20100000E+01
  1.20100000E+01  1.20100000E+01  3.20600000E+01  1.20100000E+01  1.20100000E+01
  1.00800000E+00  1.20100000E+01  1.20100000E+01  1.20100000E+01  1.20100000E+01
  1.20100000E+01  1.00800000E+00  1.20100000E+01  1.20100000E+01  1.00800000E+00
  1.00800000E+00  1.20100000E+01  1.00800000E+00  1.00800000E+00  1.20100000E+01
  1.00800000E+00  1.00800000E+00  1.20100000E+01  1.00800000E+00  1.00800000E+00
  1.20100000E+01  1.20100000E+01  1.00800000E+00  1.00800000E+00  1.20100000E+01
  1.20100000E+01  1.20100000E+01  1.00800000E+00  1.00800000E+00  1.20100000E+01
  1.00800000E+00  1.20100000E+01  1.00800000E+00  1.20100000E+01  1.00800000E+00
  1.00800000E+00  1.20100000E+01  1.00800000E+00  1.00800000E+00  1.20100000E+01
  1.00800000E+00  1.00800000E+00  1.00800000E+00  1.00800000E+00  1.00800000E+00
  1.20100000E+01  1.20100000E+01  1.00800000E+00  1.00800000E+00  1.00800000E+00
  1.20100000E+01  1.00800000E+00  1.00800000E+00  1.00800000E+00  1.00800000E+00
  3.20600000E+01  1.20100000E+01  1.20100000E+01  1.20100000E+01  1.20100000E+01
  1.20100000E+01  3.20600000E+01  1.20100000E+01  1.20100000E+01  1.00800000E+00
  1.20100000E+01  1.20100000E+01  1.20100000E+01  1.20100000E+01  1.20100000E+01
  1.00800000E+00  1.20100000E+01  1.20100000E+01  1.00800000E+00  1.00800000E+00
  1.20100000E+01  1.00800000E+00  1.00800000E+00  1.20100000E+01  1.00800000E+00
  1.00800000E+00  1.20100000E+01  1.00800000E+00  1.00800000E+00  1.20100000E+01
  1.20100000E+01  1.00800000E+00  1.00800000E+00  1.20100000E+01  1.20100000E+01
  1.20100000E+01  1.00800000E+00  1.00800000E+00  1.20100000E+01  1.00800000E+00
  1.20100000E+01  1.00800000E+00  1.20100000E+01  1.00800000E+00  1.00800000E+00
  1.20100000E+01  1.00800000E+00  1.00800000E+00  1.20100000E+01  1.00800000E+00
  1.00800000E+00  1.00800000E+00  1.00800000E+00  1.00800000E+00  1.20100000E+01
  1.20100000E+01  1.00800000E+00  1.00800000E+00  1.00800000E+00  1.20100000E+01
  1.00800000E+00  1.00800000E+00  1.00800000E+00  1.00800000E+00  3.20600000E+01
  1.20100000E+01  1.20100000E+01  1.20100000E+01  1.20100000E+01  1.20100000E+01
  3.20600000E+01  1.20100000E+01  1.20100000E+01  1.00800000E+00  1.20100000E+01
  1.20100000E+01  1.20100000E+01  1.20100000E+01  1.20100000E+01  1.00800000E+00
  1.20100000E+01  1.20100000E+01  1.00800000E+00  1.00800000E+00  1.20100000E+01
  1.00800000E+00  1.00800000E+00  1.20100000E+01  1.00800000E+00  1.00800000E+00
  1.20100000E+01  1.00800000E+00  1.00800000E+00  1.20100000E+01  1.20100000E+01
  1.00800000E+00  1.00800000E+00  1.20100000E+01  1.20100000E+01  1.20100000E+01
  1.00800000E+00  1.00800000E+00  1.20100000E+01  1.00800000E+00  1.20100000E+01
  1.00800000E+00  1.20100000E+01  1.00800000E+00  1.00800000E+00  1.20100000E+01
  1.00800000E+00  1.00800000E+00  1.20100000E+01  1.00800000E+00  1.00800000E+00
  1.00800000E+00  1.00800000E+00  1.00800000E+00  1.20100000E+01  1.20100000E+01
  1.00800000E+00  1.00800000E+00  1.00800000E+00  1.20100000E+01  1.00800000E+00
  1.00800000E+00  1.00800000E+00  1.00800000E+00  3.20600000E+01  1.20100000E+01
  1.20100000E+01  1.20100000E+01  1.20100000E+01  1.20100000E+01  3.20600000E+01
  1.20100000E+01  1.20100000E+01  1.00800000E+00  1.20100000E+01  1.20100000E+01
  1.20100000E+01  1.20100000E+01  1.20100000E+01  1.00800000E+00  1.20100000E+01
  1.20100000E+01  1.00800000E+00  1.00800000E+00  1.20100000E+01  1.00800000E+00
  1.00800000E+00  1.20100000E+01  1.00800000E+00  1.00800000E+00  1.20100000E+01
  1.00800000E+00  1.00800000E+00  1.20100000E+01  1.20100000E+01  1.00800000E+00
  1.00800000E+00  1.20100000E+01  1.20100000E+01  1.20100000E+01  1.00800000E+00
  1.00800000E+00  1.20100000E+01  1.00800000E+00  1.20100000E+01  1.00800000E+00
  1.20100000E+01  1.00800000E+00  1.00800000E+00  1.20100000E+01  1.00800000E+00
  1.00800000E+00  1.20100000E+01  1.00800000E+00  1.00800000E+00  1.00800000E+00
  1.00800000E+00  1.00800000E+00  1.20100000E+01  1.20100000E+01  1.00800000E+00
  1.00800000E+00  1.00800000E+00  1.20100000E+01  1.00800000E+00  1.00800000E+00
  1.00800000E+00  1.00800000E+00  3.20600000E+01  1.20100000E+01  1.20100000E+01
  1.20100000E+01  1.20100000E+01  1.20100000E+01  3.20600000E+01  1.20100000E+01
  1.20100000E+01  1.00800000E+00  1.20100000E+01  1.20100000E+01  1.20100000E+01
  1.20100000E+01  1.20100000E+01  1.00800000E+00  1.20100000E+01  1.20100000E+01
  1.00800000E+00  1.00800000E+00  1.20100000E+01  1.00800000E+00  1.00800000E+00
  1.20100000E+01  1.00800000E+00  1.00800000E+00  1.20100000E+01  1.00800000E+00
  1.00800000E+00  1.20100000E+01  1.20100000E+01  1.00800000E+00  1.00800000E+00
  1.20100000E+01  1.20100000E+01  1.20100000E+01  1.00800000E+00  1.00800000E+00
  1.20100000E+01  1.00800000E+00  1.20100000E+01  1.00800000E+00  1.20100000E+01
  1.00800000E+00  1.00800000E+00  1.20100000E+01  1.00800000E+00  1.00800000E+00
  1.20100000E+01  1.00800000E+00  1.00800000E+00  1.00800000E+00  1.00800000E+00
  1.00800000E+00  1.20100000E+01  1.20100000E+01  1.00800000E+00  1.00800000E+00
  1.00800000E+00  1.20100000E+01  1.00800000E+00  1.00800000E+00  1.00800000E+00
  1.00800000E+00  3.20600000E+01  1.20100000E+01  1.20100000E+01  1.20100000E+01
  1.20100000E+01  1.20100000E+01  3.20600000E+01  1.20100000E+01  1.20100000E+01
  1.00800000E+00  1.20100000E+01  1.20100000E+01  1.20100000E+01  1.20100000E+01
  1.20100000E+01  1.00800000E+00  1.20100000E+01  1.20100000E+01  1.00800000E+00
  1.00800000E+00  1.20100000E+01  1.00800000E+00  1.00800000E+00  1.20100000E+01
  1.00800000E+00  1.00800000E+00  1.20100000E+01  1.00800000E+00  1.00800000E+00
  1.20100000E+01  1.20100000E+01  1.00800000E+00  1.00800000E+00  1.20100000E+01
  1.20100000E+01  1.20100000E+01  1.00800000E+00  1.00800000E+00  1.20100000E+01
  1.00800000E+00  1.20100000E+01  1.00800000E+00  1.20100000E+01  1.00800000E+00
  1.00800000E+00  1.20100000E+01  1.00800000E+00  1.00800000E+00  1.20100000E+01
  1.00800000E+00  1.00800000E+00  1.00800000E+00  1.00800000E+00  1.00800000E+00
  1.20100000E+01  1.20100000E+01  1.00800000E+00  1.00800000E+00  1.00800000E+00
  1.20100000E+01  1.00800000E+00  1.00800000E+00  1.00800000E+00  1.00800000E+00
  3.20600000E+01  1.20100000E+01  1.20100000E+01  1.20100000E+01  1.20100000E+01
  1.20100000E+01  3.20600000E+01  1.20100000E+01  1.20100000E+01  1.00800000E+00
  1.20100000E+01  1.20100000E+01  1.20100000E+01  1.20100000E+01  1.20100000E+01
  1.00800000E+00  1.20100000E+01  1.20100000E+01  1.00800000E+00  1.00800000E+00
  1.20100000E+01  1.00800000E+00  1.00800000E+00  1.20100000E+01  1.00800000E+00
  1.00800000E+00  1.20100000E+01  1.00800000E+00  1.00800000E+00  1.20100000E+01
  1.20100000E+01  1.00800000E+00  1.00800000E+00  1.20100000E+01  1.20100000E+01
  1.20100000E+01  1.00800000E+00  1.00800000E+00  1.20100000E+01  1.00800000E+00
  1.20100000E+01  1.00800000E+00  1.20100000E+01  1.00800000E+00  1.00800000E+00
  1.20100000E+01  1.00800000E+00  1.00800000E+00  1.20100000E+01  1.00800000E+00
  1.00800000E+00  1.00800000E+00  1.00800000E+00  1.00800000E+00  1.20100000E+01
  1.20100000E+01  1.00800000E+00  1.00800000E+00  1.00800000E+00  1.20100000E+01
  1.00800000E+00  1.00800000E+00  1.00800000E+00  1.00800000E+00  3.20600000E+01
  1.20100000E+01  1.20100000E+01  1.20100000E+01  1.20100000E+01  1.20100000E+01
  3.20600000E+01  1.20100000E+01  1.20100000E+01  1.00800000E+00  1.20100000E+01
  1.20100000E+01  1.20100000E+01  1.20100000E+01  1.20100000E+01  1.00800000E+00
  1.20100000E+01  1.20100000E+01  1.00800000E+00  1.00800000E+00  1.20100000E+01
  1.00800000E+00  1.00800000E+00  1.20100000E+01  1.00800000E+00  1.00800000E+00
  1.20100000E+01  1.00800000E+00  1.00800000E+00  1.20100000E+01  1.20100000E+01
  1.00800000E+00  1.00800000E+00  1.20100000E+01  1.20100000E+01  1.20100000E+01
  1.00800000E+00  1.00800000E+00  1.20100000E+01  1.00800000E+00  1.20100000E+01
  1.00800000E+00  1.20100000E+01  1.00800000E+00  1.00800000E+00  1.20100000E+01
  1.00800000E+00  1.00800000E+00  1.20100000E+01  1.00800000E+00  1.00800000E+00
  1.00800000E+00  1.00800000E+00  1.00800000E+00  1.20100000E+01  1.20100000E+01
  1.00800000E+00  1.00800000E+00  1.00800000E+00  1.20100000E+01  1.00800000E+00
  1.00800000E+00  1.00800000E+00  1.00800000E+00  3.20600000E+01  1.20100000E+01
  1.20100000E+01  1.20100000E+01  1.20100000E+01  1.20100000E+01  3.20600000E+01
  1.20100000E+01  1.20100000E+01  1.00800000E+00  1.20100000E+01  1.20100000E+01
  1.20100000E+01  1.20100000E+01  1.20100000E+01  1.00800000E+00  1.20100000E+01
  1.20100000E+01  1.00800000E+00  1.00800000E+00  1.20100000E+01  1.00800000E+00
  1.00800000E+00  1.20100000E+01  1.00800000E+00  1.00800000E+00  1.20100000E+01
  1.00800000E+00  1.00800000E+00  1.20100000E+01  1.20100000E+01  1.00800000E+00
  1.00800000E+00  1.20100000E+01  1.20100000E+01  1.20100000E+01  1.00800000E+00
  1.00800000E+00  1.20100000E+01  1.00800000E+00  1.20100000E+01  1.00800000E+00
  1.20100000E+01  1.00800000E+00  1.00800000E+00  1.20100000E+01  1.00800000E+00
  1.00800000E+00  1.20100000E+01  1.00800000E+00  1.00800000E+00  1.00800000E+00
  1.00800000E+00  1.00800000E+00  1.20100000E+01  1.20100000E+01  1.00800000E+00
  1.00800000E+00  1.00800000E+00  1.20100000E+01  1.00800000E+00  1.00800000E+00
  1.00800000E+00  1.00800000E+00  3.20600000E+01  1.20100000E+01  1.20100000E+01
  1.20100000E+01  1.20100000E+01  1.20100000E+01  3.20600000E+01  1.20100000E+01
  1.20100000E+01  1.00800000E+00  1.20100000E+01  1.20100000E+01  1.20100000E+01
  1.20100000E+01  1.20100000E+01  1.00800000E+00  1.20100000E+01  1.20100000E+01
  1.00800000E+00  1.00800000E+00  1.20100000E+01  1.00800000E+00  1.00800000E+00
  1.20100000E+01  1.00800000E+00  1.00800000E+00  1.20100000E+01  1.00800000E+00
  1.00800000E+00  1.20100000E+01  1.20100000E+01  1.00800000E+00  1.00800000E+00
  1.20100000E+01  1.20100000E+01  1.20100000E+01  1.00800000E+00  1.00800000E+00
  1.20100000E+01  1.00800000E+00  1.20100000E+01  1.00800000E+00  1.20100000E+01
  1.00800000E+00  1.00800000E+00  1.20100000E+01  1.00800000E+00  1.00800000E+00
  1.20100000E+01  1.00800000E+00  1.00800000E+00  1.00800000E+00  1.00800000E+00
  1.00800000E+00  1.20100000E+01  1.20100000E+01  1.00800000E+00  1.00800000E+00
  1.00800000E+00  1.20100000E+01  1.00800000E+00  1.00800000E+00  1.00800000E+00
  1.00800000E+00  3.20600000E+01  1.20100000E+01  1.20100000E+01  1.20100000E+01
  1.20100000E+01  1.20100000E+01  3.20600000E+01  1.20100000E+01  1.20100000E+01
  1.00800000E+00  1.20100000E+01  1.20100000E+01  1.20100000E+01  1.20100000E+01
  1.20100000E+01  1.00800000E+00  1.20100000E+01  1.20100000E+01  1.00800000E+00
  1.00800000E+00  1.20100000E+01  1.00800000E+00  1.00800000E+00  1.20100000E+01
  1.00800000E+00  1.00800000E+00  1.20100000E+01  1.00800000E+00  1.00800000E+00
  1.20100000E+01  1.20100000E+01  1.00800000E+00  1.00800000E+00  1.20100000E+01
  1.20100000E+01  1.20100000E+01  1.00800000E+00  1.00800000E+00  1.20100000E+01
  1.00800000E+00  1.20100000E+01  1.00800000E+00  1.20100000E+01  1.00800000E+00
  1.00800000E+00  1.20100000E+01  1.00800000E+00  1.00800000E+00  1.20100000E+01
  1.00800000E+00  1.00800000E+00  1.00800000E+00  1.00800000E+00  1.00800000E+00
  1.20100000E+01  1.20100000E+01  1.00800000E+00  1.00800000E+00  1.00800000E+00
  1.20100000E+01  1.00800000E+00  1.00800000E+00  1.00800000E+00  1.00800000E+00
  3.20600000E+01  1.20100000E+01  1.20100000E+01  1.20100000E+01  1.20100000E+01
  1.20100000E+01  3.20600000E+01  1.20100000E+01  1.20100000E+01  1.00800000E+00
  1.20100000E+01  1.20100000E+01  1.20100000E+01  1.20100000E+01  1.20100000E+01
  1.00800000E+00  1.20100000E+01  1.20100000E+01  1.00800000E+00  1.00800000E+00
  1.20100000E+01  1.00800000E+00  1.00800000E+00  1.20100000E+01  1.00800000E+00
  1.00800000E+00  1.20100000E+01  1.00800000E+00  1.00800000E+00  1.20100000E+01
  1.20100000E+01  1.00800000E+00  1.00800000E+00  1.20100000E+01  1.20100000E+01
  1.20100000E+01  1.00800000E+00  1.00800000E+00  1.20100000E+01  1.00800000E+00
  1.20100000E+01  1.00800000E+00  1.20100000E+01  1.00800000E+00  1.00800000E+00
  1.20100000E+01  1.00800000E+00  1.00800000E+00  1.20100000E+01  1.00800000E+00
  1.00800000E+00  1.00800000E+00  1.00800000E+00  1.00800000E+00  1.20100000E+01
  1.20100000E+01  1.00800000E+00  1.00800000E+00  1.00800000E+00  1.20100000E+01
  1.00800000E+00  1.00800000E+00  1.00800000E+00  1.00800000E+00  3.20600000E+01
  1.20100000E+01  1.20100000E+01  1.20100000E+01  1.20100000E+01  1.20100000E+01
  3.20600000E+01  1.20100000E+01  1.20100000E+01  1.00800000E+00  1.20100000E+01
  1.20100000E+01  1.20100000E+01  1.20100000E+01  1.20100000E+01  1.00800000E+00
  1.20100000E+01  1.20100000E+01  1.00800000E+00  1.00800000E+00  1.20100000E+01
  1.00800000E+00  1.00800000E+00  1.20100000E+01  1.00800000E+00  1.00800000E+00
  1.20100000E+01  1.00800000E+00  1.00800000E+00  1.20100000E+01  1.20100000E+01
  1.00800000E+00  1.00800000E+00  1.20100000E+01  1.20100000E+01  1.20100000E+01
  1.00800000E+00  1.00800000E+00  1.20100000E+01  1.00800000E+00  1.20100000E+01
  1.00800000E+00  1.20100000E+01  1.00800000E+00  1.00800000E+00  1.20100000E+01
  1.00800000E+00  1.00800000E+00  1.20100000E+01  1.00800000E+00  1.00800000E+00
  1.00800000E+00  1.00800000E+00  1.00800000E+00  1.20100000E+01  1.20100000E+01
  1.00800000E+00  1.00800000E+00  1.00800000E+00  1.20100000E+01  1.00800000E+00
  1.00800000E+00  1.00800000E+00  1.00800000E+00  3.20600000E+01  1.20100000E+01
  1.20100000E+01  1.20100000E+01  1.20100000E+01  1.20100000E+01  3.20600000E+01
  1.20100000E+01  1.20100000E+01  1.00800000E+00  1.20100000E+01  1.20100000E+01
  1.20100000E+01  1.20100000E+01  1.20100000E+01  1.00800000E+00  1.20100000E+01
  1.20100000E+01  1.00800000E+00  1.00800000E+00  1.20100000E+01  1.00800000E+00
  1.00800000E+00  1.20100000E+01  1.00800000E+00  1.00800000E+00  1.20100000E+01
  1.00800000E+00  1.00800000E+00  1.20100000E+01  1.20100000E+01  1.00800000E+00
  1.00800000E+00  1.20100000E+01  1.20100000E+01  1.20100000E+01  1.00800000E+00
  1.00800000E+00  1.20100000E+01  1.00800000E+00  1.20100000E+01  1.00800000E+00
  1.20100000E+01  1.00800000E+00  1.00800000E+00  1.20100000E+01  1.00800000E+00
  1.00800000E+00  1.20100000E+01  1.00800000E+00  1.00800000E+00  1.00800000E+00
  1.00800000E+00  1.00800000E+00  1.20100000E+01  1.20100000E+01  1.00800000E+00
  1.00800000E+00  1.00800000E+00  1.20100000E+01  1.00800000E+00  1.00800000E+00
  1.00800000E+00  1.00800000E+00  3.20600000E+01  1.20100000E+01  1.20100000E+01
  1.20100000E+01  1.20100000E+01  1.20100000E+01  3.20600000E+01  1.20100000E+01
  1.20100000E+01  1.00800000E+00  1.20100000E+01  1.20100000E+01  1.20100000E+01
  1.20100000E+01  1.20100000E+01  1.00800000E+00  1.20100000E+01  1.20100000E+01
  1.00800000E+00  1.00800000E+00  1.20100000E+01  1.00800000E+00  1.00800000E+00
  1.20100000E+01  1.00800000E+00  1.00800000E+00  1.20100000E+01  1.00800000E+00
  1.00800000E+00  1.20100000E+01  1.20100000E+01  1.00800000E+00  1.00800000E+00
  1.20100000E+01  1.20100000E+01  1.20100000E+01  1.00800000E+00  1.00800000E+00
  1.20100000E+01  1.00800000E+00  1.20100000E+01  1.00800000E+00  1.20100000E+01
  1.00800000E+00  1.00800000E+00  1.20100000E+01  1.00800000E+00  1.00800000E+00
  1.20100000E+01  1.00800000E+00  1.00800000E+00  1.00800000E+00  1.00800000E+00
  1.00800000E+00  1.20100000E+01  1.20100000E+01  1.00800000E+00  1.00800000E+00
  1.00800000E+00  1.20100000E+01  1.00800000E+00  1.00800000E+00  1.00800000E+00
  1.00800000E+00  3.20600000E+01  1.20100000E+01  1.20100000E+01  1.20100000E+01
  1.20100000E+01  1.20100000E+01  3.20600000E+01  1.20100000E+01  1.20100000E+01
  1.00800000E+00  1.20100000E+01  1.20100000E+01  1.20100000E+01  1.20100000E+01
  1.20100000E+01  1.00800000E+00  1.20100000E+01  1.20100000E+01  1.00800000E+00
  1.00800000E+00  1.20100000E+01  1.00800000E+00  1.00800000E+00  1.20100000E+01
  1.00800000E+00  1.00800000E+00  1.20100000E+01  1.00800000E+00  1.00800000E+00
  1.20100000E+01  1.20100000E+01  1.00800000E+00  1.00800000E+00  1.20100000E+01
  1.20100000E+01  1.20100000E+01  1.00800000E+00  1.00800000E+00  1.20100000E+01
  1.00800000E+00  1.20100000E+01  1.00800000E+00  1.20100000E+01  1.00800000E+00
  1.00800000E+00  1.20100000E+01  1.00800000E+00  1.00800000E+00  1.20100000E+01
  1.00800000E+00  1.00800000E+00  1.00800000E+00  1.00800000E+00  1.00800000E+00
  1.20100000E+01  1.20100000E+01  1.00800000E+00  1.00800000E+00  1.00800000E+00
  1.20100000E+01  1.00800000E+00  1.00800000E+00  1.00800000E+00  1.00800000E+00
  3.20600000E+01  1.20100000E+01  1.20100000E+01  1.20100000E+01  1.20100000E+01
  1.20100000E+01  3.20600000E+01  1.20100000E+01  1.20100000E+01  1.00800000E+00
  1.20100000E+01  1.20100000E+01  1.20100000E+01  1.20100000E+01  1.20100000E+01
  1.00800000E+00  1.20100000E+01  1.20100000E+01  1.00800000E+00  1.00800000E+00
  1.20100000E+01  1.00800000E+00  1.00800000E+00  1.20100000E+01  1.00800000E+00
  1.00800000E+00  1.20100000E+01  1.00800000E+00  1.00800000E+00  1.20100000E+01
  1.20100000E+01  1.00800000E+00  1.00800000E+00  1.20100000E+01  1.20100000E+01
  1.20100000E+01  1.00800000E+00  1.00800000E+00  1.20100000E+01  1.00800000E+00
  1.20100000E+01  1.00800000E+00  1.20100000E+01  1.00800000E+00  1.00800000E+00
  1.20100000E+01  1.00800000E+00  1.00800000E+00  1.20100000E+01  1.00800000E+00
  1.00800000E+00  1.00800000E+00  1.00800000E+00  1.00800000E+00  1.20100000E+01
  1.20100000E+01  1.00800000E+00  1.00800000E+00  1.00800000E+00  1.20100000E+01
  1.00800000E+00  1.00800000E+00  1.00800000E+00  1.00800000E+00  3.20600000E+01
  1.20100000E+01  1.20100000E+01  1.20100000E+01  1.20100000E+01  1.20100000E+01
  3.20600000E+01  1.20100000E+01  1.20100000E+01  1.00800000E+00  1.20100000E+01
  1.20100000E+01  1.20100000E+01  1.20100000E+01  1.20100000E+01  1.00800000E+00
  1.20100000E+01  1.20100000E+01  1.00800000E+00  1.00800000E+00  1.20100000E+01
  1.00800000E+00  1.00800000E+00  1.20100000E+01  1.00800000E+00  1.00800000E+00
  1.20100000E+01  1.00800000E+00  1.00800000E+00  1.20100000E+01  1.20100000E+01
  1.00800000E+00  1.00800000E+00  1.20100000E+01  1.20100000E+01  1.20100000E+01
  1.00800000E+00  1.00800000E+00  1.20100000E+01  1.00800000E+00  1.20100000E+01
  1.00800000E+00  1.20100000E+01  1.00800000E+00  1.00800000E+00  1.20100000E+01
  1.00800000E+00  1.00800000E+00  1.20100000E+01  1.00800000E+00  1.00800000E+00
  1.00800000E+00  1.00800000E+00  1.00800000E+00  1.20100000E+01  1.20100000E+01
  1.00800000E+00  1.00800000E+00  1.00800000E+00  1.20100000E+01  1.00800000E+00
  1.00800000E+00  1.00800000E+00  1.00800000E+00  3.20600000E+01  1.20100000E+01
  1.20100000E+01  1.20100000E+01  1.20100000E+01  1.20100000E+01  3.20600000E+01
  1.20100000E+01  1.20100000E+01  1.00800000E+00  1.20100000E+01  1.20100000E+01
  1.20100000E+01  1.20100000E+01  1.20100000E+01  1.00800000E+00  1.20100000E+01
  1.20100000E+01  1.00800000E+00  1.00800000E+00  1.20100000E+01  1.00800000E+00
  1.00800000E+00  1.20100000E+01  1.00800000E+00  1.00800000E+00  1.20100000E+01
  1.00800000E+00  1.00800000E+00  1.20100000E+01  1.20100000E+01  1.00800000E+00
  1.00800000E+00  1.20100000E+01  1.20100000E+01  1.20100000E+01  1.00800000E+00
  1.00800000E+00  1.20100000E+01  1.00800000E+00  1.20100000E+01  1.00800000E+00
  1.20100000E+01  1.00800000E+00  1.00800000E+00  1.20100000E+01  1.00800000E+00
  1.00800000E+00  1.20100000E+01  1.00800000E+00  1.00800000E+00  1.00800000E+00
  1.00800000E+00  1.00800000E+00  1.20100000E+01  1.20100000E+01  1.00800000E+00
  1.00800000E+00  1.00800000E+00  1.20100000E+01  1.00800000E+00  1.00800000E+00
  1.00800000E+00  1.00800000E+00  3.20600000E+01  1.20100000E+01  1.20100000E+01
  1.20100000E+01  1.20100000E+01  1.20100000E+01  3.20600000E+01  1.20100000E+01
  1.20100000E+01  1.00800000E+00  1.20100000E+01  1.20100000E+01  1.20100000E+01
  1.20100000E+01  1.20100000E+01  1.00800000E+00  1.20100000E+01  1.20100000E+01
  1.00800000E+00  1.00800000E+00  1.20100000E+01  1.00800000E+00  1.00800000E+00
  1.20100000E+01  1.00800000E+00  1.00800000E+00  1.20100000E+01  1.00800000E+00
  1.00800000E+00  1.20100000E+01  1.20100000E+01  1.00800000E+00  1.00800000E+00
  1.20100000E+01  1.20100000E+01  1.20100000E+01  1.00800000E+00  1.00800000E+00
  1.20100000E+01  1.00800000E+00  1.20100000E+01  1.00800000E+00  1.20100000E+01
  1.00800000E+00  1.00800000E+00  1.20100000E+01  1.00800000E+00  1.00800000E+00
  1.20100000E+01  1.00800000E+00  1.00800000E+00  1.00800000E+00  1.00800000E+00
  1.00800000E+00  1.20100000E+01  1.20100000E+01  1.00800000E+00  1.00800000E+00
  1.00800000E+00  1.20100000E+01  1.00800000E+00  1.00800000E+00  1.00800000E+00
  1.00800000E+00  3.20600000E+01  1.20100000E+01  1.20100000E+01  1.20100000E+01
  1.20100000E+01  1.20100000E+01  3.20600000E+01  1.20100000E+01  1.20100000E+01
  1.00800000E+00  1.20100000E+01  1.20100000E+01  1.20100000E+01  1.20100000E+01
  1.20100000E+01  1.00800000E+00  1.20100000E+01  1.20100000E+01  1.00800000E+00
  1.00800000E+00  1.20100000E+01  1.00800000E+00  1.00800000E+00  1.20100000E+01
  1.00800000E+00  1.00800000E+00  1.20100000E+01  1.00800000E+00  1.00800000E+00
  1.20100000E+01  1.20100000E+01  1.00800000E+00  1.00800000E+00  1.20100000E+01
  1.20100000E+01  1.20100000E+01  1.00800000E+00  1.00800000E+00  1.20100000E+01
  1.00800000E+00  1.20100000E+01  1.00800000E+00  1.20100000E+01  1.00800000E+00
  1.00800000E+00  1.20100000E+01  1.00800000E+00  1.00800000E+00  1.20100000E+01
  1.00800000E+00  1.00800000E+00  1.00800000E+00  1.00800000E+00  1.00800000E+00
  1.20100000E+01  1.20100000E+01  1.00800000E+00  1.00800000E+00  1.00800000E+00
  1.20100000E+01  1.00800000E+00  1.00800000E+00  1.00800000E+00  1.00800000E+00
  3.20600000E+01  1.20100000E+01  1.20100000E+01  1.20100000E+01  1.20100000E+01
  1.20100000E+01  3.20600000E+01  1.20100000E+01  1.20100000E+01  1.00800000E+00
  1.20100000E+01  1.20100000E+01  1.20100000E+01  1.20100000E+01  1.20100000E+01
  1.00800000E+00  1.20100000E+01  1.20100000E+01  1.00800000E+00  1.00800000E+00
  1.20100000E+01  1.00800000E+00  1.00800000E+00  1.20100000E+01  1.00800000E+00
  1.00800000E+00  1.20100000E+01  1.00800000E+00  1.00800000E+00  1.20100000E+01
  1.20100000E+01  1.00800000E+00  1.00800000E+00  1.20100000E+01  1.20100000E+01
  1.20100000E+01  1.00800000E+00  1.00800000E+00  1.20100000E+01  1.00800000E+00
  1.20100000E+01  1.00800000E+00  1.20100000E+01  1.00800000E+00  1.00800000E+00
  1.20100000E+01  1.00800000E+00  1.00800000E+00  1.20100000E+01  1.00800000E+00
  1.00800000E+00  1.00800000E+00  1.00800000E+00  1.00800000E+00  1.20100000E+01
  1.20100000E+01  1.00800000E+00  1.00800000E+00  1.00800000E+00  1.20100000E+01
  1.00800000E+00  1.00800000E+00  1.00800000E+00  1.00800000E+00  3.20600000E+01
  1.20100000E+01  1.20100000E+01  1.20100000E+01  1.20100000E+01  1.20100000E+01
  3.20600000E+01  1.20100000E+01  1.20100000E+01  1.00800000E+00  1.20100000E+01
  1.20100000E+01  1.20100000E+01  1.20100000E+01  1.20100000E+01  1.00800000E+00
  1.20100000E+01  1.20100000E+01  1.00800000E+00  1.00800000E+00  1.20100000E+01
  1.00800000E+00  1.00800000E+00  1.20100000E+01  1.00800000E+00  1.00800000E+00
  1.20100000E+01  1.00800000E+00  1.00800000E+00  1.20100000E+01  1.20100000E+01
  1.00800000E+00  1.00800000E+00  1.20100000E+01  1.20100000E+01  1.20100000E+01
  1.00800000E+00  1.00800000E+00  1.20100000E+01  1.00800000E+00  1.20100000E+01
  1.00800000E+00  1.20100000E+01  1.00800000E+00  1.00800000E+00  1.20100000E+01
  1.00800000E+00  1.00800000E+00  1.20100000E+01  1.00800000E+00  1.00800000E+00
  1.00800000E+00  1.00800000E+00  1.00800000E+00  1.20100000E+01  1.20100000E+01
  1.00800000E+00  1.00800000E+00  1.00800000E+00  1.20100000E+01  1.00800000E+00
  1.00800000E+00  1.00800000E+00  1.00800000E+00  3.20600000E+01  1.20100000E+01
  1.20100000E+01  1.20100000E+01  1.20100000E+01  1.20100000E+01  3.20600000E+01
  1.20100000E+01  1.20100000E+01  1.00800000E+00  1.20100000E+01  1.20100000E+01
  1.20100000E+01  1.20100000E+01  1.20100000E+01  1.00800000E+00  1.20100000E+01
  1.20100000E+01  1.00800000E+00  1.00800000E+00  1.20100000E+01  1.00800000E+00
  1.00800000E+00  1.20100000E+01  1.00800000E+00  1.00800000E+00  1.20100000E+01
  1.00800000E+00  1.00800000E+00  1.20100000E+01  1.20100000E+01  1.00800000E+00
  1.00800000E+00  1.20100000E+01  1.20100000E+01  1.20100000E+01  1.00800000E+00
  1.00800000E+00  1.20100000E+01  1.00800000E+00  1.20100000E+01  1.00800000E+00
  1.20100000E+01  1.00800000E+00  1.00800000E+00  1.20100000E+01  1.00800000E+00
  1.00800000E+00  1.20100000E+01  1.00800000E+00  1.00800000E+00  1.00800000E+00
  1.00800000E+00  1.00800000E+00  1.20100000E+01  1.20100000E+01  1.00800000E+00
  1.00800000E+00  1.00800000E+00  1.20100000E+01  1.00800000E+00  1.00800000E+00
  1.00800000E+00  1.00800000E+00  3.20600000E+01  1.20100000E+01  1.20100000E+01
  1.20100000E+01  1.20100000E+01  1.20100000E+01  3.20600000E+01  1.20100000E+01
  1.20100000E+01  1.00800000E+00  1.20100000E+01  1.20100000E+01  1.20100000E+01
  1.20100000E+01  1.20100000E+01  1.00800000E+00  1.20100000E+01  1.20100000E+01
  1.00800000E+00  1.00800000E+00  1.20100000E+01  1.00800000E+00  1.00800000E+00
  1.20100000E+01  1.00800000E+00  1.00800000E+00  1.20100000E+01  1.00800000E+00
  1.00800000E+00  1.20100000E+01  1.20100000E+01  1.00800000E+00  1.00800000E+00
  1.20100000E+01  1.20100000E+01  1.20100000E+01  1.00800000E+00  1.00800000E+00
  1.20100000E+01  1.00800000E+00  1.20100000E+01  1.00800000E+00  1.20100000E+01
  1.00800000E+00  1.00800000E+00  1.20100000E+01  1.00800000E+00  1.00800000E+00
  1.20100000E+01  1.00800000E+00  1.00800000E+00  1.00800000E+00  1.00800000E+00
  1.00800000E+00  1.20100000E+01  1.20100000E+01  1.00800000E+00  1.00800000E+00
  1.00800000E+00  1.20100000E+01  1.00800000E+00  1.00800000E+00  1.00800000E+00
  1.00800000E+00  3.20600000E+01  1.20100000E+01  1.20100000E+01  1.20100000E+01
  1.20100000E+01  1.20100000E+01  3.20600000E+01  1.20100000E+01  1.20100000E+01
  1.00800000E+00  1.20100000E+01  1.20100000E+01  1.20100000E+01  1.20100000E+01
  1.20100000E+01  1.00800000E+00  1.20100000E+01  1.20100000E+01  1.00800000E+00
  1.00800000E+00  1.20100000E+01  1.00800000E+00  1.00800000E+00  1.20100000E+01
  1.00800000E+00  1.00800000E+00  1.20100000E+01  1.00800000E+00  1.00800000E+00
  1.20100000E+01  1.20100000E+01  1.00800000E+00  1.00800000E+00  1.20100000E+01
  1.20100000E+01  1.20100000E+01  1.00800000E+00  1.00800000E+00  1.20100000E+01
  1.00800000E+00  1.20100000E+01  1.00800000E+00  1.20100000E+01  1.00800000E+00
  1.00800000E+00  1.20100000E+01  1.00800000E+00  1.00800000E+00  1.20100000E+01
  1.00800000E+00  1.00800000E+00  1.00800000E+00  1.00800000E+00  1.00800000E+00
  1.20100000E+01  1.20100000E+01  1.00800000E+00  1.00800000E+00  1.00800000E+00
  1.20100000E+01  1.00800000E+00  1.00800000E+00  1.00800000E+00  1.00800000E+00
  3.20600000E+01  1.20100000E+01  1.20100000E+01  1.20100000E+01  1.20100000E+01
  1.20100000E+01  3.20600000E+01  1.20100000E+01  1.20100000E+01  1.00800000E+00
  1.20100000E+01  1.20100000E+01  1.20100000E+01  1.20100000E+01  1.20100000E+01
  1.00800000E+00  1.20100000E+01  1.20100000E+01  1.00800000E+00  1.00800000E+00
  1.20100000E+01  1.00800000E+00  1.00800000E+00  1.20100000E+01  1.00800000E+00
  1.00800000E+00  1.20100000E+01  1.00800000E+00  1.00800000E+00  1.20100000E+01
  1.20100000E+01  1.00800000E+00  1.00800000E+00  1.20100000E+01  1.20100000E+01
  1.20100000E+01  1.00800000E+00  1.00800000E+00  1.20100000E+01  1.00800000E+00
  1.20100000E+01  1.00800000E+00  1.20100000E+01  1.00800000E+00  1.00800000E+00
  1.20100000E+01  1.00800000E+00  1.00800000E+00  1.20100000E+01  1.00800000E+00
  1.00800000E+00  1.00800000E+00  1.00800000E+00  1.00800000E+00  1.20100000E+01
  1.20100000E+01  1.00800000E+00  1.00800000E+00  1.00800000E+00  1.20100000E+01
  1.00800000E+00  1.00800000E+00  1.00800000E+00  1.00800000E+00  3.20600000E+01
  1.20100000E+01  1.20100000E+01  1.20100000E+01  1.20100000E+01  1.20100000E+01
  3.20600000E+01  1.20100000E+01  1.20100000E+01  1.00800000E+00  1.20100000E+01
  1.20100000E+01  1.20100000E+01  1.20100000E+01  1.20100000E+01  1.00800000E+00
  1.20100000E+01  1.20100000E+01  1.00800000E+00  1.00800000E+00  1.20100000E+01
  1.00800000E+00  1.00800000E+00  1.20100000E+01  1.00800000E+00  1.00800000E+00
  1.20100000E+01  1.00800000E+00  1.00800000E+00  1.20100000E+01  1.20100000E+01
  1.00800000E+00  1.00800000E+00  1.20100000E+01  1.20100000E+01  1.20100000E+01
  1.00800000E+00  1.00800000E+00  1.20100000E+01  1.00800000E+00  1.20100000E+01
  1.00800000E+00  1.20100000E+01  1.00800000E+00  1.00800000E+00  1.20100000E+01
  1.00800000E+00  1.00800000E+00  1.20100000E+01  1.00800000E+00  1.00800000E+00
  1.00800000E+00  1.00800000E+00  1.00800000E+00  1.20100000E+01  1.20100000E+01
  1.00800000E+00  1.00800000E+00  1.00800000E+00  1.20100000E+01  1.00800000E+00
  1.00800000E+00  1.00800000E+00  1.00800000E+00  3.20600000E+01  1.20100000E+01
  1.20100000E+01  1.20100000E+01  1.20100000E+01  1.20100000E+01  3.20600000E+01
  1.20100000E+01  1.20100000E+01  1.00800000E+00  1.20100000E+01  1.20100000E+01
  1.20100000E+01  1.20100000E+01  1.20100000E+01  1.00800000E+00  1.20100000E+01
  1.20100000E+01  1.00800000E+00  1.00800000E+00  1.20100000E+01  1.00800000E+00
  1.00800000E+00  1.20100000E+01  1.00800000E+00  1.00800000E+00  1.20100000E+01
  1.00800000E+00  1.00800000E+00  1.20100000E+01  1.20100000E+01  1.00800000E+00
  1.00800000E+00  1.20100000E+01  1.20100000E+01  1.20100000E+01  1.00800000E+00
  1.00800000E+00  1.20100000E+01  1.00800000E+00  1.20100000E+01  1.00800000E+00
  1.20100000E+01  1.00800000E+00  1.00800000E+00  1.20100000E+01  1.00800000E+00
  1.00800000E+00  1.20100000E+01  1.00800000E+00  1.00800000E+00  1.00800000E+00
  1.00800000E+00  1.00800000E+00  1.20100000E+01  1.20100000E+01  1.00800000E+00
  1.00800000E+00  1.00800000E+00  1.20100000E+01  1.00800000E+00  1.00800000E+00
  1.00800000E+00  1.00800000E+00  3.20600000E+01  1.20100000E+01  1.20100000E+01
  1.20100000E+01  1.20100000E+01  1.20100000E+01  3.20600000E+01  1.20100000E+01
  1.20100000E+01  1.00800000E+00  1.20100000E+01  1.20100000E+01  1.20100000E+01
  1.20100000E+01  1.20100000E+01  1.00800000E+00  1.20100000E+01  1.20100000E+01
  1.00800000E+00  1.00800000E+00  1.20100000E+01  1.00800000E+00  1.00800000E+00
  1.20100000E+01  1.00800000E+00  1.00800000E+00  1.20100000E+01  1.00800000E+00
  1.00800000E+00  1.20100000E+01  1.20100000E+01  1.00800000E+00  1.00800000E+00
  1.20100000E+01  1.20100000E+01  1.20100000E+01  1.00800000E+00  1.00800000E+00
  1.20100000E+01  1.00800000E+00  1.20100000E+01  1.00800000E+00  1.20100000E+01
  1.00800000E+00  1.00800000E+00  1.20100000E+01  1.00800000E+00  1.00800000E+00
  1.20100000E+01  1.00800000E+00  1.00800000E+00  1.00800000E+00  1.00800000E+00
  1.00800000E+00  1.20100000E+01  1.20100000E+01  1.00800000E+00  1.00800000E+00
  1.00800000E+00  1.20100000E+01  1.00800000E+00  1.00800000E+00  1.00800000E+00
  1.00800000E+00  3.20600000E+01  1.20100000E+01  1.20100000E+01  1.20100000E+01
  1.20100000E+01  1.20100000E+01  3.20600000E+01  1.20100000E+01  1.20100000E+01
  1.00800000E+00  1.20100000E+01  1.20100000E+01  1.20100000E+01  1.20100000E+01
  1.20100000E+01  1.00800000E+00  1.20100000E+01  1.20100000E+01  1.00800000E+00
  1.00800000E+00  1.20100000E+01  1.00800000E+00  1.00800000E+00  1.20100000E+01
  1.00800000E+00  1.00800000E+00  1.20100000E+01  1.00800000E+00  1.00800000E+00
  1.20100000E+01  1.20100000E+01  1.00800000E+00  1.00800000E+00  1.20100000E+01
  1.20100000E+01  1.20100000E+01  1.00800000E+00  1.00800000E+00  1.20100000E+01
  1.00800000E+00  1.20100000E+01  1.00800000E+00  1.20100000E+01  1.00800000E+00
  1.00800000E+00  1.20100000E+01  1.00800000E+00  1.00800000E+00  1.20100000E+01
  1.00800000E+00  1.00800000E+00  1.00800000E+00  1.00800000E+00  1.00800000E+00
  1.20100000E+01  1.20100000E+01  1.00800000E+00  1.00800000E+00  1.00800000E+00
  1.20100000E+01  1.00800000E+00  1.00800000E+00  1.00800000E+00  1.00800000E+00
  3.20600000E+01  1.20100000E+01  1.20100000E+01  1.20100000E+01  1.20100000E+01
  1.20100000E+01  3.20600000E+01  1.20100000E+01  1.20100000E+01  1.00800000E+00
  1.20100000E+01  1.20100000E+01  1.20100000E+01  1.20100000E+01  1.20100000E+01
  1.00800000E+00  1.20100000E+01  1.20100000E+01  1.00800000E+00  1.00800000E+00
  1.20100000E+01  1.00800000E+00  1.00800000E+00  1.20100000E+01  1.00800000E+00
  1.00800000E+00  1.20100000E+01  1.00800000E+00  1.00800000E+00  1.20100000E+01
  1.20100000E+01  1.00800000E+00  1.00800000E+00  1.20100000E+01  1.20100000E+01
  1.20100000E+01  1.00800000E+00  1.00800000E+00  1.20100000E+01  1.00800000E+00
  1.20100000E+01  1.00800000E+00  1.20100000E+01  1.00800000E+00  1.00800000E+00
  1.20100000E+01  1.00800000E+00  1.00800000E+00  1.20100000E+01  1.00800000E+00
  1.00800000E+00  1.00800000E+00  1.00800000E+00  1.00800000E+00  1.20100000E+01
  1.20100000E+01  1.00800000E+00  1.00800000E+00  1.00800000E+00  1.20100000E+01
  1.00800000E+00  1.00800000E+00  1.00800000E+00  1.00800000E+00  3.20600000E+01
  1.20100000E+01  1.20100000E+01  1.20100000E+01  1.20100000E+01  1.20100000E+01
  3.20600000E+01  1.20100000E+01  1.20100000E+01  1.00800000E+00  1.20100000E+01
  1.20100000E+01  1.20100000E+01  1.20100000E+01  1.20100000E+01  1.00800000E+00
  1.20100000E+01  1.20100000E+01  1.00800000E+00  1.00800000E+00  1.20100000E+01
  1.00800000E+00  1.00800000E+00  1.20100000E+01  1.00800000E+00  1.00800000E+00
  1.20100000E+01  1.00800000E+00  1.00800000E+00  1.20100000E+01  1.20100000E+01
  1.00800000E+00  1.00800000E+00  1.20100000E+01  1.20100000E+01  1.20100000E+01
  1.00800000E+00  1.00800000E+00  1.20100000E+01  1.00800000E+00  1.20100000E+01
  1.00800000E+00  1.20100000E+01  1.00800000E+00  1.00800000E+00  1.20100000E+01
  1.00800000E+00  1.00800000E+00  1.20100000E+01  1.00800000E+00  1.00800000E+00
  1.00800000E+00  1.00800000E+00  1.00800000E+00  1.20100000E+01  1.20100000E+01
  1.00800000E+00  1.00800000E+00  1.00800000E+00  1.20100000E+01  1.00800000E+00
  1.00800000E+00  1.00800000E+00  1.00800000E+00  3.20600000E+01  1.20100000E+01
  1.20100000E+01  1.20100000E+01  1.20100000E+01  1.20100000E+01  3.20600000E+01
  1.20100000E+01  1.20100000E+01  1.00800000E+00  1.20100000E+01  1.20100000E+01
  1.20100000E+01  1.20100000E+01  1.20100000E+01  1.00800000E+00  1.20100000E+01
  1.20100000E+01  1.00800000E+00  1.00800000E+00  1.20100000E+01  1.00800000E+00
  1.00800000E+00  1.20100000E+01  1.00800000E+00  1.00800000E+00  1.20100000E+01
  1.00800000E+00  1.00800000E+00  1.20100000E+01  1.20100000E+01  1.00800000E+00
  1.00800000E+00  1.20100000E+01  1.20100000E+01  1.20100000E+01  1.00800000E+00
  1.00800000E+00  1.20100000E+01  1.00800000E+00  1.20100000E+01  1.00800000E+00
  1.20100000E+01  1.00800000E+00  1.00800000E+00  1.20100000E+01  1.00800000E+00
  1.00800000E+00  1.20100000E+01  1.00800000E+00  1.00800000E+00  1.00800000E+00
  1.00800000E+00  1.00800000E+00  1.20100000E+01  1.20100000E+01  1.00800000E+00
  1.00800000E+00  1.00800000E+00  1.20100000E+01  1.00800000E+00  1.00800000E+00
  1.00800000E+00  1.00800000E+00  3.20600000E+01  1.20100000E+01  1.20100000E+01
  1.20100000E+01  1.20100000E+01  1.20100000E+01  3.20600000E+01  1.20100000E+01
  1.20100000E+01  1.00800000E+00  1.20100000E+01  1.20100000E+01  1.20100000E+01
  1.20100000E+01  1.20100000E+01  1.00800000E+00  1.20100000E+01  1.20100000E+01
  1.00800000E+00  1.00800000E+00  1.20100000E+01  1.00800000E+00  1.00800000E+00
  1.20100000E+01  1.00800000E+00  1.00800000E+00  1.20100000E+01  1.00800000E+00
  1.00800000E+00  1.20100000E+01  1.20100000E+01  1.00800000E+00  1.00800000E+00
  1.20100000E+01  1.20100000E+01  1.20100000E+01  1.00800000E+00  1.00800000E+00
  1.20100000E+01  1.00800000E+00  1.20100000E+01  1.00800000E+00  1.20100000E+01
  1.00800000E+00  1.00800000E+00  1.20100000E+01  1.00800000E+00  1.00800000E+00
  1.20100000E+01  1.00800000E+00  1.00800000E+00  1.00800000E+00  1.00800000E+00
  1.00800000E+00  1.20100000E+01  1.20100000E+01  1.00800000E+00  1.00800000E+00
  1.00800000E+00  1.20100000E+01  1.00800000E+00  1.00800000E+00  1.00800000E+00
  1.00800000E+00  3.20600000E+01  1.20100000E+01  1.20100000E+01  1.20100000E+01
  1.20100000E+01  1.20100000E+01  3.20600000E+01  1.20100000E+01  1.20100000E+01
  1.00800000E+00  1.20100000E+01  1.20100000E+01  1.20100000E+01  1.20100000E+01
  1.20100000E+01  1.00800000E+00  1.20100000E+01  1.20100000E+01  1.00800000E+00
  1.00800000E+00  1.20100000E+01  1.00800000E+00  1.00800000E+00  1.20100000E+01
  1.00800000E+00  1.00800000E+00  1.20100000E+01  1.00800000E+00  1.00800000E+00
  1.20100000E+01  1.20100000E+01  1.00800000E+00  1.00800000E+00  1.20100000E+01
  1.20100000E+01  1.20100000E+01  1.00800000E+00  1.00800000E+00  1.20100000E+01
  1.00800000E+00  1.20100000E+01  1.00800000E+00  1.20100000E+01  1.00800000E+00
  1.00800000E+00  1.20100000E+01  1.00800000E+00  1.00800000E+00  1.20100000E+01
  1.00800000E+00  1.00800000E+00  1.00800000E+00  1.00800000E+00  1.00800000E+00
  1.20100000E+01  1.20100000E+01  1.00800000E+00  1.00800000E+00  1.00800000E+00
  1.20100000E+01  1.00800000E+00  1.00800000E+00  1.00800000E+00  1.00800000E+00
  3.20600000E+01  1.20100000E+01  1.20100000E+01  1.20100000E+01  1.20100000E+01
  1.20100000E+01  3.20600000E+01  1.20100000E+01  1.20100000E+01  1.00800000E+00
  1.20100000E+01  1.20100000E+01  1.20100000E+01  1.20100000E+01  1.20100000E+01
  1.00800000E+00  1.20100000E+01  1.20100000E+01  1.00800000E+00  1.00800000E+00
  1.20100000E+01  1.00800000E+00  1.00800000E+00  1.20100000E+01  1.00800000E+00
  1.00800000E+00  1.20100000E+01  1.00800000E+00  1.00800000E+00  1.20100000E+01
  1.20100000E+01  1.00800000E+00  1.00800000E+00  1.20100000E+01  1.20100000E+01
  1.20100000E+01  1.00800000E+00  1.00800000E+00  1.20100000E+01  1.00800000E+00
  1.20100000E+01  1.00800000E+00  1.20100000E+01  1.00800000E+00  1.00800000E+00
  1.20100000E+01  1.00800000E+00  1.00800000E+00  1.20100000E+01  1.00800000E+00
  1.00800000E+00  1.00800000E+00  1.00800000E+00  1.00800000E+00  1.20100000E+01
  1.20100000E+01  1.00800000E+00  1.00800000E+00  1.00800000E+00  1.20100000E+01
  1.00800000E+00  1.00800000E+00  1.00800000E+00  1.00800000E+00  3.20600000E+01
  1.20100000E+01  1.20100000E+01  1.20100000E+01  1.20100000E+01  1.20100000E+01
  3.20600000E+01  1.20100000E+01  1.20100000E+01  1.00800000E+00  1.20100000E+01
  1.20100000E+01  1.20100000E+01  1.20100000E+01  1.20100000E+01  1.00800000E+00
  1.20100000E+01  1.20100000E+01  1.00800000E+00  1.00800000E+00  1.20100000E+01
  1.00800000E+00  1.00800000E+00  1.20100000E+01  1.00800000E+00  1.00800000E+00
  1.20100000E+01  1.00800000E+00  1.00800000E+00  1.20100000E+01  1.20100000E+01
  1.00800000E+00  1.00800000E+00  1.20100000E+01  1.20100000E+01  1.20100000E+01
  1.00800000E+00  1.00800000E+00  1.20100000E+01  1.00800000E+00  1.20100000E+01
  1.00800000E+00  1.20100000E+01  1.00800000E+00  1.00800000E+00  1.20100000E+01
  1.00800000E+00  1.00800000E+00  1.20100000E+01  1.00800000E+00  1.00800000E+00
  1.00800000E+00  1.00800000E+00  1.00800000E+00  1.20100000E+01  1.20100000E+01
  1.00800000E+00  1.00800000E+00  1.00800000E+00  1.20100000E+01  1.00800000E+00
  1.00800000E+00  1.00800000E+00  1.00800000E+00  3.20600000E+01  1.20100000E+01
  1.20100000E+01  1.20100000E+01  1.20100000E+01  1.20100000E+01  3.20600000E+01
  1.20100000E+01  1.20100000E+01  1.00800000E+00  1.20100000E+01  1.20100000E+01
  1.20100000E+01  1.20100000E+01  1.20100000E+01  1.00800000E+00  1.20100000E+01
  1.20100000E+01  1.00800000E+00  1.00800000E+00  1.20100000E+01  1.00800000E+00
  1.00800000E+00  1.20100000E+01  1.00800000E+00  1.00800000E+00  1.20100000E+01
  1.00800000E+00  1.00800000E+00  1.20100000E+01  1.20100000E+01  1.00800000E+00
  1.00800000E+00  1.20100000E+01  1.20100000E+01  1.20100000E+01  1.00800000E+00
  1.00800000E+00  1.20100000E+01  1.00800000E+00  1.20100000E+01  1.00800000E+00
  1.20100000E+01  1.00800000E+00  1.00800000E+00  1.20100000E+01  1.00800000E+00
  1.00800000E+00  1.20100000E+01  1.00800000E+00  1.00800000E+00  1.00800000E+00
  1.00800000E+00  1.00800000E+00  1.20100000E+01  1.20100000E+01  1.00800000E+00
  1.00800000E+00  1.00800000E+00  1.20100000E+01  1.00800000E+00  1.00800000E+00
  1.00800000E+00  1.00800000E+00  3.20600000E+01  1.20100000E+01  1.20100000E+01
  1.20100000E+01  1.20100000E+01  1.20100000E+01  3.20600000E+01  1.20100000E+01
  1.20100000E+01  1.00800000E+00  1.20100000E+01  1.20100000E+01  1.20100000E+01
  1.20100000E+01  1.20100000E+01  1.00800000E+00  1.20100000E+01  1.20100000E+01
  1.00800000E+00  1.00800000E+00  1.20100000E+01  1.00800000E+00  1.00800000E+00
  1.20100000E+01  1.00800000E+00  1.00800000E+00  1.20100000E+01  1.00800000E+00
  1.00800000E+00  1.20100000E+01  1.20100000E+01  1.00800000E+00  1.00800000E+00
  1.20100000E+01  1.20100000E+01  1.20100000E+01  1.00800000E+00  1.00800000E+00
  1.20100000E+01  1.00800000E+00  1.20100000E+01  1.00800000E+00  1.20100000E+01
  1.00800000E+00  1.00800000E+00  1.20100000E+01  1.00800000E+00  1.00800000E+00
  1.20100000E+01  1.00800000E+00  1.00800000E+00  1.00800000E+00  1.00800000E+00
  1.00800000E+00  1.20100000E+01  1.20100000E+01  1.00800000E+00  1.00800000E+00
  1.00800000E+00  1.20100000E+01  1.00800000E+00  1.00800000E+00  1.00800000E+00
  1.00800000E+00  3.20600000E+01  1.20100000E+01  1.20100000E+01  1.20100000E+01
  1.20100000E+01  1.20100000E+01  3.20600000E+01  1.20100000E+01  1.20100000E+01
  1.00800000E+00  1.20100000E+01  1.20100000E+01  1.20100000E+01  1.20100000E+01
  1.20100000E+01  1.00800000E+00  1.20100000E+01  1.20100000E+01  1.00800000E+00
  1.00800000E+00  1.20100000E+01  1.00800000E+00  1.00800000E+00  1.20100000E+01
  1.00800000E+00  1.00800000E+00  1.20100000E+01  1.00800000E+00  1.00800000E+00
  1.20100000E+01  1.20100000E+01  1.00800000E+00  1.00800000E+00  1.20100000E+01
  1.20100000E+01  1.20100000E+01  1.00800000E+00  1.00800000E+00  1.20100000E+01
  1.00800000E+00  1.20100000E+01  1.00800000E+00  1.20100000E+01  1.00800000E+00
  1.00800000E+00  1.20100000E+01  1.00800000E+00  1.00800000E+00  1.20100000E+01
  1.00800000E+00  1.00800000E+00  1.00800000E+00  1.00800000E+00  1.00800000E+00
  1.20100000E+01  1.20100000E+01  1.00800000E+00  1.00800000E+00  1.00800000E+00
  1.20100000E+01  1.00800000E+00  1.00800000E+00  1.00800000E+00  1.00800000E+00
  3.20600000E+01  1.20100000E+01  1.20100000E+01  1.20100000E+01  1.20100000E+01
  1.20100000E+01  3.20600000E+01  1.20100000E+01  1.20100000E+01  1.00800000E+00
  1.20100000E+01  1.20100000E+01  1.20100000E+01  1.20100000E+01  1.20100000E+01
  1.00800000E+00  1.20100000E+01  1.20100000E+01  1.00800000E+00  1.00800000E+00
  1.20100000E+01  1.00800000E+00  1.00800000E+00  1.20100000E+01  1.00800000E+00
  1.00800000E+00  1.20100000E+01  1.00800000E+00  1.00800000E+00  1.20100000E+01
  1.20100000E+01  1.00800000E+00  1.00800000E+00  1.20100000E+01  1.20100000E+01
  1.20100000E+01  1.00800000E+00  1.00800000E+00  1.20100000E+01  1.00800000E+00
  1.20100000E+01  1.00800000E+00  1.20100000E+01  1.00800000E+00  1.00800000E+00
  1.20100000E+01  1.00800000E+00  1.00800000E+00  1.20100000E+01  1.00800000E+00
  1.00800000E+00  1.00800000E+00  1.00800000E+00  1.00800000E+00  1.20100000E+01
  1.20100000E+01  1.00800000E+00  1.00800000E+00  1.00800000E+00  1.20100000E+01
  1.00800000E+00  1.00800000E+00  1.00800000E+00  1.00800000E+00  3.20600000E+01
  1.20100000E+01  1.20100000E+01  1.20100000E+01  1.20100000E+01  1.20100000E+01
  3.20600000E+01  1.20100000E+01  1.20100000E+01  1.00800000E+00  1.20100000E+01
  1.20100000E+01  1.20100000E+01  1.20100000E+01  1.20100000E+01  1.00800000E+00
  1.20100000E+01  1.20100000E+01  1.00800000E+00  1.00800000E+00  1.20100000E+01
  1.00800000E+00  1.00800000E+00  1.20100000E+01  1.00800000E+00  1.00800000E+00
  1.20100000E+01  1.00800000E+00  1.00800000E+00  1.20100000E+01  1.20100000E+01
  1.00800000E+00  1.00800000E+00  1.20100000E+01  1.20100000E+01  1.20100000E+01
  1.00800000E+00  1.00800000E+00  1.20100000E+01  1.00800000E+00  1.20100000E+01
  1.00800000E+00  1.20100000E+01  1.00800000E+00  1.00800000E+00  1.20100000E+01
  1.00800000E+00  1.00800000E+00  1.20100000E+01  1.00800000E+00  1.00800000E+00
  1.00800000E+00  1.00800000E+00  1.00800000E+00  1.20100000E+01  1.20100000E+01
  1.00800000E+00  1.00800000E+00  1.00800000E+00  1.20100000E+01  1.00800000E+00
  1.00800000E+00  1.00800000E+00  1.00800000E+00  3.20600000E+01  1.20100000E+01
  1.20100000E+01  1.20100000E+01  1.20100000E+01  1.20100000E+01  3.20600000E+01
  1.20100000E+01  1.20100000E+01  1.00800000E+00  1.20100000E+01  1.20100000E+01
  1.20100000E+01  1.20100000E+01  1.20100000E+01  1.00800000E+00  1.20100000E+01
  1.20100000E+01  1.00800000E+00  1.00800000E+00  1.20100000E+01  1.00800000E+00
  1.00800000E+00  1.20100000E+01  1.00800000E+00  1.00800000E+00  1.20100000E+01
  1.00800000E+00  1.00800000E+00  1.20100000E+01  1.20100000E+01  1.00800000E+00
  1.00800000E+00  1.20100000E+01  1.20100000E+01  1.20100000E+01  1.00800000E+00
  1.00800000E+00  1.20100000E+01  1.00800000E+00  1.20100000E+01  1.00800000E+00
  1.20100000E+01  1.00800000E+00  1.00800000E+00  1.20100000E+01  1.00800000E+00
  1.00800000E+00  1.20100000E+01  1.00800000E+00  1.00800000E+00  1.00800000E+00
  1.00800000E+00  1.00800000E+00  1.20100000E+01  1.20100000E+01  1.00800000E+00
  1.00800000E+00  1.00800000E+00  1.20100000E+01  1.00800000E+00  1.00800000E+00
  1.00800000E+00  1.00800000E+00  3.20600000E+01  1.20100000E+01  1.20100000E+01
  1.20100000E+01  1.20100000E+01  1.20100000E+01  3.20600000E+01  1.20100000E+01
  1.20100000E+01  1.00800000E+00  1.20100000E+01  1.20100000E+01  1.20100000E+01
  1.20100000E+01  1.20100000E+01  1.00800000E+00  1.20100000E+01  1.20100000E+01
  1.00800000E+00  1.00800000E+00  1.20100000E+01  1.00800000E+00  1.00800000E+00
  1.20100000E+01  1.00800000E+00  1.00800000E+00  1.20100000E+01  1.00800000E+00
  1.00800000E+00  1.20100000E+01  1.20100000E+01  1.00800000E+00  1.00800000E+00
  1.20100000E+01  1.20100000E+01  1.20100000E+01  1.00800000E+00  1.00800000E+00
  1.20100000E+01  1.00800000E+00  1.20100000E+01  1.00800000E+00  1.20100000E+01
  1.00800000E+00  1.00800000E+00  1.20100000E+01  1.00800000E+00  1.00800000E+00
  1.20100000E+01  1.00800000E+00  1.00800000E+00  1.00800000E+00  1.00800000E+00
  1.00800000E+00  1.20100000E+01  1.20100000E+01  1.00800000E+00  1.00800000E+00
  1.00800000E+00  1.20100000E+01  1.00800000E+00  1.00800000E+00  1.00800000E+00
  1.00800000E+00  3.20600000E+01  1.20100000E+01  1.20100000E+01  1.20100000E+01
  1.20100000E+01  1.20100000E+01  3.20600000E+01  1.20100000E+01  1.20100000E+01
  1.00800000E+00  1.20100000E+01  1.20100000E+01  1.20100000E+01  1.20100000E+01
  1.20100000E+01  1.00800000E+00  1.20100000E+01  1.20100000E+01  1.00800000E+00
  1.00800000E+00  1.20100000E+01  1.00800000E+00  1.00800000E+00  1.20100000E+01
  1.00800000E+00  1.00800000E+00  1.20100000E+01  1.00800000E+00  1.00800000E+00
  1.20100000E+01  1.20100000E+01  1.00800000E+00  1.00800000E+00  1.20100000E+01
  1.20100000E+01  1.20100000E+01  1.00800000E+00  1.00800000E+00  1.20100000E+01
  1.00800000E+00  1.20100000E+01  1.00800000E+00  1.20100000E+01  1.00800000E+00
  1.00800000E+00  1.20100000E+01  1.00800000E+00  1.00800000E+00  1.20100000E+01
  1.00800000E+00  1.00800000E+00  1.00800000E+00  1.00800000E+00  1.00800000E+00
  1.20100000E+01  1.20100000E+01  1.00800000E+00  1.00800000E+00  1.00800000E+00
  1.20100000E+01  1.00800000E+00  1.00800000E+00  1.00800000E+00  1.00800000E+00
  3.20600000E+01  1.20100000E+01  1.20100000E+01  1.20100000E+01  1.20100000E+01
  1.20100000E+01  3.20600000E+01  1.20100000E+01  1.20100000E+01  1.00800000E+00
  1.20100000E+01  1.20100000E+01  1.20100000E+01  1.20100000E+01  1.20100000E+01
  1.00800000E+00  1.20100000E+01  1.20100000E+01  1.00800000E+00  1.00800000E+00
  1.20100000E+01  1.00800000E+00  1.00800000E+00  1.20100000E+01  1.00800000E+00
  1.00800000E+00  1.20100000E+01  1.00800000E+00  1.00800000E+00  1.20100000E+01
  1.20100000E+01  1.00800000E+00  1.00800000E+00  1.20100000E+01  1.20100000E+01
  1.20100000E+01  1.00800000E+00  1.00800000E+00  1.20100000E+01  1.00800000E+00
  1.20100000E+01  1.00800000E+00  1.20100000E+01  1.00800000E+00  1.00800000E+00
  1.20100000E+01  1.00800000E+00  1.00800000E+00  1.20100000E+01  1.00800000E+00
  1.00800000E+00  1.00800000E+00  1.00800000E+00  1.00800000E+00  1.20100000E+01
  1.20100000E+01  1.00800000E+00  1.00800000E+00  1.00800000E+00  1.20100000E+01
  1.00800000E+00  1.00800000E+00  1.00800000E+00  1.00800000E+00  3.20600000E+01
  1.20100000E+01  1.20100000E+01  1.20100000E+01  1.20100000E+01  1.20100000E+01
  3.20600000E+01  1.20100000E+01  1.20100000E+01  1.00800000E+00  1.20100000E+01
  1.20100000E+01  1.20100000E+01  1.20100000E+01  1.20100000E+01  1.00800000E+00
  1.20100000E+01  1.20100000E+01  1.00800000E+00  1.00800000E+00  1.20100000E+01
  1.00800000E+00  1.00800000E+00  1.20100000E+01  1.00800000E+00  1.00800000E+00
  1.20100000E+01  1.00800000E+00  1.00800000E+00  1.20100000E+01  1.20100000E+01
  1.00800000E+00  1.00800000E+00  1.20100000E+01  1.20100000E+01  1.20100000E+01
  1.00800000E+00  1.00800000E+00  1.20100000E+01  1.00800000E+00  1.20100000E+01
  1.00800000E+00  1.20100000E+01  1.00800000E+00  1.00800000E+00  1.20100000E+01
  1.00800000E+00  1.00800000E+00  1.20100000E+01  1.00800000E+00  1.00800000E+00
  1.00800000E+00  1.00800000E+00  1.00800000E+00  1.20100000E+01  1.20100000E+01
  1.00800000E+00  1.00800000E+00  1.00800000E+00  1.20100000E+01  1.00800000E+00
  1.00800000E+00  1.00800000E+00  1.00800000E+00  3.20600000E+01  1.20100000E+01
  1.20100000E+01  1.20100000E+01  1.20100000E+01  1.20100000E+01  3.20600000E+01
  1.20100000E+01  1.20100000E+01  1.00800000E+00  1.20100000E+01  1.20100000E+01
  1.20100000E+01  1.20100000E+01  1.20100000E+01  1.00800000E+00  1.20100000E+01
  1.20100000E+01  1.00800000E+00  1.00800000E+00  1.20100000E+01  1.00800000E+00
  1.00800000E+00  1.20100000E+01  1.00800000E+00  1.00800000E+00  1.20100000E+01
  1.00800000E+00  1.00800000E+00  1.20100000E+01  1.20100000E+01  1.00800000E+00
  1.00800000E+00  1.20100000E+01  1.20100000E+01  1.20100000E+01  1.00800000E+00
  1.00800000E+00  1.20100000E+01  1.00800000E+00  1.20100000E+01  1.00800000E+00
  1.20100000E+01  1.00800000E+00  1.00800000E+00  1.20100000E+01  1.00800000E+00
  1.00800000E+00  1.20100000E+01  1.00800000E+00  1.00800000E+00  1.00800000E+00
  1.00800000E+00  1.00800000E+00  1.20100000E+01  1.20100000E+01  1.00800000E+00
  1.00800000E+00  1.00800000E+00  1.20100000E+01  1.00800000E+00  1.00800000E+00
  1.00800000E+00  1.00800000E+00  3.20600000E+01  1.20100000E+01  1.20100000E+01
  1.20100000E+01  1.20100000E+01  1.20100000E+01  3.20600000E+01  1.20100000E+01
  1.20100000E+01  1.00800000E+00  1.20100000E+01  1.20100000E+01  1.20100000E+01
  1.20100000E+01  1.20100000E+01  1.00800000E+00  1.20100000E+01  1.20100000E+01
  1.00800000E+00  1.00800000E+00  1.20100000E+01  1.00800000E+00  1.00800000E+00
  1.20100000E+01  1.00800000E+00  1.00800000E+00  1.20100000E+01  1.00800000E+00
  1.00800000E+00  1.20100000E+01  1.20100000E+01  1.00800000E+00  1.00800000E+00
  1.20100000E+01  1.20100000E+01  1.20100000E+01  1.00800000E+00  1.00800000E+00
  1.20100000E+01  1.00800000E+00  1.20100000E+01  1.00800000E+00  1.20100000E+01
  1.00800000E+00  1.00800000E+00  1.20100000E+01  1.00800000E+00  1.00800000E+00
  1.20100000E+01  1.00800000E+00  1.00800000E+00  1.00800000E+00  1.00800000E+00
  1.00800000E+00  1.20100000E+01  1.20100000E+01  1.00800000E+00  1.00800000E+00
  1.00800000E+00  1.20100000E+01  1.00800000E+00  1.00800000E+00  1.00800000E+00
  1.00800000E+00  3.20600000E+01  1.20100000E+01  1.20100000E+01  1.20100000E+01
  1.20100000E+01  1.20100000E+01  3.20600000E+01  1.20100000E+01  1.20100000E+01
  1.00800000E+00  1.20100000E+01  1.20100000E+01  1.20100000E+01  1.20100000E+01
  1.20100000E+01  1.00800000E+00  1.20100000E+01  1.20100000E+01  1.00800000E+00
  1.00800000E+00  1.20100000E+01  1.00800000E+00  1.00800000E+00  1.20100000E+01
  1.00800000E+00  1.00800000E+00  1.20100000E+01  1.00800000E+00  1.00800000E+00
  1.20100000E+01  1.20100000E+01  1.00800000E+00  1.00800000E+00  1.20100000E+01
  1.20100000E+01  1.20100000E+01  1.00800000E+00  1.00800000E+00  1.20100000E+01
  1.00800000E+00  1.20100000E+01  1.00800000E+00  1.20100000E+01  1.00800000E+00
  1.00800000E+00  1.20100000E+01  1.00800000E+00  1.00800000E+00  1.20100000E+01
  1.00800000E+00  1.00800000E+00  1.00800000E+00  1.00800000E+00  1.00800000E+00
  1.20100000E+01  1.20100000E+01  1.00800000E+00  1.00800000E+00  1.00800000E+00
  1.20100000E+01  1.00800000E+00  1.00800000E+00  1.00800000E+00  1.00800000E+00
  3.20600000E+01  1.20100000E+01  1.20100000E+01  1.20100000E+01  1.20100000E+01
  1.20100000E+01  3.20600000E+01  1.20100000E+01  1.20100000E+01  1.00800000E+00
  1.20100000E+01  1.20100000E+01  1.20100000E+01  1.20100000E+01  1.20100000E+01
  1.00800000E+00  1.20100000E+01  1.20100000E+01  1.00800000E+00  1.00800000E+00
  1.20100000E+01  1.00800000E+00  1.00800000E+00  1.20100000E+01  1.00800000E+00
  1.00800000E+00  1.20100000E+01  1.00800000E+00  1.00800000E+00  1.20100000E+01
  1.20100000E+01  1.00800000E+00  1.00800000E+00  1.20100000E+01  1.20100000E+01
  1.20100000E+01  1.00800000E+00  1.00800000E+00  1.20100000E+01  1.00800000E+00
  1.20100000E+01  1.00800000E+00  1.20100000E+01  1.00800000E+00  1.00800000E+00
  1.20100000E+01  1.00800000E+00  1.00800000E+00  1.20100000E+01  1.00800000E+00
  1.00800000E+00  1.00800000E+00  1.00800000E+00  1.00800000E+00  1.20100000E+01
  1.20100000E+01  1.00800000E+00  1.00800000E+00  1.00800000E+00  1.20100000E+01
  1.00800000E+00  1.00800000E+00  1.00800000E+00  1.00800000E+00  3.20600000E+01
  1.20100000E+01  1.20100000E+01  1.20100000E+01  1.20100000E+01  1.20100000E+01
  3.20600000E+01  1.20100000E+01  1.20100000E+01  1.00800000E+00  1.20100000E+01
  1.20100000E+01  1.20100000E+01  1.20100000E+01  1.20100000E+01  1.00800000E+00
  1.20100000E+01  1.20100000E+01  1.00800000E+00  1.00800000E+00  1.20100000E+01
  1.00800000E+00  1.00800000E+00  1.20100000E+01  1.00800000E+00  1.00800000E+00
  1.20100000E+01  1.00800000E+00  1.00800000E+00  1.20100000E+01  1.20100000E+01
  1.00800000E+00  1.00800000E+00  1.20100000E+01  1.20100000E+01  1.20100000E+01
  1.00800000E+00  1.00800000E+00  1.20100000E+01  1.00800000E+00  1.20100000E+01
  1.00800000E+00  1.20100000E+01  1.00800000E+00  1.00800000E+00  1.20100000E+01
  1.00800000E+00  1.00800000E+00  1.20100000E+01  1.00800000E+00  1.00800000E+00
  1.00800000E+00  1.00800000E+00  1.00800000E+00  1.20100000E+01  1.20100000E+01
  1.00800000E+00  1.00800000E+00  1.00800000E+00  1.20100000E+01  1.00800000E+00
  1.00800000E+00  1.00800000E+00  1.00800000E+00  3.20600000E+01  1.20100000E+01
  1.20100000E+01  1.20100000E+01  1.20100000E+01  1.20100000E+01  3.20600000E+01
  1.20100000E+01  1.20100000E+01  1.00800000E+00  1.20100000E+01  1.20100000E+01
  1.20100000E+01  1.20100000E+01  1.20100000E+01  1.00800000E+00  1.20100000E+01
  1.20100000E+01  1.00800000E+00  1.00800000E+00  1.20100000E+01  1.00800000E+00
  1.00800000E+00  1.20100000E+01  1.00800000E+00  1.00800000E+00  1.20100000E+01
  1.00800000E+00  1.00800000E+00  1.20100000E+01  1.20100000E+01  1.00800000E+00
  1.00800000E+00  1.20100000E+01  1.20100000E+01  1.20100000E+01  1.00800000E+00
  1.00800000E+00  1.20100000E+01  1.00800000E+00  1.20100000E+01  1.00800000E+00
  1.20100000E+01  1.00800000E+00  1.00800000E+00  1.20100000E+01  1.00800000E+00
  1.00800000E+00  1.20100000E+01  1.00800000E+00  1.00800000E+00  1.00800000E+00
  1.00800000E+00  1.00800000E+00  1.20100000E+01  1.20100000E+01  1.00800000E+00
  1.00800000E+00  1.00800000E+00  1.20100000E+01  1.00800000E+00  1.00800000E+00
  1.00800000E+00  1.00800000E+00  3.20600000E+01  1.20100000E+01  1.20100000E+01
  1.20100000E+01  1.20100000E+01  1.20100000E+01  3.20600000E+01  1.20100000E+01
  1.20100000E+01  1.00800000E+00  1.20100000E+01  1.20100000E+01  1.20100000E+01
  1.20100000E+01  1.20100000E+01  1.00800000E+00  1.20100000E+01  1.20100000E+01
  1.00800000E+00  1.00800000E+00  1.20100000E+01  1.00800000E+00  1.00800000E+00
  1.20100000E+01  1.00800000E+00  1.00800000E+00  1.20100000E+01  1.00800000E+00
  1.00800000E+00  1.20100000E+01  1.20100000E+01  1.00800000E+00  1.00800000E+00
  1.20100000E+01  1.20100000E+01  1.20100000E+01  1.00800000E+00  1.00800000E+00
  1.20100000E+01  1.00800000E+00  1.20100000E+01  1.00800000E+00  1.20100000E+01
  1.00800000E+00  1.00800000E+00  1.20100000E+01  1.00800000E+00  1.00800000E+00
  1.20100000E+01  1.00800000E+00  1.00800000E+00  1.00800000E+00  1.00800000E+00
  1.00800000E+00  1.20100000E+01  1.20100000E+01  1.00800000E+00  1.00800000E+00
  1.00800000E+00  1.20100000E+01  1.00800000E+00  1.00800000E+00  1.00800000E+00
  1.00800000E+00  3.20600000E+01  1.20100000E+01  1.20100000E+01  1.20100000E+01
  1.20100000E+01  1.20100000E+01  3.20600000E+01  1.20100000E+01  1.20100000E+01
  1.00800000E+00  1.20100000E+01  1.20100000E+01  1.20100000E+01  1.20100000E+01
  1.20100000E+01  1.00800000E+00  1.20100000E+01  1.20100000E+01  1.00800000E+00
  1.00800000E+00  1.20100000E+01  1.00800000E+00  1.00800000E+00  1.20100000E+01
  1.00800000E+00  1.00800000E+00  1.20100000E+01  1.00800000E+00  1.00800000E+00
  1.20100000E+01  1.20100000E+01  1.00800000E+00  1.00800000E+00  1.20100000E+01
  1.20100000E+01  1.20100000E+01  1.00800000E+00  1.00800000E+00  1.20100000E+01
  1.00800000E+00  1.20100000E+01  1.00800000E+00  1.20100000E+01  1.00800000E+00
  1.00800000E+00  1.20100000E+01  1.00800000E+00  1.00800000E+00  1.20100000E+01
  1.00800000E+00  1.00800000E+00  1.00800000E+00  1.00800000E+00  1.00800000E+00
  1.20100000E+01  1.20100000E+01  1.00800000E+00  1.00800000E+00  1.00800000E+00
  1.20100000E+01  1.00800000E+00  1.00800000E+00  1.00800000E+00  1.00800000E+00
  3.20600000E+01  1.20100000E+01  1.20100000E+01  1.20100000E+01  1.20100000E+01
  1.20100000E+01  3.20600000E+01  1.20100000E+01  1.20100000E+01  1.00800000E+00
  1.20100000E+01  1.20100000E+01  1.20100000E+01  1.20100000E+01  1.20100000E+01
  1.00800000E+00  1.20100000E+01  1.20100000E+01  1.00800000E+00  1.00800000E+00
  1.20100000E+01  1.00800000E+00  1.00800000E+00  1.20100000E+01  1.00800000E+00
  1.00800000E+00  1.20100000E+01  1.00800000E+00  1.00800000E+00  1.20100000E+01
  1.20100000E+01  1.00800000E+00  1.00800000E+00  1.20100000E+01  1.20100000E+01
  1.20100000E+01  1.00800000E+00  1.00800000E+00  1.20100000E+01  1.00800000E+00
  1.20100000E+01  1.00800000E+00  1.20100000E+01  1.00800000E+00  1.00800000E+00
  1.20100000E+01  1.00800000E+00  1.00800000E+00  1.20100000E+01  1.00800000E+00
  1.00800000E+00  1.00800000E+00  1.00800000E+00  1.00800000E+00  1.20100000E+01
  1.20100000E+01  1.00800000E+00  1.00800000E+00  1.00800000E+00  1.20100000E+01
  1.00800000E+00  1.00800000E+00  1.00800000E+00  1.00800000E+00  3.20600000E+01
  1.20100000E+01  1.20100000E+01  1.20100000E+01  1.20100000E+01  1.20100000E+01
  3.20600000E+01  1.20100000E+01  1.20100000E+01  1.00800000E+00  1.20100000E+01
  1.20100000E+01  1.20100000E+01  1.20100000E+01  1.20100000E+01  1.00800000E+00
  1.20100000E+01  1.20100000E+01  1.00800000E+00  1.00800000E+00  1.20100000E+01
  1.00800000E+00  1.00800000E+00  1.20100000E+01  1.00800000E+00  1.00800000E+00
  1.20100000E+01  1.00800000E+00  1.00800000E+00  1.20100000E+01  1.20100000E+01
  1.00800000E+00  1.00800000E+00  1.20100000E+01  1.20100000E+01  1.20100000E+01
  1.00800000E+00  1.00800000E+00  1.20100000E+01  1.00800000E+00  1.20100000E+01
  1.00800000E+00  1.20100000E+01  1.00800000E+00  1.00800000E+00  1.20100000E+01
  1.00800000E+00  1.00800000E+00  1.20100000E+01  1.00800000E+00  1.00800000E+00
  1.00800000E+00  1.00800000E+00  1.00800000E+00  1.20100000E+01  1.20100000E+01
  1.00800000E+00  1.00800000E+00  1.00800000E+00  1.20100000E+01  1.00800000E+00
  1.00800000E+00  1.00800000E+00  1.00800000E+00  3.20600000E+01  1.20100000E+01
  1.20100000E+01  1.20100000E+01  1.20100000E+01  1.20100000E+01  3.20600000E+01
  1.20100000E+01  1.20100000E+01  1.00800000E+00  1.20100000E+01  1.20100000E+01
  1.20100000E+01  1.20100000E+01  1.20100000E+01  1.00800000E+00  1.20100000E+01
  1.20100000E+01  1.00800000E+00  1.00800000E+00  1.20100000E+01  1.00800000E+00
  1.00800000E+00  1.20100000E+01  1.00800000E+00  1.00800000E+00  1.20100000E+01
  1.00800000E+00  1.00800000E+00  1.20100000E+01  1.20100000E+01  1.00800000E+00
  1.00800000E+00  1.20100000E+01  1.20100000E+01  1.20100000E+01  1.00800000E+00
  1.00800000E+00  1.20100000E+01  1.00800000E+00  1.20100000E+01  1.00800000E+00
  1.20100000E+01  1.00800000E+00  1.00800000E+00  1.20100000E+01  1.00800000E+00
  1.00800000E+00  1.20100000E+01  1.00800000E+00  1.00800000E+00  1.00800000E+00
  1.00800000E+00  1.00800000E+00  1.20100000E+01  1.20100000E+01  1.00800000E+00
  1.00800000E+00  1.00800000E+00  1.20100000E+01  1.00800000E+00  1.00800000E+00
  1.00800000E+00  1.00800000E+00  3.20600000E+01  1.20100000E+01  1.20100000E+01
  1.20100000E+01  1.20100000E+01  1.20100000E+01  3.20600000E+01  1.20100000E+01
  1.20100000E+01  1.00800000E+00  1.20100000E+01  1.20100000E+01  1.20100000E+01
  1.20100000E+01  1.20100000E+01  1.00800000E+00  1.20100000E+01  1.20100000E+01
  1.00800000E+00  1.00800000E+00  1.20100000E+01  1.00800000E+00  1.00800000E+00
  1.20100000E+01  1.00800000E+00  1.00800000E+00  1.20100000E+01  1.00800000E+00
  1.00800000E+00  1.20100000E+01  1.20100000E+01  1.00800000E+00  1.00800000E+00
  1.20100000E+01  1.20100000E+01  1.20100000E+01  1.00800000E+00  1.00800000E+00
  1.20100000E+01  1.00800000E+00  1.20100000E+01  1.00800000E+00  1.20100000E+01
  1.00800000E+00  1.00800000E+00  1.20100000E+01  1.00800000E+00  1.00800000E+00
  1.20100000E+01  1.00800000E+00  1.00800000E+00  1.00800000E+00  1.00800000E+00
  1.00800000E+00  1.20100000E+01  1.20100000E+01  1.00800000E+00  1.00800000E+00
  1.00800000E+00  1.20100000E+01  1.00800000E+00  1.00800000E+00  1.00800000E+00
  1.00800000E+00  3.20600000E+01  1.20100000E+01  1.20100000E+01  1.20100000E+01
  1.20100000E+01  1.20100000E+01  3.20600000E+01  1.20100000E+01  1.20100000E+01
  1.00800000E+00  1.20100000E+01  1.20100000E+01  1.20100000E+01  1.20100000E+01
  1.20100000E+01  1.00800000E+00  1.20100000E+01  1.20100000E+01  1.00800000E+00
  1.00800000E+00  1.20100000E+01  1.00800000E+00  1.00800000E+00  1.20100000E+01
  1.00800000E+00  1.00800000E+00  1.20100000E+01  1.00800000E+00  1.00800000E+00
  1.20100000E+01  1.20100000E+01  1.00800000E+00  1.00800000E+00  1.20100000E+01
  1.20100000E+01  1.20100000E+01  1.00800000E+00  1.00800000E+00  1.20100000E+01
  1.00800000E+00  1.20100000E+01  1.00800000E+00  1.20100000E+01  1.00800000E+00
  1.00800000E+00  1.20100000E+01  1.00800000E+00  1.00800000E+00  1.20100000E+01
  1.00800000E+00  1.00800000E+00  1.00800000E+00  1.00800000E+00  1.00800000E+00
  1.20100000E+01  1.20100000E+01  1.00800000E+00  1.00800000E+00  1.00800000E+00
  1.20100000E+01  1.00800000E+00  1.00800000E+00  1.00800000E+00  1.00800000E+00
  3.20600000E+01  1.20100000E+01  1.20100000E+01  1.20100000E+01  1.20100000E+01
  1.20100000E+01  3.20600000E+01  1.20100000E+01  1.20100000E+01  1.00800000E+00
  1.20100000E+01  1.20100000E+01  1.20100000E+01  1.20100000E+01  1.20100000E+01
  1.00800000E+00  1.20100000E+01  1.20100000E+01  1.00800000E+00  1.00800000E+00
  1.20100000E+01  1.00800000E+00  1.00800000E+00  1.20100000E+01  1.00800000E+00
  1.00800000E+00  1.20100000E+01  1.00800000E+00  1.00800000E+00  1.20100000E+01
  1.20100000E+01  1.00800000E+00  1.00800000E+00  1.20100000E+01  1.20100000E+01
  1.20100000E+01  1.00800000E+00  1.00800000E+00  1.20100000E+01  1.00800000E+00
  1.20100000E+01  1.00800000E+00  1.20100000E+01  1.00800000E+00  1.00800000E+00
  1.20100000E+01  1.00800000E+00  1.00800000E+00  1.20100000E+01  1.00800000E+00
  1.00800000E+00  1.00800000E+00  1.00800000E+00  1.00800000E+00  1.20100000E+01
  1.20100000E+01  1.00800000E+00  1.00800000E+00  1.00800000E+00  1.20100000E+01
  1.00800000E+00  1.00800000E+00  1.00800000E+00  1.00800000E+00  3.20600000E+01
  1.20100000E+01  1.20100000E+01  1.20100000E+01  1.20100000E+01  1.20100000E+01
  3.20600000E+01  1.20100000E+01  1.20100000E+01  1.00800000E+00  1.20100000E+01
  1.20100000E+01  1.20100000E+01  1.20100000E+01  1.20100000E+01  1.00800000E+00
  1.20100000E+01  1.20100000E+01  1.00800000E+00  1.00800000E+00  1.20100000E+01
  1.00800000E+00  1.00800000E+00  1.20100000E+01  1.00800000E+00  1.00800000E+00
  1.20100000E+01  1.00800000E+00  1.00800000E+00  1.20100000E+01  1.20100000E+01
  1.00800000E+00  1.00800000E+00  1.20100000E+01  1.20100000E+01  1.20100000E+01
  1.00800000E+00  1.00800000E+00  1.20100000E+01  1.00800000E+00  1.20100000E+01
  1.00800000E+00  1.20100000E+01  1.00800000E+00  1.00800000E+00  1.20100000E+01
  1.00800000E+00  1.00800000E+00  1.20100000E+01  1.00800000E+00  1.00800000E+00
  1.00800000E+00  1.00800000E+00  1.00800000E+00  1.20100000E+01  1.20100000E+01
  1.00800000E+00  1.00800000E+00  1.00800000E+00  1.20100000E+01  1.00800000E+00
  1.00800000E+00  1.00800000E+00  1.00800000E+00  3.20600000E+01  1.20100000E+01
  1.20100000E+01  1.20100000E+01  1.20100000E+01  1.20100000E+01  3.20600000E+01
  1.20100000E+01  1.20100000E+01  1.00800000E+00  1.20100000E+01  1.20100000E+01
  1.20100000E+01  1.20100000E+01  1.20100000E+01  1.00800000E+00  1.20100000E+01
  1.20100000E+01  1.00800000E+00  1.00800000E+00  1.20100000E+01  1.00800000E+00
  1.00800000E+00  1.20100000E+01  1.00800000E+00  1.00800000E+00  1.20100000E+01
  1.00800000E+00  1.00800000E+00  1.20100000E+01  1.20100000E+01  1.00800000E+00
  1.00800000E+00  1.20100000E+01  1.20100000E+01  1.20100000E+01  1.00800000E+00
  1.00800000E+00  1.20100000E+01  1.00800000E+00  1.20100000E+01  1.00800000E+00
  1.20100000E+01  1.00800000E+00  1.00800000E+00  1.20100000E+01  1.00800000E+00
  1.00800000E+00  1.20100000E+01  1.00800000E+00  1.00800000E+00  1.00800000E+00
  1.00800000E+00  1.00800000E+00  1.20100000E+01  1.20100000E+01  1.00800000E+00
  1.00800000E+00  1.00800000E+00  1.20100000E+01  1.00800000E+00  1.00800000E+00
  1.00800000E+00  1.00800000E+00  3.20600000E+01  1.20100000E+01  1.20100000E+01
  1.20100000E+01  1.20100000E+01  1.20100000E+01  3.20600000E+01  1.20100000E+01
  1.20100000E+01  1.00800000E+00  1.20100000E+01  1.20100000E+01  1.20100000E+01
  1.20100000E+01  1.20100000E+01  1.00800000E+00  1.20100000E+01  1.20100000E+01
  1.00800000E+00  1.00800000E+00  1.20100000E+01  1.00800000E+00  1.00800000E+00
  1.20100000E+01  1.00800000E+00  1.00800000E+00  1.20100000E+01  1.00800000E+00
  1.00800000E+00  1.20100000E+01  1.20100000E+01  1.00800000E+00  1.00800000E+00
  1.20100000E+01  1.20100000E+01  1.20100000E+01  1.00800000E+00  1.00800000E+00
  1.20100000E+01  1.00800000E+00  1.20100000E+01  1.00800000E+00  1.20100000E+01
  1.00800000E+00  1.00800000E+00  1.20100000E+01  1.00800000E+00  1.00800000E+00
  1.20100000E+01  1.00800000E+00  1.00800000E+00  1.00800000E+00  1.00800000E+00
  1.00800000E+00  1.20100000E+01  1.20100000E+01  1.00800000E+00  1.00800000E+00
  1.00800000E+00  1.20100000E+01  1.00800000E+00  1.00800000E+00  1.00800000E+00
  1.00800000E+00  3.20600000E+01  1.20100000E+01  1.20100000E+01  1.20100000E+01
  1.20100000E+01  1.20100000E+01  3.20600000E+01  1.20100000E+01  1.20100000E+01
  1.00800000E+00  1.20100000E+01  1.20100000E+01  1.20100000E+01  1.20100000E+01
  1.20100000E+01  1.00800000E+00  1.20100000E+01  1.20100000E+01  1.00800000E+00
  1.00800000E+00  1.20100000E+01  1.00800000E+00  1.00800000E+00  1.20100000E+01
  1.00800000E+00  1.00800000E+00  1.20100000E+01  1.00800000E+00  1.00800000E+00
  1.20100000E+01  1.20100000E+01  1.00800000E+00  1.00800000E+00  1.20100000E+01
  1.20100000E+01  1.20100000E+01  1.00800000E+00  1.00800000E+00  1.20100000E+01
  1.00800000E+00  1.20100000E+01  1.00800000E+00  1.20100000E+01  1.00800000E+00
  1.00800000E+00  1.20100000E+01  1.00800000E+00  1.00800000E+00  1.20100000E+01
  1.00800000E+00  1.00800000E+00  1.00800000E+00  1.00800000E+00  1.00800000E+00
  1.20100000E+01  1.20100000E+01  1.00800000E+00  1.00800000E+00  1.00800000E+00
  1.20100000E+01  1.00800000E+00  1.00800000E+00  1.00800000E+00  1.00800000E+00
  3.20600000E+01  1.20100000E+01  1.20100000E+01  1.20100000E+01  1.20100000E+01
  1.20100000E+01  3.20600000E+01  1.20100000E+01  1.20100000E+01  1.00800000E+00
  1.20100000E+01  1.20100000E+01  1.20100000E+01  1.20100000E+01  1.20100000E+01
  1.00800000E+00  1.20100000E+01  1.20100000E+01  1.00800000E+00  1.00800000E+00
  1.20100000E+01  1.00800000E+00  1.00800000E+00  1.20100000E+01  1.00800000E+00
  1.00800000E+00  1.20100000E+01  1.00800000E+00  1.00800000E+00  1.20100000E+01
  1.20100000E+01  1.00800000E+00  1.00800000E+00  1.20100000E+01  1.20100000E+01
  1.20100000E+01  1.00800000E+00  1.00800000E+00  1.20100000E+01  1.00800000E+00
  1.20100000E+01  1.00800000E+00  1.20100000E+01  1.00800000E+00  1.00800000E+00
  1.20100000E+01  1.00800000E+00  1.00800000E+00  1.20100000E+01  1.00800000E+00
  1.00800000E+00  1.00800000E+00  1.00800000E+00  1.00800000E+00  1.20100000E+01
  1.20100000E+01  1.00800000E+00  1.00800000E+00  1.00800000E+00  1.20100000E+01
  1.00800000E+00  1.00800000E+00  1.00800000E+00  1.00800000E+00  3.20600000E+01
  1.20100000E+01  1.20100000E+01  1.20100000E+01  1.20100000E+01  1.20100000E+01
  3.20600000E+01  1.20100000E+01  1.20100000E+01  1.00800000E+00  1.20100000E+01
  1.20100000E+01  1.20100000E+01  1.20100000E+01  1.20100000E+01  1.00800000E+00
  1.20100000E+01  1.20100000E+01  1.00800000E+00  1.00800000E+00  1.20100000E+01
  1.00800000E+00  1.00800000E+00  1.20100000E+01  1.00800000E+00  1.00800000E+00
  1.20100000E+01  1.00800000E+00  1.00800000E+00  1.20100000E+01  1.20100000E+01
  1.00800000E+00  1.00800000E+00  1.20100000E+01  1.20100000E+01  1.20100000E+01
  1.00800000E+00  1.00800000E+00  1.20100000E+01  1.00800000E+00  1.20100000E+01
  1.00800000E+00  1.20100000E+01  1.00800000E+00  1.00800000E+00  1.20100000E+01
  1.00800000E+00  1.00800000E+00  1.20100000E+01  1.00800000E+00  1.00800000E+00
  1.00800000E+00  1.00800000E+00  1.00800000E+00  1.20100000E+01  1.20100000E+01
  1.00800000E+00  1.00800000E+00  1.00800000E+00  1.20100000E+01  1.00800000E+00
  1.00800000E+00  1.00800000E+00  1.00800000E+00  3.20600000E+01  1.20100000E+01
  1.20100000E+01  1.20100000E+01  1.20100000E+01  1.20100000E+01  3.20600000E+01
  1.20100000E+01  1.20100000E+01  1.00800000E+00  1.20100000E+01  1.20100000E+01
  1.20100000E+01  1.20100000E+01  1.20100000E+01  1.00800000E+00  1.20100000E+01
  1.20100000E+01  1.00800000E+00  1.00800000E+00  1.20100000E+01  1.00800000E+00
  1.00800000E+00  1.20100000E+01  1.00800000E+00  1.00800000E+00  1.20100000E+01
  1.00800000E+00  1.00800000E+00  1.20100000E+01  1.20100000E+01  1.00800000E+00
  1.00800000E+00  1.20100000E+01  1.20100000E+01  1.20100000E+01  1.00800000E+00
  1.00800000E+00  1.20100000E+01  1.00800000E+00  1.20100000E+01  1.00800000E+00
  1.20100000E+01  1.00800000E+00  1.00800000E+00  1.20100000E+01  1.00800000E+00
  1.00800000E+00  1.20100000E+01  1.00800000E+00  1.00800000E+00  1.00800000E+00
  1.00800000E+00  1.00800000E+00  1.20100000E+01  1.20100000E+01  1.00800000E+00
  1.00800000E+00  1.00800000E+00  1.20100000E+01  1.00800000E+00  1.00800000E+00
  1.00800000E+00  1.00800000E+00  3.20600000E+01  1.20100000E+01  1.20100000E+01
  1.20100000E+01  1.20100000E+01  1.20100000E+01  3.20600000E+01  1.20100000E+01
  1.20100000E+01  1.00800000E+00  1.20100000E+01  1.20100000E+01  1.20100000E+01
  1.20100000E+01  1.20100000E+01  1.00800000E+00  1.20100000E+01  1.20100000E+01
  1.00800000E+00  1.00800000E+00  1.20100000E+01  1.00800000E+00  1.00800000E+00
  1.20100000E+01  1.00800000E+00  1.00800000E+00  1.20100000E+01  1.00800000E+00
  1.00800000E+00  1.20100000E+01  1.20100000E+01  1.00800000E+00  1.00800000E+00
  1.20100000E+01  1.20100000E+01  1.20100000E+01  1.00800000E+00  1.00800000E+00
  1.20100000E+01  1.00800000E+00  1.20100000E+01  1.00800000E+00  1.20100000E+01
  1.00800000E+00  1.00800000E+00  1.20100000E+01  1.00800000E+00  1.00800000E+00
  1.20100000E+01  1.00800000E+00  1.00800000E+00  1.00800000E+00  1.00800000E+00
  1.00800000E+00  1.20100000E+01  1.20100000E+01  1.00800000E+00  1.00800000E+00
  1.00800000E+00  1.20100000E+01  1.00800000E+00  1.00800000E+00  1.00800000E+00
  1.00800000E+00  3.20600000E+01  1.20100000E+01  1.20100000E+01  1.20100000E+01
  1.20100000E+01  1.20100000E+01  3.20600000E+01  1.20100000E+01  1.20100000E+01
  1.00800000E+00  1.20100000E+01  1.20100000E+01  1.20100000E+01  1.20100000E+01
  1.20100000E+01  1.00800000E+00  1.20100000E+01  1.20100000E+01  1.00800000E+00
  1.00800000E+00  1.20100000E+01  1.00800000E+00  1.00800000E+00  1.20100000E+01
  1.00800000E+00  1.00800000E+00  1.20100000E+01  1.00800000E+00  1.00800000E+00
  1.20100000E+01  1.20100000E+01  1.00800000E+00  1.00800000E+00  1.20100000E+01
  1.20100000E+01  1.20100000E+01  1.00800000E+00  1.00800000E+00  1.20100000E+01
  1.00800000E+00  1.20100000E+01  1.00800000E+00  1.20100000E+01  1.00800000E+00
  1.00800000E+00  1.20100000E+01  1.00800000E+00  1.00800000E+00  1.20100000E+01
  1.00800000E+00  1.00800000E+00  1.00800000E+00  1.00800000E+00  1.00800000E+00
  1.20100000E+01  1.20100000E+01  1.00800000E+00  1.00800000E+00  1.00800000E+00
  1.20100000E+01  1.00800000E+00  1.00800000E+00  1.00800000E+00  1.00800000E+00
  3.20600000E+01  1.20100000E+01  1.20100000E+01  1.20100000E+01  1.20100000E+01
  1.20100000E+01  3.20600000E+01  1.20100000E+01  1.20100000E+01  1.00800000E+00
  1.20100000E+01  1.20100000E+01  1.20100000E+01  1.20100000E+01  1.20100000E+01
  1.00800000E+00  1.20100000E+01  1.20100000E+01  1.00800000E+00  1.00800000E+00
  1.20100000E+01  1.00800000E+00  1.00800000E+00  1.20100000E+01  1.00800000E+00
  1.00800000E+00  1.20100000E+01  1.00800000E+00  1.00800000E+00  1.20100000E+01
  1.20100000E+01  1.00800000E+00  1.00800000E+00  1.20100000E+01  1.20100000E+01
  1.20100000E+01  1.00800000E+00  1.00800000E+00  1.20100000E+01  1.00800000E+00
  1.20100000E+01  1.00800000E+00  1.20100000E+01  1.00800000E+00  1.00800000E+00
  1.20100000E+01  1.00800000E+00  1.00800000E+00  1.20100000E+01  1.00800000E+00
  1.00800000E+00  1.00800000E+00  1.00800000E+00  1.00800000E+00  1.20100000E+01
  1.20100000E+01  1.00800000E+00  1.00800000E+00  1.00800000E+00  1.20100000E+01
  1.00800000E+00  1.00800000E+00  1.00800000E+00  1.00800000E+00  3.20600000E+01
  1.20100000E+01  1.20100000E+01  1.20100000E+01  1.20100000E+01  1.20100000E+01
  3.20600000E+01  1.20100000E+01  1.20100000E+01  1.00800000E+00  1.20100000E+01
  1.20100000E+01  1.20100000E+01  1.20100000E+01  1.20100000E+01  1.00800000E+00
  1.20100000E+01  1.20100000E+01  1.00800000E+00  1.00800000E+00  1.20100000E+01
  1.00800000E+00  1.00800000E+00  1.20100000E+01  1.00800000E+00  1.00800000E+00
  1.20100000E+01  1.00800000E+00  1.00800000E+00  1.20100000E+01  1.20100000E+01
  1.00800000E+00  1.00800000E+00  1.20100000E+01  1.20100000E+01  1.20100000E+01
  1.00800000E+00  1.00800000E+00  1.20100000E+01  1.00800000E+00  1.20100000E+01
  1.00800000E+00  1.20100000E+01  1.00800000E+00  1.00800000E+00  1.20100000E+01
  1.00800000E+00  1.00800000E+00  1.20100000E+01  1.00800000E+00  1.00800000E+00
  1.00800000E+00  1.00800000E+00  1.00800000E+00  1.20100000E+01  1.20100000E+01
  1.00800000E+00  1.00800000E+00  1.00800000E+00  1.20100000E+01  1.00800000E+00
  1.00800000E+00  1.00800000E+00  1.00800000E+00  3.20600000E+01  1.20100000E+01
  1.20100000E+01  1.20100000E+01  1.20100000E+01  1.20100000E+01  3.20600000E+01
  1.20100000E+01  1.20100000E+01  1.00800000E+00  1.20100000E+01  1.20100000E+01
  1.20100000E+01  1.20100000E+01  1.20100000E+01  1.00800000E+00  1.20100000E+01
  1.20100000E+01  1.00800000E+00  1.00800000E+00  1.20100000E+01  1.00800000E+00
  1.00800000E+00  1.20100000E+01  1.00800000E+00  1.00800000E+00  1.20100000E+01
  1.00800000E+00  1.00800000E+00  1.20100000E+01  1.20100000E+01  1.00800000E+00
  1.00800000E+00  1.20100000E+01  1.20100000E+01  1.20100000E+01  1.00800000E+00
  1.00800000E+00  1.20100000E+01  1.00800000E+00  1.20100000E+01  1.00800000E+00
  1.20100000E+01  1.00800000E+00  1.00800000E+00  1.20100000E+01  1.00800000E+00
  1.00800000E+00  1.20100000E+01  1.00800000E+00  1.00800000E+00  1.00800000E+00
  1.00800000E+00  1.00800000E+00  1.20100000E+01  1.20100000E+01  1.00800000E+00
  1.00800000E+00  1.00800000E+00  1.20100000E+01  1.00800000E+00  1.00800000E+00
  1.00800000E+00  1.00800000E+00  3.20600000E+01  1.20100000E+01  1.20100000E+01
  1.20100000E+01  1.20100000E+01  1.20100000E+01  3.20600000E+01  1.20100000E+01
  1.20100000E+01  1.00800000E+00  1.20100000E+01  1.20100000E+01  1.20100000E+01
  1.20100000E+01  1.20100000E+01  1.00800000E+00  1.20100000E+01  1.20100000E+01
  1.00800000E+00  1.00800000E+00  1.20100000E+01  1.00800000E+00  1.00800000E+00
  1.20100000E+01  1.00800000E+00  1.00800000E+00  1.20100000E+01  1.00800000E+00
  1.00800000E+00  1.20100000E+01  1.20100000E+01  1.00800000E+00  1.00800000E+00
  1.20100000E+01  1.20100000E+01  1.20100000E+01  1.00800000E+00  1.00800000E+00
  1.20100000E+01  1.00800000E+00  1.20100000E+01  1.00800000E+00  1.20100000E+01
  1.00800000E+00  1.00800000E+00  1.20100000E+01  1.00800000E+00  1.00800000E+00
  1.20100000E+01  1.00800000E+00  1.00800000E+00  1.00800000E+00  1.00800000E+00
  1.00800000E+00  1.20100000E+01  1.20100000E+01  1.00800000E+00  1.00800000E+00
  1.00800000E+00  1.20100000E+01  1.00800000E+00  1.00800000E+00  1.00800000E+00
  1.00800000E+00  3.20600000E+01  1.20100000E+01  1.20100000E+01  1.20100000E+01
  1.20100000E+01  1.20100000E+01  3.20600000E+01  1.20100000E+01  1.20100000E+01
  1.00800000E+00  1.20100000E+01  1.20100000E+01  1.20100000E+01  1.20100000E+01
  1.20100000E+01  1.00800000E+00  1.20100000E+01  1.20100000E+01  1.00800000E+00
  1.00800000E+00  1.20100000E+01  1.00800000E+00  1.00800000E+00  1.20100000E+01
  1.00800000E+00  1.00800000E+00  1.20100000E+01  1.00800000E+00  1.00800000E+00
  1.20100000E+01  1.20100000E+01  1.00800000E+00  1.00800000E+00  1.20100000E+01
  1.20100000E+01  1.20100000E+01  1.00800000E+00  1.00800000E+00  1.20100000E+01
  1.00800000E+00  1.20100000E+01  1.00800000E+00  1.20100000E+01  1.00800000E+00
  1.00800000E+00  1.20100000E+01  1.00800000E+00  1.00800000E+00  1.20100000E+01
  1.00800000E+00  1.00800000E+00  1.00800000E+00  1.00800000E+00  1.00800000E+00
  1.20100000E+01  1.20100000E+01  1.00800000E+00  1.00800000E+00  1.00800000E+00
  1.20100000E+01  1.00800000E+00  1.00800000E+00  1.00800000E+00  1.00800000E+00
  3.20600000E+01  1.20100000E+01  1.20100000E+01  1.20100000E+01  1.20100000E+01
  1.20100000E+01  3.20600000E+01  1.20100000E+01  1.20100000E+01  1.00800000E+00
  1.20100000E+01  1.20100000E+01  1.20100000E+01  1.20100000E+01  1.20100000E+01
  1.00800000E+00  1.20100000E+01  1.20100000E+01  1.00800000E+00  1.00800000E+00
  1.20100000E+01  1.00800000E+00  1.00800000E+00  1.20100000E+01  1.00800000E+00
  1.00800000E+00  1.20100000E+01  1.00800000E+00  1.00800000E+00  1.20100000E+01
  1.20100000E+01  1.00800000E+00  1.00800000E+00  1.20100000E+01  1.20100000E+01
  1.20100000E+01  1.00800000E+00  1.00800000E+00  1.20100000E+01  1.00800000E+00
  1.20100000E+01  1.00800000E+00  1.20100000E+01  1.00800000E+00  1.00800000E+00
  1.20100000E+01  1.00800000E+00  1.00800000E+00  1.20100000E+01  1.00800000E+00
  1.00800000E+00  1.00800000E+00  1.00800000E+00  1.00800000E+00  1.20100000E+01
  1.20100000E+01  1.00800000E+00  1.00800000E+00  1.00800000E+00  1.20100000E+01
  1.00800000E+00  1.00800000E+00  1.00800000E+00  1.00800000E+00  3.20600000E+01
  1.20100000E+01  1.20100000E+01  1.20100000E+01  1.20100000E+01  1.20100000E+01
  3.20600000E+01  1.20100000E+01  1.20100000E+01  1.00800000E+00  1.20100000E+01
  1.20100000E+01  1.20100000E+01  1.20100000E+01  1.20100000E+01  1.00800000E+00
  1.20100000E+01  1.20100000E+01  1.00800000E+00  1.00800000E+00  1.20100000E+01
  1.00800000E+00  1.00800000E+00  1.20100000E+01  1.00800000E+00  1.00800000E+00
  1.20100000E+01  1.00800000E+00  1.00800000E+00  1.20100000E+01  1.20100000E+01
  1.00800000E+00  1.00800000E+00  1.20100000E+01  1.20100000E+01  1.20100000E+01
  1.00800000E+00  1.00800000E+00  1.20100000E+01  1.00800000E+00  1.20100000E+01
  1.00800000E+00  1.20100000E+01  1.00800000E+00  1.00800000E+00  1.20100000E+01
  1.00800000E+00  1.00800000E+00  1.20100000E+01  1.00800000E+00  1.00800000E+00
  1.00800000E+00  1.00800000E+00  1.00800000E+00  1.20100000E+01  1.20100000E+01
  1.00800000E+00  1.00800000E+00  1.00800000E+00  1.20100000E+01  1.00800000E+00
  1.00800000E+00  1.00800000E+00  1.00800000E+00  3.20600000E+01  1.20100000E+01
  1.20100000E+01  1.20100000E+01  1.20100000E+01  1.20100000E+01  3.20600000E+01
  1.20100000E+01  1.20100000E+01  1.00800000E+00  1.20100000E+01  1.20100000E+01
  1.20100000E+01  1.20100000E+01  1.20100000E+01  1.00800000E+00  1.20100000E+01
  1.20100000E+01  1.00800000E+00  1.00800000E+00  1.20100000E+01  1.00800000E+00
  1.00800000E+00  1.20100000E+01  1.00800000E+00  1.00800000E+00  1.20100000E+01
  1.00800000E+00  1.00800000E+00  1.20100000E+01  1.20100000E+01  1.00800000E+00
  1.00800000E+00  1.20100000E+01  1.20100000E+01  1.20100000E+01  1.00800000E+00
  1.00800000E+00  1.20100000E+01  1.00800000E+00  1.20100000E+01  1.00800000E+00
  1.20100000E+01  1.00800000E+00  1.00800000E+00  1.20100000E+01  1.00800000E+00
  1.00800000E+00  1.20100000E+01  1.00800000E+00  1.00800000E+00  1.00800000E+00
  1.00800000E+00  1.00800000E+00  1.20100000E+01  1.20100000E+01  1.00800000E+00
  1.00800000E+00  1.00800000E+00  1.20100000E+01  1.00800000E+00  1.00800000E+00
  1.00800000E+00  1.00800000E+00  3.20600000E+01  1.20100000E+01  1.20100000E+01
  1.20100000E+01  1.20100000E+01  1.20100000E+01  3.20600000E+01  1.20100000E+01
  1.20100000E+01  1.00800000E+00  1.20100000E+01  1.20100000E+01  1.20100000E+01
  1.20100000E+01  1.20100000E+01  1.00800000E+00  1.20100000E+01  1.20100000E+01
  1.00800000E+00  1.00800000E+00  1.20100000E+01  1.00800000E+00  1.00800000E+00
  1.20100000E+01  1.00800000E+00  1.00800000E+00  1.20100000E+01  1.00800000E+00
  1.00800000E+00  1.20100000E+01  1.20100000E+01  1.00800000E+00  1.00800000E+00
  1.20100000E+01  1.20100000E+01  1.20100000E+01  1.00800000E+00  1.00800000E+00
  1.20100000E+01  1.00800000E+00  1.20100000E+01  1.00800000E+00  1.20100000E+01
  1.00800000E+00  1.00800000E+00  1.20100000E+01  1.00800000E+00  1.00800000E+00
  1.20100000E+01  1.00800000E+00  1.00800000E+00  1.00800000E+00  1.00800000E+00
  1.00800000E+00  1.20100000E+01  1.20100000E+01  1.00800000E+00  1.00800000E+00
  1.00800000E+00  1.20100000E+01  1.00800000E+00  1.00800000E+00  1.00800000E+00
  1.00800000E+00  3.20600000E+01  1.20100000E+01  1.20100000E+01  1.20100000E+01
  1.20100000E+01  1.20100000E+01  3.20600000E+01  1.20100000E+01  1.20100000E+01
  1.00800000E+00  1.20100000E+01  1.20100000E+01  1.20100000E+01  1.20100000E+01
  1.20100000E+01  1.00800000E+00  1.20100000E+01  1.20100000E+01  1.00800000E+00
  1.00800000E+00  1.20100000E+01  1.00800000E+00  1.00800000E+00  1.20100000E+01
  1.00800000E+00  1.00800000E+00  1.20100000E+01  1.00800000E+00  1.00800000E+00
  1.20100000E+01  1.20100000E+01  1.00800000E+00  1.00800000E+00  1.20100000E+01
  1.20100000E+01  1.20100000E+01  1.00800000E+00  1.00800000E+00  1.20100000E+01
  1.00800000E+00  1.20100000E+01  1.00800000E+00  1.20100000E+01  1.00800000E+00
  1.00800000E+00  1.20100000E+01  1.00800000E+00  1.00800000E+00  1.20100000E+01
  1.00800000E+00  1.00800000E+00  1.00800000E+00  1.00800000E+00  1.00800000E+00
  1.20100000E+01  1.20100000E+01  1.00800000E+00  1.00800000E+00  1.00800000E+00
  1.20100000E+01  1.00800000E+00  1.00800000E+00  1.00800000E+00  1.00800000E+00
  3.20600000E+01  1.20100000E+01  1.20100000E+01  1.20100000E+01  1.20100000E+01
  1.20100000E+01  3.20600000E+01  1.20100000E+01  1.20100000E+01  1.00800000E+00
  1.20100000E+01  1.20100000E+01  1.20100000E+01  1.20100000E+01  1.20100000E+01
  1.00800000E+00  1.20100000E+01  1.20100000E+01  1.00800000E+00  1.00800000E+00
  1.20100000E+01  1.00800000E+00  1.00800000E+00  1.20100000E+01  1.00800000E+00
  1.00800000E+00  1.20100000E+01  1.00800000E+00  1.00800000E+00  1.20100000E+01
  1.20100000E+01  1.00800000E+00  1.00800000E+00  1.20100000E+01  1.20100000E+01
  1.20100000E+01  1.00800000E+00  1.00800000E+00  1.20100000E+01  1.00800000E+00
  1.20100000E+01  1.00800000E+00  1.20100000E+01  1.00800000E+00  1.00800000E+00
  1.20100000E+01  1.00800000E+00  1.00800000E+00  1.20100000E+01  1.00800000E+00
  1.00800000E+00  1.00800000E+00  1.00800000E+00  1.00800000E+00  1.20100000E+01
  1.20100000E+01  1.00800000E+00  1.00800000E+00  1.00800000E+00  1.20100000E+01
  1.00800000E+00  1.00800000E+00  1.00800000E+00  1.00800000E+00  3.20600000E+01
  1.20100000E+01  1.20100000E+01  1.20100000E+01  1.20100000E+01  1.20100000E+01
  3.20600000E+01  1.20100000E+01  1.20100000E+01  1.00800000E+00  1.20100000E+01
  1.20100000E+01  1.20100000E+01  1.20100000E+01  1.20100000E+01  1.00800000E+00
  1.20100000E+01  1.20100000E+01  1.00800000E+00  1.00800000E+00  1.20100000E+01
  1.00800000E+00  1.00800000E+00  1.20100000E+01  1.00800000E+00  1.00800000E+00
  1.20100000E+01  1.00800000E+00  1.00800000E+00  1.20100000E+01  1.20100000E+01
  1.00800000E+00  1.00800000E+00  1.20100000E+01  1.20100000E+01  1.20100000E+01
  1.00800000E+00  1.00800000E+00  1.20100000E+01  1.00800000E+00  1.20100000E+01
  1.00800000E+00  1.20100000E+01  1.00800000E+00  1.00800000E+00  1.20100000E+01
  1.00800000E+00  1.00800000E+00  1.20100000E+01  1.00800000E+00  1.00800000E+00
  1.00800000E+00  1.00800000E+00  1.00800000E+00  1.20100000E+01  1.20100000E+01
  1.00800000E+00  1.00800000E+00  1.00800000E+00  1.20100000E+01  1.00800000E+00
  1.00800000E+00  1.00800000E+00  1.00800000E+00  3.20600000E+01  1.20100000E+01
  1.20100000E+01  1.20100000E+01  1.20100000E+01  1.20100000E+01  3.20600000E+01
  1.20100000E+01  1.20100000E+01  1.00800000E+00  1.20100000E+01  1.20100000E+01
  1.20100000E+01  1.20100000E+01  1.20100000E+01  1.00800000E+00  1.20100000E+01
  1.20100000E+01  1.00800000E+00  1.00800000E+00  1.20100000E+01  1.00800000E+00
  1.00800000E+00  1.20100000E+01  1.00800000E+00  1.00800000E+00  1.20100000E+01
  1.00800000E+00  1.00800000E+00  1.20100000E+01  1.20100000E+01  1.00800000E+00
  1.00800000E+00  1.20100000E+01  1.20100000E+01  1.20100000E+01  1.00800000E+00
  1.00800000E+00  1.20100000E+01  1.00800000E+00  1.20100000E+01  1.00800000E+00
  1.20100000E+01  1.00800000E+00  1.00800000E+00  1.20100000E+01  1.00800000E+00
  1.00800000E+00  1.20100000E+01  1.00800000E+00  1.00800000E+00  1.00800000E+00
  1.00800000E+00  1.00800000E+00  1.20100000E+01  1.20100000E+01  1.00800000E+00
  1.00800000E+00  1.00800000E+00  1.20100000E+01  1.00800000E+00  1.00800000E+00
  1.00800000E+00  1.00800000E+00  3.20600000E+01  1.20100000E+01  1.20100000E+01
  1.20100000E+01  1.20100000E+01  1.20100000E+01  3.20600000E+01  1.20100000E+01
  1.20100000E+01  1.00800000E+00  1.20100000E+01  1.20100000E+01  1.20100000E+01
  1.20100000E+01  1.20100000E+01  1.00800000E+00  1.20100000E+01  1.20100000E+01
  1.00800000E+00  1.00800000E+00  1.20100000E+01  1.00800000E+00  1.00800000E+00
  1.20100000E+01  1.00800000E+00  1.00800000E+00  1.20100000E+01  1.00800000E+00
  1.00800000E+00  1.20100000E+01  1.20100000E+01  1.00800000E+00  1.00800000E+00
  1.20100000E+01  1.20100000E+01  1.20100000E+01  1.00800000E+00  1.00800000E+00
  1.20100000E+01  1.00800000E+00  1.20100000E+01  1.00800000E+00  1.20100000E+01
  1.00800000E+00  1.00800000E+00  1.20100000E+01  1.00800000E+00  1.00800000E+00
  1.20100000E+01  1.00800000E+00  1.00800000E+00  1.00800000E+00  1.00800000E+00
  1.00800000E+00  1.20100000E+01  1.20100000E+01  1.00800000E+00  1.00800000E+00
  1.00800000E+00  1.20100000E+01  1.00800000E+00  1.00800000E+00  1.00800000E+00
  1.00800000E+00  3.20600000E+01  1.20100000E+01  1.20100000E+01  1.20100000E+01
  1.20100000E+01  1.20100000E+01  3.20600000E+01  1.20100000E+01  1.20100000E+01
  1.00800000E+00  1.20100000E+01  1.20100000E+01  1.20100000E+01  1.20100000E+01
  1.20100000E+01  1.00800000E+00  1.20100000E+01  1.20100000E+01  1.00800000E+00
  1.00800000E+00  1.20100000E+01  1.00800000E+00  1.00800000E+00  1.20100000E+01
  1.00800000E+00  1.00800000E+00  1.20100000E+01  1.00800000E+00  1.00800000E+00
  1.20100000E+01  1.20100000E+01  1.00800000E+00  1.00800000E+00  1.20100000E+01
  1.20100000E+01  1.20100000E+01  1.00800000E+00  1.00800000E+00  1.20100000E+01
  1.00800000E+00  1.20100000E+01  1.00800000E+00  1.20100000E+01  1.00800000E+00
  1.00800000E+00  1.20100000E+01  1.00800000E+00  1.00800000E+00  1.20100000E+01
  1.00800000E+00  1.00800000E+00  1.00800000E+00  1.00800000E+00  1.00800000E+00
  1.20100000E+01  1.20100000E+01  1.00800000E+00  1.00800000E+00  1.00800000E+00
  1.20100000E+01  1.00800000E+00  1.00800000E+00  1.00800000E+00  1.00800000E+00
  3.20600000E+01  1.20100000E+01  1.20100000E+01  1.20100000E+01  1.20100000E+01
  1.20100000E+01  3.20600000E+01  1.20100000E+01  1.20100000E+01  1.00800000E+00
  1.20100000E+01  1.20100000E+01  1.20100000E+01  1.20100000E+01  1.20100000E+01
  1.00800000E+00  1.20100000E+01  1.20100000E+01  1.00800000E+00  1.00800000E+00
  1.20100000E+01  1.00800000E+00  1.00800000E+00  1.20100000E+01  1.00800000E+00
  1.00800000E+00  1.20100000E+01  1.00800000E+00  1.00800000E+00  1.20100000E+01
  1.20100000E+01  1.00800000E+00  1.00800000E+00  1.20100000E+01  1.20100000E+01
  1.20100000E+01  1.00800000E+00  1.00800000E+00  1.20100000E+01  1.00800000E+00
  1.20100000E+01  1.00800000E+00  1.20100000E+01  1.00800000E+00  1.00800000E+00
  1.20100000E+01  1.00800000E+00  1.00800000E+00  1.20100000E+01  1.00800000E+00
  1.00800000E+00  1.00800000E+00  1.00800000E+00  1.00800000E+00  1.20100000E+01
  1.20100000E+01  1.00800000E+00  1.00800000E+00  1.00800000E+00  1.20100000E+01
  1.00800000E+00  1.00800000E+00  1.00800000E+00  1.00800000E+00  3.20600000E+01
  1.20100000E+01  1.20100000E+01  1.20100000E+01  1.20100000E+01  1.20100000E+01
  3.20600000E+01  1.20100000E+01  1.20100000E+01  1.00800000E+00  1.20100000E+01
  1.20100000E+01  1.20100000E+01  1.20100000E+01  1.20100000E+01  1.00800000E+00
  1.20100000E+01  1.20100000E+01  1.00800000E+00  1.00800000E+00  1.20100000E+01
  1.00800000E+00  1.00800000E+00  1.20100000E+01  1.00800000E+00  1.00800000E+00
  1.20100000E+01  1.00800000E+00  1.00800000E+00  1.20100000E+01  1.20100000E+01
  1.00800000E+00  1.00800000E+00  1.20100000E+01  1.20100000E+01  1.20100000E+01
  1.00800000E+00  1.00800000E+00  1.20100000E+01  1.00800000E+00  1.20100000E+01
  1.00800000E+00  1.20100000E+01  1.00800000E+00  1.00800000E+00  1.20100000E+01
  1.00800000E+00  1.00800000E+00  1.20100000E+01  1.00800000E+00  1.00800000E+00
  1.00800000E+00  1.00800000E+00  1.00800000E+00  1.20100000E+01  1.20100000E+01
  1.00800000E+00  1.00800000E+00  1.00800000E+00  1.20100000E+01  1.00800000E+00
  1.00800000E+00  1.00800000E+00  1.00800000E+00  3.20600000E+01  1.20100000E+01
  1.20100000E+01  1.20100000E+01  1.20100000E+01  1.20100000E+01  3.20600000E+01
  1.20100000E+01  1.20100000E+01  1.00800000E+00  1.20100000E+01  1.20100000E+01
  1.20100000E+01  1.20100000E+01  1.20100000E+01  1.00800000E+00  1.20100000E+01
  1.20100000E+01  1.00800000E+00  1.00800000E+00  1.20100000E+01  1.00800000E+00
  1.00800000E+00  1.20100000E+01  1.00800000E+00  1.00800000E+00  1.20100000E+01
  1.00800000E+00  1.00800000E+00  1.20100000E+01  1.20100000E+01  1.00800000E+00
  1.00800000E+00  1.20100000E+01  1.20100000E+01  1.20100000E+01  1.00800000E+00
  1.00800000E+00  1.20100000E+01  1.00800000E+00  1.20100000E+01  1.00800000E+00
  1.20100000E+01  1.00800000E+00  1.00800000E+00  1.20100000E+01  1.00800000E+00
  1.00800000E+00  1.20100000E+01  1.00800000E+00  1.00800000E+00  1.00800000E+00
  1.00800000E+00  1.00800000E+00  1.20100000E+01  1.20100000E+01  1.00800000E+00
  1.00800000E+00  1.00800000E+00  1.20100000E+01  1.00800000E+00  1.00800000E+00
  1.00800000E+00  1.00800000E+00  3.20600000E+01  1.20100000E+01  1.20100000E+01
  1.20100000E+01  1.20100000E+01  1.20100000E+01  3.20600000E+01  1.20100000E+01
  1.20100000E+01  1.00800000E+00  1.20100000E+01  1.20100000E+01  1.20100000E+01
  1.20100000E+01  1.20100000E+01  1.00800000E+00  1.20100000E+01  1.20100000E+01
  1.00800000E+00  1.00800000E+00  1.20100000E+01  1.00800000E+00  1.00800000E+00
  1.20100000E+01  1.00800000E+00  1.00800000E+00  1.20100000E+01  1.00800000E+00
  1.00800000E+00  1.20100000E+01  1.20100000E+01  1.00800000E+00  1.00800000E+00
  1.20100000E+01  1.20100000E+01  1.20100000E+01  1.00800000E+00  1.00800000E+00
  1.20100000E+01  1.00800000E+00  1.20100000E+01  1.00800000E+00  1.20100000E+01
  1.00800000E+00  1.00800000E+00  1.20100000E+01  1.00800000E+00  1.00800000E+00
  1.20100000E+01  1.00800000E+00  1.00800000E+00  1.00800000E+00  1.00800000E+00
  1.00800000E+00  1.20100000E+01  1.20100000E+01  1.00800000E+00  1.00800000E+00
  1.00800000E+00  1.20100000E+01  1.00800000E+00  1.00800000E+00  1.00800000E+00
  1.00800000E+00  3.20600000E+01  1.20100000E+01  1.20100000E+01  1.20100000E+01
  1.20100000E+01  1.20100000E+01  3.20600000E+01  1.20100000E+01  1.20100000E+01
  1.00800000E+00  1.20100000E+01  1.20100000E+01  1.20100000E+01  1.20100000E+01
  1.20100000E+01  1.00800000E+00  1.20100000E+01  1.20100000E+01  1.00800000E+00
  1.00800000E+00  1.20100000E+01  1.00800000E+00  1.00800000E+00  1.20100000E+01
  1.00800000E+00  1.00800000E+00  1.20100000E+01  1.00800000E+00  1.00800000E+00
  1.20100000E+01  1.20100000E+01  1.00800000E+00  1.00800000E+00  1.20100000E+01
  1.20100000E+01  1.20100000E+01  1.00800000E+00  1.00800000E+00  1.20100000E+01
  1.00800000E+00  1.20100000E+01  1.00800000E+00  1.20100000E+01  1.00800000E+00
  1.00800000E+00  1.20100000E+01  1.00800000E+00  1.00800000E+00  1.20100000E+01
  1.00800000E+00  1.00800000E+00  1.00800000E+00  1.00800000E+00  1.00800000E+00
  1.20100000E+01  1.20100000E+01  1.00800000E+00  1.00800000E+00  1.00800000E+00
  1.20100000E+01  1.00800000E+00  1.00800000E+00  1.00800000E+00  1.00800000E+00
  3.20600000E+01  1.20100000E+01  1.20100000E+01  1.20100000E+01  1.20100000E+01
  1.20100000E+01  3.20600000E+01  1.20100000E+01  1.20100000E+01  1.00800000E+00
  1.20100000E+01  1.20100000E+01  1.20100000E+01  1.20100000E+01  1.20100000E+01
  1.00800000E+00  1.20100000E+01  1.20100000E+01  1.00800000E+00  1.00800000E+00
  1.20100000E+01  1.00800000E+00  1.00800000E+00  1.20100000E+01  1.00800000E+00
  1.00800000E+00  1.20100000E+01  1.00800000E+00  1.00800000E+00  1.20100000E+01
  1.20100000E+01  1.00800000E+00  1.00800000E+00  1.20100000E+01  1.20100000E+01
  1.20100000E+01  1.00800000E+00  1.00800000E+00  1.20100000E+01  1.00800000E+00
  1.20100000E+01  1.00800000E+00  1.20100000E+01  1.00800000E+00  1.00800000E+00
  1.20100000E+01  1.00800000E+00  1.00800000E+00  1.20100000E+01  1.00800000E+00
  1.00800000E+00  1.00800000E+00  1.00800000E+00  1.00800000E+00  1.20100000E+01
  1.20100000E+01  1.00800000E+00  1.00800000E+00  1.00800000E+00  1.20100000E+01
  1.00800000E+00  1.00800000E+00  1.00800000E+00  1.00800000E+00  3.20600000E+01
  1.20100000E+01  1.20100000E+01  1.20100000E+01  1.20100000E+01  1.20100000E+01
  3.20600000E+01  1.20100000E+01  1.20100000E+01  1.00800000E+00  1.20100000E+01
  1.20100000E+01  1.20100000E+01  1.20100000E+01  1.20100000E+01  1.00800000E+00
  1.20100000E+01  1.20100000E+01  1.00800000E+00  1.00800000E+00  1.20100000E+01
  1.00800000E+00  1.00800000E+00  1.20100000E+01  1.00800000E+00  1.00800000E+00
  1.20100000E+01  1.00800000E+00  1.00800000E+00  1.20100000E+01  1.20100000E+01
  1.00800000E+00  1.00800000E+00  1.20100000E+01  1.20100000E+01  1.20100000E+01
  1.00800000E+00  1.00800000E+00  1.20100000E+01  1.00800000E+00  1.20100000E+01
  1.00800000E+00  1.20100000E+01  1.00800000E+00  1.00800000E+00  1.20100000E+01
  1.00800000E+00  1.00800000E+00  1.20100000E+01  1.00800000E+00  1.00800000E+00
  1.00800000E+00  1.00800000E+00  1.00800000E+00  1.20100000E+01  1.20100000E+01
  1.00800000E+00  1.00800000E+00  1.00800000E+00  1.20100000E+01  1.00800000E+00
  1.00800000E+00  1.00800000E+00  1.00800000E+00  3.20600000E+01  1.20100000E+01
  1.20100000E+01  1.20100000E+01  1.20100000E+01  1.20100000E+01  3.20600000E+01
  1.20100000E+01  1.20100000E+01  1.00800000E+00  1.20100000E+01  1.20100000E+01
  1.20100000E+01  1.20100000E+01  1.20100000E+01  1.00800000E+00  1.20100000E+01
  1.20100000E+01  1.00800000E+00  1.00800000E+00  1.20100000E+01  1.00800000E+00
  1.00800000E+00  1.20100000E+01  1.00800000E+00  1.00800000E+00  1.20100000E+01
  1.00800000E+00  1.00800000E+00  1.20100000E+01  1.20100000E+01  1.00800000E+00
  1.00800000E+00  1.20100000E+01  1.20100000E+01  1.20100000E+01  1.00800000E+00
  1.00800000E+00  1.20100000E+01  1.00800000E+00  1.20100000E+01  1.00800000E+00
  1.20100000E+01  1.00800000E+00  1.00800000E+00  1.20100000E+01  1.00800000E+00
  1.00800000E+00  1.20100000E+01  1.00800000E+00  1.00800000E+00  1.00800000E+00
  1.00800000E+00  1.00800000E+00  1.20100000E+01  1.20100000E+01  1.00800000E+00
  1.00800000E+00  1.00800000E+00  1.20100000E+01  1.00800000E+00  1.00800000E+00
  1.00800000E+00  1.00800000E+00  3.20600000E+01  1.20100000E+01  1.20100000E+01
  1.20100000E+01  1.20100000E+01  1.20100000E+01  3.20600000E+01  1.20100000E+01
  1.20100000E+01  1.00800000E+00  1.20100000E+01  1.20100000E+01  1.20100000E+01
  1.20100000E+01  1.20100000E+01  1.00800000E+00  1.20100000E+01  1.20100000E+01
  1.00800000E+00  1.00800000E+00  1.20100000E+01  1.00800000E+00  1.00800000E+00
  1.20100000E+01  1.00800000E+00  1.00800000E+00  1.20100000E+01  1.00800000E+00
  1.00800000E+00  1.20100000E+01  1.20100000E+01  1.00800000E+00  1.00800000E+00
  1.20100000E+01  1.20100000E+01  1.20100000E+01  1.00800000E+00  1.00800000E+00
  1.20100000E+01  1.00800000E+00  1.20100000E+01  1.00800000E+00  1.20100000E+01
  1.00800000E+00  1.00800000E+00  1.20100000E+01  1.00800000E+00  1.00800000E+00
  1.20100000E+01  1.00800000E+00  1.00800000E+00  1.00800000E+00  1.00800000E+00
  1.00800000E+00  1.20100000E+01  1.20100000E+01  1.00800000E+00  1.00800000E+00
  1.00800000E+00  1.20100000E+01  1.00800000E+00  1.00800000E+00  1.00800000E+00
  1.00800000E+00  3.20600000E+01  1.20100000E+01  1.20100000E+01  1.20100000E+01
  1.20100000E+01  1.20100000E+01  3.20600000E+01  1.20100000E+01  1.20100000E+01
  1.00800000E+00  1.20100000E+01  1.20100000E+01  1.20100000E+01  1.20100000E+01
  1.20100000E+01  1.00800000E+00  1.20100000E+01  1.20100000E+01  1.00800000E+00
  1.00800000E+00  1.20100000E+01  1.00800000E+00  1.00800000E+00  1.20100000E+01
  1.00800000E+00  1.00800000E+00  1.20100000E+01  1.00800000E+00  1.00800000E+00
  1.20100000E+01  1.20100000E+01  1.00800000E+00  1.00800000E+00  1.20100000E+01
  1.20100000E+01  1.20100000E+01  1.00800000E+00  1.00800000E+00  1.20100000E+01
  1.00800000E+00  1.20100000E+01  1.00800000E+00  1.20100000E+01  1.00800000E+00
  1.00800000E+00  1.20100000E+01  1.00800000E+00  1.00800000E+00  1.20100000E+01
  1.00800000E+00  1.00800000E+00  1.00800000E+00  1.00800000E+00  1.00800000E+00
  1.20100000E+01  1.20100000E+01  1.00800000E+00  1.00800000E+00  1.00800000E+00
  1.20100000E+01  1.00800000E+00  1.00800000E+00  1.00800000E+00  1.00800000E+00
  3.20600000E+01  1.20100000E+01  1.20100000E+01  1.20100000E+01  1.20100000E+01
  1.20100000E+01  3.20600000E+01  1.20100000E+01  1.20100000E+01  1.00800000E+00
  1.20100000E+01  1.20100000E+01  1.20100000E+01  1.20100000E+01  1.20100000E+01
  1.00800000E+00  1.20100000E+01  1.20100000E+01  1.00800000E+00  1.00800000E+00
  1.20100000E+01  1.00800000E+00  1.00800000E+00  1.20100000E+01  1.00800000E+00
  1.00800000E+00  1.20100000E+01  1.00800000E+00  1.00800000E+00  1.20100000E+01
  1.20100000E+01  1.00800000E+00  1.00800000E+00  1.20100000E+01  1.20100000E+01
  1.20100000E+01  1.00800000E+00  1.00800000E+00  1.20100000E+01  1.00800000E+00
  1.20100000E+01  1.00800000E+00  1.20100000E+01  1.00800000E+00  1.00800000E+00
  1.20100000E+01  1.00800000E+00  1.00800000E+00  1.20100000E+01  1.00800000E+00
  1.00800000E+00  1.00800000E+00  1.00800000E+00  1.00800000E+00  1.20100000E+01
  1.20100000E+01  1.00800000E+00  1.00800000E+00  1.00800000E+00  1.20100000E+01
  1.00800000E+00  1.00800000E+00  1.00800000E+00  1.00800000E+00  3.20600000E+01
  1.20100000E+01  1.20100000E+01  1.20100000E+01  1.20100000E+01  1.20100000E+01
  3.20600000E+01  1.20100000E+01  1.20100000E+01  1.00800000E+00  1.20100000E+01
  1.20100000E+01  1.20100000E+01  1.20100000E+01  1.20100000E+01  1.00800000E+00
  1.20100000E+01  1.20100000E+01  1.00800000E+00  1.00800000E+00  1.20100000E+01
  1.00800000E+00  1.00800000E+00  1.20100000E+01  1.00800000E+00  1.00800000E+00
  1.20100000E+01  1.00800000E+00  1.00800000E+00  1.20100000E+01  1.20100000E+01
  1.00800000E+00  1.00800000E+00  1.20100000E+01  1.20100000E+01  1.20100000E+01
  1.00800000E+00  1.00800000E+00  1.20100000E+01  1.00800000E+00  1.20100000E+01
  1.00800000E+00  1.20100000E+01  1.00800000E+00  1.00800000E+00  1.20100000E+01
  1.00800000E+00  1.00800000E+00  1.20100000E+01  1.00800000E+00  1.00800000E+00
  1.00800000E+00  1.00800000E+00  1.00800000E+00  1.20100000E+01  1.20100000E+01
  1.00800000E+00  1.00800000E+00  1.00800000E+00  1.20100000E+01  1.00800000E+00
  1.00800000E+00  1.00800000E+00  1.00800000E+00  3.20600000E+01  1.20100000E+01
  1.20100000E+01  1.20100000E+01  1.20100000E+01  1.20100000E+01  3.20600000E+01
  1.20100000E+01  1.20100000E+01  1.00800000E+00  1.20100000E+01  1.20100000E+01
  1.20100000E+01  1.20100000E+01  1.20100000E+01  1.00800000E+00  1.20100000E+01
  1.20100000E+01  1.00800000E+00  1.00800000E+00  1.20100000E+01  1.00800000E+00
  1.00800000E+00  1.20100000E+01  1.00800000E+00  1.00800000E+00  1.20100000E+01
  1.00800000E+00  1.00800000E+00  1.20100000E+01  1.20100000E+01  1.00800000E+00
  1.00800000E+00  1.20100000E+01  1.20100000E+01  1.20100000E+01  1.00800000E+00
  1.00800000E+00  1.20100000E+01  1.00800000E+00  1.20100000E+01  1.00800000E+00
  1.20100000E+01  1.00800000E+00  1.00800000E+00  1.20100000E+01  1.00800000E+00
  1.00800000E+00  1.20100000E+01  1.00800000E+00  1.00800000E+00  1.00800000E+00
  1.00800000E+00  1.00800000E+00  1.20100000E+01  1.20100000E+01  1.00800000E+00
  1.00800000E+00  1.00800000E+00  1.20100000E+01  1.00800000E+00  1.00800000E+00
  1.00800000E+00  1.00800000E+00  3.20600000E+01  1.20100000E+01  1.20100000E+01
  1.20100000E+01  1.20100000E+01  1.20100000E+01  3.20600000E+01  1.20100000E+01
  1.20100000E+01  1.00800000E+00  1.20100000E+01  1.20100000E+01  1.20100000E+01
  1.20100000E+01  1.20100000E+01  1.00800000E+00  1.20100000E+01  1.20100000E+01
  1.00800000E+00  1.00800000E+00  1.20100000E+01  1.00800000E+00  1.00800000E+00
  1.20100000E+01  1.00800000E+00  1.00800000E+00  1.20100000E+01  1.00800000E+00
  1.00800000E+00  1.20100000E+01  1.20100000E+01  1.00800000E+00  1.00800000E+00
  1.20100000E+01  1.20100000E+01  1.20100000E+01  1.00800000E+00  1.00800000E+00
  1.20100000E+01  1.00800000E+00  1.20100000E+01  1.00800000E+00  1.20100000E+01
  1.00800000E+00  1.00800000E+00  1.20100000E+01  1.00800000E+00  1.00800000E+00
  1.20100000E+01  1.00800000E+00  1.00800000E+00  1.00800000E+00  1.00800000E+00
  1.00800000E+00  1.20100000E+01  1.20100000E+01  1.00800000E+00  1.00800000E+00
  1.00800000E+00  1.20100000E+01  1.00800000E+00  1.00800000E+00  1.00800000E+00
  1.00800000E+00  3.20600000E+01  1.20100000E+01  1.20100000E+01  1.20100000E+01
  1.20100000E+01  1.20100000E+01  3.20600000E+01  1.20100000E+01  1.20100000E+01
  1.00800000E+00  1.20100000E+01  1.20100000E+01  1.20100000E+01  1.20100000E+01
  1.20100000E+01  1.00800000E+00  1.20100000E+01  1.20100000E+01  1.00800000E+00
  1.00800000E+00  1.20100000E+01  1.00800000E+00  1.00800000E+00  1.20100000E+01
  1.00800000E+00  1.00800000E+00  1.20100000E+01  1.00800000E+00  1.00800000E+00
  1.20100000E+01  1.20100000E+01  1.00800000E+00  1.00800000E+00  1.20100000E+01
  1.20100000E+01  1.20100000E+01  1.00800000E+00  1.00800000E+00  1.20100000E+01
  1.00800000E+00  1.20100000E+01  1.00800000E+00  1.20100000E+01  1.00800000E+00
  1.00800000E+00  1.20100000E+01  1.00800000E+00  1.00800000E+00  1.20100000E+01
  1.00800000E+00  1.00800000E+00  1.00800000E+00  1.00800000E+00  1.00800000E+00
  1.20100000E+01  1.20100000E+01  1.00800000E+00  1.00800000E+00  1.00800000E+00
  1.20100000E+01  1.00800000E+00  1.00800000E+00  1.00800000E+00  1.00800000E+00
  3.20600000E+01  1.20100000E+01  1.20100000E+01  1.20100000E+01  1.20100000E+01
  1.20100000E+01  3.20600000E+01  1.20100000E+01  1.20100000E+01  1.00800000E+00
  1.20100000E+01  1.20100000E+01  1.20100000E+01  1.20100000E+01  1.20100000E+01
  1.00800000E+00  1.20100000E+01  1.20100000E+01  1.00800000E+00  1.00800000E+00
  1.20100000E+01  1.00800000E+00  1.00800000E+00  1.20100000E+01  1.00800000E+00
  1.00800000E+00  1.20100000E+01  1.00800000E+00  1.00800000E+00  1.20100000E+01
  1.20100000E+01  1.00800000E+00  1.00800000E+00  1.20100000E+01  1.20100000E+01
  1.20100000E+01  1.00800000E+00  1.00800000E+00  1.20100000E+01  1.00800000E+00
  1.20100000E+01  1.00800000E+00  1.20100000E+01  1.00800000E+00  1.00800000E+00
  1.20100000E+01  1.00800000E+00  1.00800000E+00  1.20100000E+01  1.00800000E+00
  1.00800000E+00  1.00800000E+00  1.00800000E+00  1.00800000E+00  1.20100000E+01
  1.20100000E+01  1.00800000E+00  1.00800000E+00  1.00800000E+00  1.20100000E+01
  1.00800000E+00  1.00800000E+00  1.00800000E+00  1.00800000E+00  3.20600000E+01
  1.20100000E+01  1.20100000E+01  1.20100000E+01  1.20100000E+01  1.20100000E+01
  3.20600000E+01  1.20100000E+01  1.20100000E+01  1.00800000E+00  1.20100000E+01
  1.20100000E+01  1.20100000E+01  1.20100000E+01  1.20100000E+01  1.00800000E+00
  1.20100000E+01  1.20100000E+01  1.00800000E+00  1.00800000E+00  1.20100000E+01
  1.00800000E+00  1.00800000E+00  1.20100000E+01  1.00800000E+00  1.00800000E+00
  1.20100000E+01  1.00800000E+00  1.00800000E+00  1.20100000E+01  1.20100000E+01
  1.00800000E+00  1.00800000E+00  1.20100000E+01  1.20100000E+01  1.20100000E+01
  1.00800000E+00  1.00800000E+00  1.20100000E+01  1.00800000E+00  1.20100000E+01
  1.00800000E+00  1.20100000E+01  1.00800000E+00  1.00800000E+00  1.20100000E+01
  1.00800000E+00  1.00800000E+00  1.20100000E+01  1.00800000E+00  1.00800000E+00
  1.00800000E+00  1.00800000E+00  1.00800000E+00  1.20100000E+01  1.20100000E+01
  1.00800000E+00  1.00800000E+00  1.00800000E+00  1.20100000E+01  1.00800000E+00
  1.00800000E+00  1.00800000E+00  1.00800000E+00  3.20600000E+01  1.20100000E+01
  1.20100000E+01  1.20100000E+01  1.20100000E+01  1.20100000E+01  3.20600000E+01
  1.20100000E+01  1.20100000E+01  1.00800000E+00  1.20100000E+01  1.20100000E+01
  1.20100000E+01  1.20100000E+01  1.20100000E+01  1.00800000E+00  1.20100000E+01
  1.20100000E+01  1.00800000E+00  1.00800000E+00  1.20100000E+01  1.00800000E+00
  1.00800000E+00  1.20100000E+01  1.00800000E+00  1.00800000E+00  1.20100000E+01
  1.00800000E+00  1.00800000E+00  1.20100000E+01  1.20100000E+01  1.00800000E+00
  1.00800000E+00  1.20100000E+01  1.20100000E+01  1.20100000E+01  1.00800000E+00
  1.00800000E+00  1.20100000E+01  1.00800000E+00  1.20100000E+01  1.00800000E+00
  1.20100000E+01  1.00800000E+00  1.00800000E+00  1.20100000E+01  1.00800000E+00
  1.00800000E+00  1.20100000E+01  1.00800000E+00  1.00800000E+00  1.00800000E+00
  1.00800000E+00  1.00800000E+00  1.20100000E+01  1.20100000E+01  1.00800000E+00
  1.00800000E+00  1.00800000E+00  1.20100000E+01  1.00800000E+00  1.00800000E+00
  1.00800000E+00  1.00800000E+00  3.20600000E+01  1.20100000E+01  1.20100000E+01
  1.20100000E+01  1.20100000E+01  1.20100000E+01  3.20600000E+01  1.20100000E+01
  1.20100000E+01  1.00800000E+00  1.20100000E+01  1.20100000E+01  1.20100000E+01
  1.20100000E+01  1.20100000E+01  1.00800000E+00  1.20100000E+01  1.20100000E+01
  1.00800000E+00  1.00800000E+00  1.20100000E+01  1.00800000E+00  1.00800000E+00
  1.20100000E+01  1.00800000E+00  1.00800000E+00  1.20100000E+01  1.00800000E+00
  1.00800000E+00  1.20100000E+01  1.20100000E+01  1.00800000E+00  1.00800000E+00
  1.20100000E+01  1.20100000E+01  1.20100000E+01  1.00800000E+00  1.00800000E+00
  1.20100000E+01  1.00800000E+00  1.20100000E+01  1.00800000E+00  1.20100000E+01
  1.00800000E+00  1.00800000E+00  1.20100000E+01  1.00800000E+00  1.00800000E+00
  1.20100000E+01  1.00800000E+00  1.00800000E+00  1.00800000E+00  1.00800000E+00
  1.00800000E+00  1.20100000E+01  1.20100000E+01  1.00800000E+00  1.00800000E+00
  1.00800000E+00  1.20100000E+01  1.00800000E+00  1.00800000E+00  1.00800000E+00
  1.00800000E+00  3.20600000E+01  1.20100000E+01  1.20100000E+01  1.20100000E+01
  1.20100000E+01  1.20100000E+01  3.20600000E+01  1.20100000E+01  1.20100000E+01
  1.00800000E+00  1.20100000E+01  1.20100000E+01  1.20100000E+01  1.20100000E+01
  1.20100000E+01  1.00800000E+00  1.20100000E+01  1.20100000E+01  1.00800000E+00
  1.00800000E+00  1.20100000E+01  1.00800000E+00  1.00800000E+00  1.20100000E+01
  1.00800000E+00  1.00800000E+00  1.20100000E+01  1.00800000E+00  1.00800000E+00
  1.20100000E+01  1.20100000E+01  1.00800000E+00  1.00800000E+00  1.20100000E+01
  1.20100000E+01  1.20100000E+01  1.00800000E+00  1.00800000E+00  1.20100000E+01
  1.00800000E+00  1.20100000E+01  1.00800000E+00  1.20100000E+01  1.00800000E+00
  1.00800000E+00  1.20100000E+01  1.00800000E+00  1.00800000E+00  1.20100000E+01
  1.00800000E+00  1.00800000E+00  1.00800000E+00  1.00800000E+00  1.00800000E+00
  1.20100000E+01  1.20100000E+01  1.00800000E+00  1.00800000E+00  1.00800000E+00
  1.20100000E+01  1.00800000E+00  1.00800000E+00  1.00800000E+00  1.00800000E+00
  3.20600000E+01  1.20100000E+01  1.20100000E+01  1.20100000E+01  1.20100000E+01
  1.20100000E+01  3.20600000E+01  1.20100000E+01  1.20100000E+01  1.00800000E+00
  1.20100000E+01  1.20100000E+01  1.20100000E+01  1.20100000E+01  1.20100000E+01
  1.00800000E+00  1.20100000E+01  1.20100000E+01  1.00800000E+00  1.00800000E+00
  1.20100000E+01  1.00800000E+00  1.00800000E+00  1.20100000E+01  1.00800000E+00
  1.00800000E+00  1.20100000E+01  1.00800000E+00  1.00800000E+00  1.20100000E+01
  1.20100000E+01  1.00800000E+00  1.00800000E+00  1.20100000E+01  1.20100000E+01
  1.20100000E+01  1.00800000E+00  1.00800000E+00  1.20100000E+01  1.00800000E+00
  1.20100000E+01  1.00800000E+00  1.20100000E+01  1.00800000E+00  1.00800000E+00
  1.20100000E+01  1.00800000E+00  1.00800000E+00  1.20100000E+01  1.00800000E+00
  1.00800000E+00  1.00800000E+00  1.00800000E+00  1.00800000E+00  1.20100000E+01
  1.20100000E+01  1.00800000E+00  1.00800000E+00  1.00800000E+00  1.20100000E+01
  1.00800000E+00  1.00800000E+00  1.00800000E+00  1.00800000E+00  3.20600000E+01
  1.20100000E+01  1.20100000E+01  1.20100000E+01  1.20100000E+01  1.20100000E+01
  3.20600000E+01  1.20100000E+01  1.20100000E+01  1.00800000E+00  1.20100000E+01
  1.20100000E+01  1.20100000E+01  1.20100000E+01  1.20100000E+01  1.00800000E+00
  1.20100000E+01  1.20100000E+01  1.00800000E+00  1.00800000E+00  1.20100000E+01
  1.00800000E+00  1.00800000E+00  1.20100000E+01  1.00800000E+00  1.00800000E+00
  1.20100000E+01  1.00800000E+00  1.00800000E+00  1.20100000E+01  1.20100000E+01
  1.00800000E+00  1.00800000E+00  1.20100000E+01  1.20100000E+01  1.20100000E+01
  1.00800000E+00  1.00800000E+00  1.20100000E+01  1.00800000E+00  1.20100000E+01
  1.00800000E+00  1.20100000E+01  1.00800000E+00  1.00800000E+00  1.20100000E+01
  1.00800000E+00  1.00800000E+00  1.20100000E+01  1.00800000E+00  1.00800000E+00
  1.00800000E+00  1.00800000E+00  1.00800000E+00  1.20100000E+01  1.20100000E+01
  1.00800000E+00  1.00800000E+00  1.00800000E+00  1.20100000E+01  1.00800000E+00
  1.00800000E+00  1.00800000E+00  1.00800000E+00  3.20600000E+01  1.20100000E+01
  1.20100000E+01  1.20100000E+01  1.20100000E+01  1.20100000E+01  3.20600000E+01
  1.20100000E+01  1.20100000E+01  1.00800000E+00  1.20100000E+01  1.20100000E+01
  1.20100000E+01  1.20100000E+01  1.20100000E+01  1.00800000E+00  1.20100000E+01
  1.20100000E+01  1.00800000E+00  1.00800000E+00  1.20100000E+01  1.00800000E+00
  1.00800000E+00  1.20100000E+01  1.00800000E+00  1.00800000E+00  1.20100000E+01
  1.00800000E+00  1.00800000E+00  1.20100000E+01  1.20100000E+01  1.00800000E+00
  1.00800000E+00  1.20100000E+01  1.20100000E+01  1.20100000E+01  1.00800000E+00
  1.00800000E+00  1.20100000E+01  1.00800000E+00  1.20100000E+01  1.00800000E+00
  1.20100000E+01  1.00800000E+00  1.00800000E+00  1.20100000E+01  1.00800000E+00
  1.00800000E+00  1.20100000E+01  1.00800000E+00  1.00800000E+00  1.00800000E+00
  1.00800000E+00  1.00800000E+00  1.20100000E+01  1.20100000E+01  1.00800000E+00
  1.00800000E+00  1.00800000E+00  1.20100000E+01  1.00800000E+00  1.00800000E+00
  1.00800000E+00  1.00800000E+00  3.20600000E+01  1.20100000E+01  1.20100000E+01
  1.20100000E+01  1.20100000E+01  1.20100000E+01  3.20600000E+01  1.20100000E+01
  1.20100000E+01  1.00800000E+00  1.20100000E+01  1.20100000E+01  1.20100000E+01
  1.20100000E+01  1.20100000E+01  1.00800000E+00  1.20100000E+01  1.20100000E+01
  1.00800000E+00  1.00800000E+00  1.20100000E+01  1.00800000E+00  1.00800000E+00
  1.20100000E+01  1.00800000E+00  1.00800000E+00  1.20100000E+01  1.00800000E+00
  1.00800000E+00  1.20100000E+01  1.20100000E+01  1.00800000E+00  1.00800000E+00
  1.20100000E+01  1.20100000E+01  1.20100000E+01  1.00800000E+00  1.00800000E+00
  1.20100000E+01  1.00800000E+00  1.20100000E+01  1.00800000E+00  1.20100000E+01
  1.00800000E+00  1.00800000E+00  1.20100000E+01  1.00800000E+00  1.00800000E+00
  1.20100000E+01  1.00800000E+00  1.00800000E+00  1.00800000E+00  1.00800000E+00
  1.00800000E+00  1.20100000E+01  1.20100000E+01  1.00800000E+00  1.00800000E+00
  1.00800000E+00  1.20100000E+01  1.00800000E+00  1.00800000E+00  1.00800000E+00
  1.00800000E+00  3.20600000E+01  1.20100000E+01  1.20100000E+01  1.20100000E+01
  1.20100000E+01  1.20100000E+01  3.20600000E+01  1.20100000E+01  1.20100000E+01
  1.00800000E+00  1.20100000E+01  1.20100000E+01  1.20100000E+01  1.20100000E+01
  1.20100000E+01  1.00800000E+00  1.20100000E+01  1.20100000E+01  1.00800000E+00
  1.00800000E+00  1.20100000E+01  1.00800000E+00  1.00800000E+00  1.20100000E+01
  1.00800000E+00  1.00800000E+00  1.20100000E+01  1.00800000E+00  1.00800000E+00
  1.20100000E+01  1.20100000E+01  1.00800000E+00  1.00800000E+00  1.20100000E+01
  1.20100000E+01  1.20100000E+01  1.00800000E+00  1.00800000E+00  1.20100000E+01
  1.00800000E+00  1.20100000E+01  1.00800000E+00  1.20100000E+01  1.00800000E+00
  1.00800000E+00  1.20100000E+01  1.00800000E+00  1.00800000E+00  1.20100000E+01
  1.00800000E+00  1.00800000E+00  1.00800000E+00  1.00800000E+00  1.00800000E+00
  1.20100000E+01  1.20100000E+01  1.00800000E+00  1.00800000E+00  1.00800000E+00
  1.20100000E+01  1.00800000E+00  1.00800000E+00  1.00800000E+00  1.00800000E+00
  3.20600000E+01  1.20100000E+01  1.20100000E+01  1.20100000E+01  1.20100000E+01
  1.20100000E+01  3.20600000E+01  1.20100000E+01  1.20100000E+01  1.00800000E+00
  1.20100000E+01  1.20100000E+01  1.20100000E+01  1.20100000E+01  1.20100000E+01
  1.00800000E+00  1.20100000E+01  1.20100000E+01  1.00800000E+00  1.00800000E+00
  1.20100000E+01  1.00800000E+00  1.00800000E+00  1.20100000E+01  1.00800000E+00
  1.00800000E+00  1.20100000E+01  1.00800000E+00  1.00800000E+00  1.20100000E+01
  1.20100000E+01  1.00800000E+00  1.00800000E+00  1.20100000E+01  1.20100000E+01
  1.20100000E+01  1.00800000E+00  1.00800000E+00  1.20100000E+01  1.00800000E+00
  1.20100000E+01  1.00800000E+00  1.20100000E+01  1.00800000E+00  1.00800000E+00
  1.20100000E+01  1.00800000E+00  1.00800000E+00  1.20100000E+01  1.00800000E+00
  1.00800000E+00  1.00800000E+00  1.00800000E+00  1.00800000E+00  1.20100000E+01
  1.20100000E+01  1.00800000E+00  1.00800000E+00  1.00800000E+00  1.20100000E+01
  1.00800000E+00  1.00800000E+00  1.00800000E+00  1.00800000E+00  3.20600000E+01
  1.20100000E+01  1.20100000E+01  1.20100000E+01  1.20100000E+01  1.20100000E+01
  3.20600000E+01  1.20100000E+01  1.20100000E+01  1.00800000E+00  1.20100000E+01
  1.20100000E+01  1.20100000E+01  1.20100000E+01  1.20100000E+01  1.00800000E+00
  1.20100000E+01  1.20100000E+01  1.00800000E+00  1.00800000E+00  1.20100000E+01
  1.00800000E+00  1.00800000E+00  1.20100000E+01  1.00800000E+00  1.00800000E+00
  1.20100000E+01  1.00800000E+00  1.00800000E+00  1.20100000E+01  1.20100000E+01
  1.00800000E+00  1.00800000E+00  1.20100000E+01  1.20100000E+01  1.20100000E+01
  1.00800000E+00  1.00800000E+00  1.20100000E+01  1.00800000E+00  1.20100000E+01
  1.00800000E+00  1.20100000E+01  1.00800000E+00  1.00800000E+00  1.20100000E+01
  1.00800000E+00  1.00800000E+00  1.20100000E+01  1.00800000E+00  1.00800000E+00
  1.00800000E+00  1.00800000E+00  1.00800000E+00  1.20100000E+01  1.20100000E+01
  1.00800000E+00  1.00800000E+00  1.00800000E+00  1.20100000E+01  1.00800000E+00
  1.00800000E+00  1.00800000E+00  1.00800000E+00  3.20600000E+01  1.20100000E+01
  1.20100000E+01  1.20100000E+01  1.20100000E+01  1.20100000E+01  3.20600000E+01
  1.20100000E+01  1.20100000E+01  1.00800000E+00  1.20100000E+01  1.20100000E+01
  1.20100000E+01  1.20100000E+01  1.20100000E+01  1.00800000E+00  1.20100000E+01
  1.20100000E+01  1.00800000E+00  1.00800000E+00  1.20100000E+01  1.00800000E+00
  1.00800000E+00  1.20100000E+01  1.00800000E+00  1.00800000E+00  1.20100000E+01
  1.00800000E+00  1.00800000E+00  1.20100000E+01  1.20100000E+01  1.00800000E+00
  1.00800000E+00  1.20100000E+01  1.20100000E+01  1.20100000E+01  1.00800000E+00
  1.00800000E+00  1.20100000E+01  1.00800000E+00  1.20100000E+01  1.00800000E+00
  1.20100000E+01  1.00800000E+00  1.00800000E+00  1.20100000E+01  1.00800000E+00
  1.00800000E+00  1.20100000E+01  1.00800000E+00  1.00800000E+00  1.00800000E+00
  1.00800000E+00  1.00800000E+00  1.20100000E+01  1.20100000E+01  1.00800000E+00
  1.00800000E+00  1.00800000E+00  1.20100000E+01  1.00800000E+00  1.00800000E+00
  1.00800000E+00  1.00800000E+00  3.20600000E+01  1.20100000E+01  1.20100000E+01
  1.20100000E+01  1.20100000E+01  1.20100000E+01  3.20600000E+01  1.20100000E+01
  1.20100000E+01  1.00800000E+00  1.20100000E+01  1.20100000E+01  1.20100000E+01
  1.20100000E+01  1.20100000E+01  1.00800000E+00  1.20100000E+01  1.20100000E+01
  1.00800000E+00  1.00800000E+00  1.20100000E+01  1.00800000E+00  1.00800000E+00
  1.20100000E+01  1.00800000E+00  1.00800000E+00  1.20100000E+01  1.00800000E+00
  1.00800000E+00  1.20100000E+01  1.20100000E+01  1.00800000E+00  1.00800000E+00
  1.20100000E+01  1.20100000E+01  1.20100000E+01  1.00800000E+00  1.00800000E+00
  1.20100000E+01  1.00800000E+00  1.20100000E+01  1.00800000E+00  1.20100000E+01
  1.00800000E+00  1.00800000E+00  1.20100000E+01  1.00800000E+00  1.00800000E+00
  1.20100000E+01  1.00800000E+00  1.00800000E+00  1.00800000E+00  1.00800000E+00
  1.00800000E+00  1.20100000E+01  1.20100000E+01  1.00800000E+00  1.00800000E+00
  1.00800000E+00  1.20100000E+01  1.00800000E+00  1.00800000E+00  1.00800000E+00
  1.00800000E+00  3.20600000E+01  1.20100000E+01  1.20100000E+01  1.20100000E+01
  1.20100000E+01  1.20100000E+01  3.20600000E+01  1.20100000E+01  1.20100000E+01
  1.00800000E+00  1.20100000E+01  1.20100000E+01  1.20100000E+01  1.20100000E+01
  1.20100000E+01  1.00800000E+00  1.20100000E+01  1.20100000E+01  1.00800000E+00
  1.00800000E+00  1.20100000E+01  1.00800000E+00  1.00800000E+00  1.20100000E+01
  1.00800000E+00  1.00800000E+00  1.20100000E+01  1.00800000E+00  1.00800000E+00
  1.20100000E+01  1.20100000E+01  1.00800000E+00  1.00800000E+00  1.20100000E+01
  1.20100000E+01  1.20100000E+01  1.00800000E+00  1.00800000E+00  1.20100000E+01
  1.00800000E+00  1.20100000E+01  1.00800000E+00  1.20100000E+01  1.00800000E+00
  1.00800000E+00  1.20100000E+01  1.00800000E+00  1.00800000E+00  1.20100000E+01
  1.00800000E+00  1.00800000E+00  1.00800000E+00  1.00800000E+00  1.00800000E+00
  1.20100000E+01  1.20100000E+01  1.00800000E+00  1.00800000E+00  1.00800000E+00
  1.20100000E+01  1.00800000E+00  1.00800000E+00  1.00800000E+00  1.00800000E+00
  3.20600000E+01  1.20100000E+01  1.20100000E+01  1.20100000E+01  1.20100000E+01
  1.20100000E+01  3.20600000E+01  1.20100000E+01  1.20100000E+01  1.00800000E+00
  1.20100000E+01  1.20100000E+01  1.20100000E+01  1.20100000E+01  1.20100000E+01
  1.00800000E+00  1.20100000E+01  1.20100000E+01  1.00800000E+00  1.00800000E+00
  1.20100000E+01  1.00800000E+00  1.00800000E+00  1.20100000E+01  1.00800000E+00
  1.00800000E+00  1.20100000E+01  1.00800000E+00  1.00800000E+00  1.20100000E+01
  1.20100000E+01  1.00800000E+00  1.00800000E+00  1.20100000E+01  1.20100000E+01
  1.20100000E+01  1.00800000E+00  1.00800000E+00  1.20100000E+01  1.00800000E+00
  1.20100000E+01  1.00800000E+00  1.20100000E+01  1.00800000E+00  1.00800000E+00
  1.20100000E+01  1.00800000E+00  1.00800000E+00  1.20100000E+01  1.00800000E+00
  1.00800000E+00  1.00800000E+00  1.00800000E+00  1.00800000E+00  1.20100000E+01
  1.20100000E+01  1.00800000E+00  1.00800000E+00  1.00800000E+00  1.20100000E+01
  1.00800000E+00  1.00800000E+00  1.00800000E+00  1.00800000E+00  3.20600000E+01
  1.20100000E+01  1.20100000E+01  1.20100000E+01  1.20100000E+01  1.20100000E+01
  3.20600000E+01  1.20100000E+01  1.20100000E+01  1.00800000E+00  1.20100000E+01
  1.20100000E+01  1.20100000E+01  1.20100000E+01  1.20100000E+01  1.00800000E+00
  1.20100000E+01  1.20100000E+01  1.00800000E+00  1.00800000E+00  1.20100000E+01
  1.00800000E+00  1.00800000E+00  1.20100000E+01  1.00800000E+00  1.00800000E+00
  1.20100000E+01  1.00800000E+00  1.00800000E+00  1.20100000E+01  1.20100000E+01
  1.00800000E+00  1.00800000E+00  1.20100000E+01  1.20100000E+01  1.20100000E+01
  1.00800000E+00  1.00800000E+00  1.20100000E+01  1.00800000E+00  1.20100000E+01
  1.00800000E+00  1.20100000E+01  1.00800000E+00  1.00800000E+00  1.20100000E+01
  1.00800000E+00  1.00800000E+00  1.20100000E+01  1.00800000E+00  1.00800000E+00
  1.00800000E+00  1.00800000E+00  1.00800000E+00  1.20100000E+01  1.20100000E+01
  1.00800000E+00  1.00800000E+00  1.00800000E+00  1.20100000E+01  1.00800000E+00
  1.00800000E+00  1.00800000E+00  1.00800000E+00  3.20600000E+01  1.20100000E+01
  1.20100000E+01  1.20100000E+01  1.20100000E+01  1.20100000E+01  3.20600000E+01
  1.20100000E+01  1.20100000E+01  1.00800000E+00  1.20100000E+01  1.20100000E+01
  1.20100000E+01  1.20100000E+01  1.20100000E+01  1.00800000E+00  1.20100000E+01
  1.20100000E+01  1.00800000E+00  1.00800000E+00  1.20100000E+01  1.00800000E+00
  1.00800000E+00  1.20100000E+01  1.00800000E+00  1.00800000E+00  1.20100000E+01
  1.00800000E+00  1.00800000E+00  1.20100000E+01  1.20100000E+01  1.00800000E+00
  1.00800000E+00  1.20100000E+01  1.20100000E+01  1.20100000E+01  1.00800000E+00
  1.00800000E+00  1.20100000E+01  1.00800000E+00  1.20100000E+01  1.00800000E+00
  1.20100000E+01  1.00800000E+00  1.00800000E+00  1.20100000E+01  1.00800000E+00
  1.00800000E+00  1.20100000E+01  1.00800000E+00  1.00800000E+00  1.00800000E+00
  1.00800000E+00  1.00800000E+00  1.20100000E+01  1.20100000E+01  1.00800000E+00
  1.00800000E+00  1.00800000E+00  1.20100000E+01  1.00800000E+00  1.00800000E+00
  1.00800000E+00  1.00800000E+00  3.20600000E+01  1.20100000E+01  1.20100000E+01
  1.20100000E+01  1.20100000E+01  1.20100000E+01  3.20600000E+01  1.20100000E+01
  1.20100000E+01  1.00800000E+00  1.20100000E+01  1.20100000E+01  1.20100000E+01
  1.20100000E+01  1.20100000E+01  1.00800000E+00  1.20100000E+01  1.20100000E+01
  1.00800000E+00  1.00800000E+00  1.20100000E+01  1.00800000E+00  1.00800000E+00
  1.20100000E+01  1.00800000E+00  1.00800000E+00  1.20100000E+01  1.00800000E+00
  1.00800000E+00  1.20100000E+01  1.20100000E+01  1.00800000E+00  1.00800000E+00
  1.20100000E+01  1.20100000E+01  1.20100000E+01  1.00800000E+00  1.00800000E+00
  1.20100000E+01  1.00800000E+00  1.20100000E+01  1.00800000E+00  1.20100000E+01
  1.00800000E+00  1.00800000E+00  1.20100000E+01  1.00800000E+00  1.00800000E+00
  1.20100000E+01  1.00800000E+00  1.00800000E+00  1.00800000E+00  1.00800000E+00
  1.00800000E+00  1.20100000E+01  1.20100000E+01  1.00800000E+00  1.00800000E+00
  1.00800000E+00  1.20100000E+01  1.00800000E+00  1.00800000E+00  1.00800000E+00
  1.00800000E+00  3.20600000E+01  1.20100000E+01  1.20100000E+01  1.20100000E+01
  1.20100000E+01  1.20100000E+01  3.20600000E+01  1.20100000E+01  1.20100000E+01
  1.00800000E+00  1.20100000E+01  1.20100000E+01  1.20100000E+01  1.20100000E+01
  1.20100000E+01  1.00800000E+00  1.20100000E+01  1.20100000E+01  1.00800000E+00
  1.00800000E+00  1.20100000E+01  1.00800000E+00  1.00800000E+00  1.20100000E+01
  1.00800000E+00  1.00800000E+00  1.20100000E+01  1.00800000E+00  1.00800000E+00
  1.20100000E+01  1.20100000E+01  1.00800000E+00  1.00800000E+00  1.20100000E+01
  1.20100000E+01  1.20100000E+01  1.00800000E+00  1.00800000E+00  1.20100000E+01
  1.00800000E+00  1.20100000E+01  1.00800000E+00  1.20100000E+01  1.00800000E+00
  1.00800000E+00  1.20100000E+01  1.00800000E+00  1.00800000E+00  1.20100000E+01
  1.00800000E+00  1.00800000E+00  1.00800000E+00  1.00800000E+00  1.00800000E+00
  1.20100000E+01  1.20100000E+01  1.00800000E+00  1.00800000E+00  1.00800000E+00
  1.20100000E+01  1.00800000E+00  1.00800000E+00  1.00800000E+00  1.00800000E+00
  3.20600000E+01  1.20100000E+01  1.20100000E+01  1.20100000E+01  1.20100000E+01
  1.20100000E+01  3.20600000E+01  1.20100000E+01  1.20100000E+01  1.00800000E+00
  1.20100000E+01  1.20100000E+01  1.20100000E+01  1.20100000E+01  1.20100000E+01
  1.00800000E+00  1.20100000E+01  1.20100000E+01  1.00800000E+00  1.00800000E+00
  1.20100000E+01  1.00800000E+00  1.00800000E+00  1.20100000E+01  1.00800000E+00
  1.00800000E+00  1.20100000E+01  1.00800000E+00  1.00800000E+00  1.20100000E+01
  1.20100000E+01  1.00800000E+00  1.00800000E+00  1.20100000E+01  1.20100000E+01
  1.20100000E+01  1.00800000E+00  1.00800000E+00  1.20100000E+01  1.00800000E+00
  1.20100000E+01  1.00800000E+00  1.20100000E+01  1.00800000E+00  1.00800000E+00
  1.20100000E+01  1.00800000E+00  1.00800000E+00  1.20100000E+01  1.00800000E+00
  1.00800000E+00  1.00800000E+00  1.00800000E+00  1.00800000E+00  1.20100000E+01
  1.20100000E+01  1.00800000E+00  1.00800000E+00  1.00800000E+00  1.20100000E+01
  1.00800000E+00  1.00800000E+00  1.00800000E+00  1.00800000E+00  3.20600000E+01
  1.20100000E+01  1.20100000E+01  1.20100000E+01  1.20100000E+01  1.20100000E+01
  3.20600000E+01  1.20100000E+01  1.20100000E+01  1.00800000E+00  1.20100000E+01
  1.20100000E+01  1.20100000E+01  1.20100000E+01  1.20100000E+01  1.00800000E+00
  1.20100000E+01  1.20100000E+01  1.00800000E+00  1.00800000E+00  1.20100000E+01
  1.00800000E+00  1.00800000E+00  1.20100000E+01  1.00800000E+00  1.00800000E+00
  1.20100000E+01  1.00800000E+00  1.00800000E+00  1.20100000E+01  1.20100000E+01
  1.00800000E+00  1.00800000E+00  1.20100000E+01  1.20100000E+01  1.20100000E+01
  1.00800000E+00  1.00800000E+00  1.20100000E+01  1.00800000E+00  1.20100000E+01
  1.00800000E+00  1.20100000E+01  1.00800000E+00  1.00800000E+00  1.20100000E+01
  1.00800000E+00  1.00800000E+00  1.20100000E+01  1.00800000E+00  1.00800000E+00
  1.00800000E+00  1.00800000E+00  1.00800000E+00  1.20100000E+01  1.20100000E+01
  1.00800000E+00  1.00800000E+00  1.00800000E+00  1.20100000E+01  1.00800000E+00
  1.00800000E+00  1.00800000E+00  1.00800000E+00  3.20600000E+01  1.20100000E+01
  1.20100000E+01  1.20100000E+01  1.20100000E+01  1.20100000E+01  3.20600000E+01
  1.20100000E+01  1.20100000E+01  1.00800000E+00  1.20100000E+01  1.20100000E+01
  1.20100000E+01  1.20100000E+01  1.20100000E+01  1.00800000E+00  1.20100000E+01
  1.20100000E+01  1.00800000E+00  1.00800000E+00  1.20100000E+01  1.00800000E+00
  1.00800000E+00  1.20100000E+01  1.00800000E+00  1.00800000E+00  1.20100000E+01
  1.00800000E+00  1.00800000E+00  1.20100000E+01  1.20100000E+01  1.00800000E+00
  1.00800000E+00  1.20100000E+01  1.20100000E+01  1.20100000E+01  1.00800000E+00
  1.00800000E+00  1.20100000E+01  1.00800000E+00  1.20100000E+01  1.00800000E+00
  1.20100000E+01  1.00800000E+00  1.00800000E+00  1.20100000E+01  1.00800000E+00
  1.00800000E+00  1.20100000E+01  1.00800000E+00  1.00800000E+00  1.00800000E+00
  1.00800000E+00  1.00800000E+00  1.20100000E+01  1.20100000E+01  1.00800000E+00
  1.00800000E+00  1.00800000E+00  1.20100000E+01  1.00800000E+00  1.00800000E+00
  1.00800000E+00  1.00800000E+00  3.20600000E+01  1.20100000E+01  1.20100000E+01
  1.20100000E+01  1.20100000E+01  1.20100000E+01  3.20600000E+01  1.20100000E+01
  1.20100000E+01  1.00800000E+00  1.20100000E+01  1.20100000E+01  1.20100000E+01
  1.20100000E+01  1.20100000E+01  1.00800000E+00  1.20100000E+01  1.20100000E+01
  1.00800000E+00  1.00800000E+00  1.20100000E+01  1.00800000E+00  1.00800000E+00
  1.20100000E+01  1.00800000E+00  1.00800000E+00  1.20100000E+01  1.00800000E+00
  1.00800000E+00  1.20100000E+01  1.20100000E+01  1.00800000E+00  1.00800000E+00
  1.20100000E+01  1.20100000E+01  1.20100000E+01  1.00800000E+00  1.00800000E+00
  1.20100000E+01  1.00800000E+00  1.20100000E+01  1.00800000E+00  1.20100000E+01
  1.00800000E+00  1.00800000E+00  1.20100000E+01  1.00800000E+00  1.00800000E+00
  1.20100000E+01  1.00800000E+00  1.00800000E+00  1.00800000E+00  1.00800000E+00
  1.00800000E+00  1.20100000E+01  1.20100000E+01  1.00800000E+00  1.00800000E+00
  1.00800000E+00  1.20100000E+01  1.00800000E+00  1.00800000E+00  1.00800000E+00
  1.00800000E+00  3.20600000E+01  1.20100000E+01  1.20100000E+01  1.20100000E+01
  1.20100000E+01  1.20100000E+01  3.20600000E+01  1.20100000E+01  1.20100000E+01
  1.00800000E+00  1.20100000E+01  1.20100000E+01  1.20100000E+01  1.20100000E+01
  1.20100000E+01  1.00800000E+00  1.20100000E+01  1.20100000E+01  1.00800000E+00
  1.00800000E+00  1.20100000E+01  1.00800000E+00  1.00800000E+00  1.20100000E+01
  1.00800000E+00  1.00800000E+00  1.20100000E+01  1.00800000E+00  1.00800000E+00
  1.20100000E+01  1.20100000E+01  1.00800000E+00  1.00800000E+00  1.20100000E+01
  1.20100000E+01  1.20100000E+01  1.00800000E+00  1.00800000E+00  1.20100000E+01
  1.00800000E+00  1.20100000E+01  1.00800000E+00  1.20100000E+01  1.00800000E+00
  1.00800000E+00  1.20100000E+01  1.00800000E+00  1.00800000E+00  1.20100000E+01
  1.00800000E+00  1.00800000E+00  1.00800000E+00  1.00800000E+00  1.00800000E+00
  1.20100000E+01  1.20100000E+01  1.00800000E+00  1.00800000E+00  1.00800000E+00
  1.20100000E+01  1.00800000E+00  1.00800000E+00  1.00800000E+00  1.00800000E+00
  3.20600000E+01  1.20100000E+01  1.20100000E+01  1.20100000E+01  1.20100000E+01
  1.20100000E+01  3.20600000E+01  1.20100000E+01  1.20100000E+01  1.00800000E+00
  1.20100000E+01  1.20100000E+01  1.20100000E+01  1.20100000E+01  1.20100000E+01
  1.00800000E+00  1.20100000E+01  1.20100000E+01  1.00800000E+00  1.00800000E+00
  1.20100000E+01  1.00800000E+00  1.00800000E+00  1.20100000E+01  1.00800000E+00
  1.00800000E+00  1.20100000E+01  1.00800000E+00  1.00800000E+00  1.20100000E+01
  1.20100000E+01  1.00800000E+00  1.00800000E+00  1.20100000E+01  1.20100000E+01
  1.20100000E+01  1.00800000E+00  1.00800000E+00  1.20100000E+01  1.00800000E+00
  1.20100000E+01  1.00800000E+00  1.20100000E+01  1.00800000E+00  1.00800000E+00
  1.20100000E+01  1.00800000E+00  1.00800000E+00  1.20100000E+01  1.00800000E+00
  1.00800000E+00  1.00800000E+00  1.00800000E+00  1.00800000E+00  1.20100000E+01
  1.20100000E+01  1.00800000E+00  1.00800000E+00  1.00800000E+00  1.20100000E+01
  1.00800000E+00  1.00800000E+00  1.00800000E+00  1.00800000E+00  3.20600000E+01
  1.20100000E+01  1.20100000E+01  1.20100000E+01  1.20100000E+01  1.20100000E+01
  3.20600000E+01  1.20100000E+01  1.20100000E+01  1.00800000E+00  1.20100000E+01
  1.20100000E+01  1.20100000E+01  1.20100000E+01  1.20100000E+01  1.00800000E+00
  1.20100000E+01  1.20100000E+01  1.00800000E+00  1.00800000E+00  1.20100000E+01
  1.00800000E+00  1.00800000E+00  1.20100000E+01  1.00800000E+00  1.00800000E+00
  1.20100000E+01  1.00800000E+00  1.00800000E+00  1.20100000E+01  1.20100000E+01
  1.00800000E+00  1.00800000E+00  1.20100000E+01  1.20100000E+01  1.20100000E+01
  1.00800000E+00  1.00800000E+00  1.20100000E+01  1.00800000E+00  1.20100000E+01
  1.00800000E+00  1.20100000E+01  1.00800000E+00  1.00800000E+00  1.20100000E+01
  1.00800000E+00  1.00800000E+00  1.20100000E+01  1.00800000E+00  1.00800000E+00
  1.00800000E+00  1.00800000E+00  1.00800000E+00  1.20100000E+01  1.20100000E+01
  1.00800000E+00  1.00800000E+00  1.00800000E+00  1.20100000E+01  1.00800000E+00
  1.00800000E+00  1.00800000E+00  1.00800000E+00  3.20600000E+01  1.20100000E+01
  1.20100000E+01  1.20100000E+01  1.20100000E+01  1.20100000E+01  3.20600000E+01
  1.20100000E+01  1.20100000E+01  1.00800000E+00  1.20100000E+01  1.20100000E+01
  1.20100000E+01  1.20100000E+01  1.20100000E+01  1.00800000E+00  1.20100000E+01
  1.20100000E+01  1.00800000E+00  1.00800000E+00  1.20100000E+01  1.00800000E+00
  1.00800000E+00  1.20100000E+01  1.00800000E+00  1.00800000E+00  1.20100000E+01
  1.00800000E+00  1.00800000E+00  1.20100000E+01  1.20100000E+01  1.00800000E+00
  1.00800000E+00  1.20100000E+01  1.20100000E+01  1.20100000E+01  1.00800000E+00
  1.00800000E+00  1.20100000E+01  1.00800000E+00  1.20100000E+01  1.00800000E+00
  1.20100000E+01  1.00800000E+00  1.00800000E+00  1.20100000E+01  1.00800000E+00
  1.00800000E+00  1.20100000E+01  1.00800000E+00  1.00800000E+00  1.00800000E+00
  1.00800000E+00  1.00800000E+00  1.20100000E+01  1.20100000E+01  1.00800000E+00
  1.00800000E+00  1.00800000E+00  1.20100000E+01  1.00800000E+00  1.00800000E+00
  1.00800000E+00  1.00800000E+00  3.20600000E+01  1.20100000E+01  1.20100000E+01
  1.20100000E+01  1.20100000E+01  1.20100000E+01  3.20600000E+01  1.20100000E+01
  1.20100000E+01  1.00800000E+00  1.20100000E+01  1.20100000E+01  1.20100000E+01
  1.20100000E+01  1.20100000E+01  1.00800000E+00  1.20100000E+01  1.20100000E+01
  1.00800000E+00  1.00800000E+00  1.20100000E+01  1.00800000E+00  1.00800000E+00
  1.20100000E+01  1.00800000E+00  1.00800000E+00  1.20100000E+01  1.00800000E+00
  1.00800000E+00  1.20100000E+01  1.20100000E+01  1.00800000E+00  1.00800000E+00
  1.20100000E+01  1.20100000E+01  1.20100000E+01  1.00800000E+00  1.00800000E+00
  1.20100000E+01  1.00800000E+00  1.20100000E+01  1.00800000E+00  1.20100000E+01
  1.00800000E+00  1.00800000E+00  1.20100000E+01  1.00800000E+00  1.00800000E+00
  1.20100000E+01  1.00800000E+00  1.00800000E+00  1.00800000E+00  1.00800000E+00
  1.00800000E+00  1.20100000E+01  1.20100000E+01  1.00800000E+00  1.00800000E+00
  1.00800000E+00  1.20100000E+01  1.00800000E+00  1.00800000E+00  1.00800000E+00
  1.00800000E+00  3.20600000E+01  1.20100000E+01  1.20100000E+01  1.20100000E+01
  1.20100000E+01  1.20100000E+01  3.20600000E+01  1.20100000E+01  1.20100000E+01
  1.00800000E+00  1.20100000E+01  1.20100000E+01  1.20100000E+01  1.20100000E+01
  1.20100000E+01  1.00800000E+00  1.20100000E+01  1.20100000E+01  1.00800000E+00
  1.00800000E+00  1.20100000E+01  1.00800000E+00  1.00800000E+00  1.20100000E+01
  1.00800000E+00  1.00800000E+00  1.20100000E+01  1.00800000E+00  1.00800000E+00
  1.20100000E+01  1.20100000E+01  1.00800000E+00  1.00800000E+00  1.20100000E+01
  1.20100000E+01  1.20100000E+01  1.00800000E+00  1.00800000E+00  1.20100000E+01
  1.00800000E+00  1.20100000E+01  1.00800000E+00  1.20100000E+01  1.00800000E+00
  1.00800000E+00  1.20100000E+01  1.00800000E+00  1.00800000E+00  1.20100000E+01
  1.00800000E+00  1.00800000E+00  1.00800000E+00  1.00800000E+00  1.00800000E+00
  1.20100000E+01  1.20100000E+01  1.00800000E+00  1.00800000E+00  1.00800000E+00
  1.20100000E+01  1.00800000E+00  1.00800000E+00  1.00800000E+00  1.00800000E+00
  3.20600000E+01  1.20100000E+01  1.20100000E+01  1.20100000E+01  1.20100000E+01
  1.20100000E+01  3.20600000E+01  1.20100000E+01  1.20100000E+01  1.00800000E+00
  1.20100000E+01  1.20100000E+01  1.20100000E+01  1.20100000E+01  1.20100000E+01
  1.00800000E+00  1.20100000E+01  1.20100000E+01  1.00800000E+00  1.00800000E+00
  1.20100000E+01  1.00800000E+00  1.00800000E+00  1.20100000E+01  1.00800000E+00
  1.00800000E+00  1.20100000E+01  1.00800000E+00  1.00800000E+00  1.20100000E+01
  1.20100000E+01  1.00800000E+00  1.00800000E+00  1.20100000E+01  1.20100000E+01
  1.20100000E+01  1.00800000E+00  1.00800000E+00  1.20100000E+01  1.00800000E+00
  1.20100000E+01  1.00800000E+00  1.20100000E+01  1.00800000E+00  1.00800000E+00
  1.20100000E+01  1.00800000E+00  1.00800000E+00  1.20100000E+01  1.00800000E+00
  1.00800000E+00  1.00800000E+00  1.00800000E+00  1.00800000E+00  1.20100000E+01
  1.20100000E+01  1.00800000E+00  1.00800000E+00  1.00800000E+00  1.20100000E+01
  1.00800000E+00  1.00800000E+00  1.00800000E+00  1.00800000E+00  3.20600000E+01
  1.20100000E+01  1.20100000E+01  1.20100000E+01  1.20100000E+01  1.20100000E+01
  3.20600000E+01  1.20100000E+01  1.20100000E+01  1.00800000E+00  1.20100000E+01
  1.20100000E+01  1.20100000E+01  1.20100000E+01  1.20100000E+01  1.00800000E+00
  1.20100000E+01  1.20100000E+01  1.00800000E+00  1.00800000E+00  1.20100000E+01
  1.00800000E+00  1.00800000E+00  1.20100000E+01  1.00800000E+00  1.00800000E+00
  1.20100000E+01  1.00800000E+00  1.00800000E+00  1.20100000E+01  1.20100000E+01
  1.00800000E+00  1.00800000E+00  1.20100000E+01  1.20100000E+01  1.20100000E+01
  1.00800000E+00  1.00800000E+00  1.20100000E+01  1.00800000E+00  1.20100000E+01
  1.00800000E+00  1.20100000E+01  1.00800000E+00  1.00800000E+00  1.20100000E+01
  1.00800000E+00  1.00800000E+00  1.20100000E+01  1.00800000E+00  1.00800000E+00
  1.00800000E+00  1.00800000E+00  1.00800000E+00  1.20100000E+01  1.20100000E+01
  1.00800000E+00  1.00800000E+00  1.00800000E+00  1.20100000E+01  1.00800000E+00
  1.00800000E+00  1.00800000E+00  1.00800000E+00  3.20600000E+01  1.20100000E+01
  1.20100000E+01  1.20100000E+01  1.20100000E+01  1.20100000E+01  3.20600000E+01
  1.20100000E+01  1.20100000E+01  1.00800000E+00  1.20100000E+01  1.20100000E+01
  1.20100000E+01  1.20100000E+01  1.20100000E+01  1.00800000E+00  1.20100000E+01
  1.20100000E+01  1.00800000E+00  1.00800000E+00  1.20100000E+01  1.00800000E+00
  1.00800000E+00  1.20100000E+01  1.00800000E+00  1.00800000E+00  1.20100000E+01
  1.00800000E+00  1.00800000E+00  1.20100000E+01  1.20100000E+01  1.00800000E+00
  1.00800000E+00  1.20100000E+01  1.20100000E+01  1.20100000E+01  1.00800000E+00
  1.00800000E+00  1.20100000E+01  1.00800000E+00  1.20100000E+01  1.00800000E+00
  1.20100000E+01  1.00800000E+00  1.00800000E+00  1.20100000E+01  1.00800000E+00
  1.00800000E+00  1.20100000E+01  1.00800000E+00  1.00800000E+00  1.00800000E+00
  1.00800000E+00  1.00800000E+00  1.20100000E+01  1.20100000E+01  1.00800000E+00
  1.00800000E+00  1.00800000E+00  1.20100000E+01  1.00800000E+00  1.00800000E+00
  1.00800000E+00  1.00800000E+00  3.20600000E+01  1.20100000E+01  1.20100000E+01
  1.20100000E+01  1.20100000E+01  1.20100000E+01  3.20600000E+01  1.20100000E+01
  1.20100000E+01  1.00800000E+00  1.20100000E+01  1.20100000E+01  1.20100000E+01
  1.20100000E+01  1.20100000E+01  1.00800000E+00  1.20100000E+01  1.20100000E+01
  1.00800000E+00  1.00800000E+00  1.20100000E+01  1.00800000E+00  1.00800000E+00
  1.20100000E+01  1.00800000E+00  1.00800000E+00  1.20100000E+01  1.00800000E+00
  1.00800000E+00  1.20100000E+01  1.20100000E+01  1.00800000E+00  1.00800000E+00
  1.20100000E+01  1.20100000E+01  1.20100000E+01  1.00800000E+00  1.00800000E+00
  1.20100000E+01  1.00800000E+00  1.20100000E+01  1.00800000E+00  1.20100000E+01
  1.00800000E+00  1.00800000E+00  1.20100000E+01  1.00800000E+00  1.00800000E+00
  1.20100000E+01  1.00800000E+00  1.00800000E+00  1.00800000E+00  1.00800000E+00
  1.00800000E+00  1.20100000E+01  1.20100000E+01  1.00800000E+00  1.00800000E+00
  1.00800000E+00  1.20100000E+01  1.00800000E+00  1.00800000E+00  1.00800000E+00
  1.00800000E+00  3.20600000E+01  1.20100000E+01  1.20100000E+01  1.20100000E+01
  1.20100000E+01  1.20100000E+01  3.20600000E+01  1.20100000E+01  1.20100000E+01
  1.00800000E+00  1.20100000E+01  1.20100000E+01  1.20100000E+01  1.20100000E+01
  1.20100000E+01  1.00800000E+00  1.20100000E+01  1.20100000E+01  1.00800000E+00
  1.00800000E+00  1.20100000E+01  1.00800000E+00  1.00800000E+00  1.20100000E+01
  1.00800000E+00  1.00800000E+00  1.20100000E+01  1.00800000E+00  1.00800000E+00
  1.20100000E+01  1.20100000E+01  1.00800000E+00  1.00800000E+00  1.20100000E+01
  1.20100000E+01  1.20100000E+01  1.00800000E+00  1.00800000E+00  1.20100000E+01
  1.00800000E+00  1.20100000E+01  1.00800000E+00  1.20100000E+01  1.00800000E+00
  1.00800000E+00  1.20100000E+01  1.00800000E+00  1.00800000E+00  1.20100000E+01
  1.00800000E+00  1.00800000E+00  1.00800000E+00  1.00800000E+00  1.00800000E+00
  1.20100000E+01  1.20100000E+01  1.00800000E+00  1.00800000E+00  1.00800000E+00
  1.20100000E+01  1.00800000E+00  1.00800000E+00  1.00800000E+00  1.00800000E+00
  3.20600000E+01  1.20100000E+01  1.20100000E+01  1.20100000E+01  1.20100000E+01
  1.20100000E+01  3.20600000E+01  1.20100000E+01  1.20100000E+01  1.00800000E+00
  1.20100000E+01  1.20100000E+01  1.20100000E+01  1.20100000E+01  1.20100000E+01
  1.00800000E+00  1.20100000E+01  1.20100000E+01  1.00800000E+00  1.00800000E+00
  1.20100000E+01  1.00800000E+00  1.00800000E+00  1.20100000E+01  1.00800000E+00
  1.00800000E+00  1.20100000E+01  1.00800000E+00  1.00800000E+00  1.20100000E+01
  1.20100000E+01  1.00800000E+00  1.00800000E+00  1.20100000E+01  1.20100000E+01
  1.20100000E+01  1.00800000E+00  1.00800000E+00  1.20100000E+01  1.00800000E+00
  1.20100000E+01  1.00800000E+00  1.20100000E+01  1.00800000E+00  1.00800000E+00
  1.20100000E+01  1.00800000E+00  1.00800000E+00  1.20100000E+01  1.00800000E+00
  1.00800000E+00  1.00800000E+00  1.00800000E+00  1.00800000E+00  1.20100000E+01
  1.20100000E+01  1.00800000E+00  1.00800000E+00  1.00800000E+00  1.20100000E+01
  1.00800000E+00  1.00800000E+00  1.00800000E+00  1.00800000E+00  3.20600000E+01
  1.20100000E+01  1.20100000E+01  1.20100000E+01  1.20100000E+01  1.20100000E+01
  3.20600000E+01  1.20100000E+01  1.20100000E+01  1.00800000E+00  1.20100000E+01
  1.20100000E+01  1.20100000E+01  1.20100000E+01  1.20100000E+01  1.00800000E+00
  1.20100000E+01  1.20100000E+01  1.00800000E+00  1.00800000E+00  1.20100000E+01
  1.00800000E+00  1.00800000E+00  1.20100000E+01  1.00800000E+00  1.00800000E+00
  1.20100000E+01  1.00800000E+00  1.00800000E+00  1.20100000E+01  1.20100000E+01
  1.00800000E+00  1.00800000E+00  1.20100000E+01  1.20100000E+01  1.20100000E+01
  1.00800000E+00  1.00800000E+00  1.20100000E+01  1.00800000E+00  1.20100000E+01
  1.00800000E+00  1.20100000E+01  1.00800000E+00  1.00800000E+00  1.20100000E+01
  1.00800000E+00  1.00800000E+00  1.20100000E+01  1.00800000E+00  1.00800000E+00
  1.00800000E+00  1.00800000E+00  1.00800000E+00  1.20100000E+01  1.20100000E+01
  1.00800000E+00  1.00800000E+00  1.00800000E+00  1.20100000E+01  1.00800000E+00
  1.00800000E+00  1.00800000E+00  1.00800000E+00  3.20600000E+01  1.20100000E+01
  1.20100000E+01  1.20100000E+01  1.20100000E+01  1.20100000E+01  3.20600000E+01
  1.20100000E+01  1.20100000E+01  1.00800000E+00  1.20100000E+01  1.20100000E+01
  1.20100000E+01  1.20100000E+01  1.20100000E+01  1.00800000E+00  1.20100000E+01
  1.20100000E+01  1.00800000E+00  1.00800000E+00  1.20100000E+01  1.00800000E+00
  1.00800000E+00  1.20100000E+01  1.00800000E+00  1.00800000E+00  1.20100000E+01
  1.00800000E+00  1.00800000E+00  1.20100000E+01  1.20100000E+01  1.00800000E+00
  1.00800000E+00  1.20100000E+01  1.20100000E+01  1.20100000E+01  1.00800000E+00
  1.00800000E+00  1.20100000E+01  1.00800000E+00  1.20100000E+01  1.00800000E+00
  1.20100000E+01  1.00800000E+00  1.00800000E+00  1.20100000E+01  1.00800000E+00
  1.00800000E+00  1.20100000E+01  1.00800000E+00  1.00800000E+00  1.00800000E+00
  1.00800000E+00  1.00800000E+00  1.20100000E+01  1.20100000E+01  1.00800000E+00
  1.00800000E+00  1.00800000E+00  1.20100000E+01  1.00800000E+00  1.00800000E+00
  1.00800000E+00  1.00800000E+00  3.20600000E+01  1.20100000E+01  1.20100000E+01
  1.20100000E+01  1.20100000E+01  1.20100000E+01  3.20600000E+01  1.20100000E+01
  1.20100000E+01  1.00800000E+00  1.20100000E+01  1.20100000E+01  1.20100000E+01
  1.20100000E+01  1.20100000E+01  1.00800000E+00  1.20100000E+01  1.20100000E+01
  1.00800000E+00  1.00800000E+00  1.20100000E+01  1.00800000E+00  1.00800000E+00
  1.20100000E+01  1.00800000E+00  1.00800000E+00  1.20100000E+01  1.00800000E+00
  1.00800000E+00  1.20100000E+01  1.20100000E+01  1.00800000E+00  1.00800000E+00
  1.20100000E+01  1.20100000E+01  1.20100000E+01  1.00800000E+00  1.00800000E+00
  1.20100000E+01  1.00800000E+00  1.20100000E+01  1.00800000E+00  1.20100000E+01
  1.00800000E+00  1.00800000E+00  1.20100000E+01  1.00800000E+00  1.00800000E+00
  1.20100000E+01  1.00800000E+00  1.00800000E+00  1.00800000E+00  1.00800000E+00
  1.00800000E+00  1.20100000E+01  1.20100000E+01  1.00800000E+00  1.00800000E+00
  1.00800000E+00  1.20100000E+01  1.00800000E+00  1.00800000E+00  1.00800000E+00
  1.00800000E+00  3.20600000E+01  1.20100000E+01  1.20100000E+01  1.20100000E+01
  1.20100000E+01  1.20100000E+01  3.20600000E+01  1.20100000E+01  1.20100000E+01
  1.00800000E+00  1.20100000E+01  1.20100000E+01  1.20100000E+01  1.20100000E+01
  1.20100000E+01  1.00800000E+00  1.20100000E+01  1.20100000E+01  1.00800000E+00
  1.00800000E+00  1.20100000E+01  1.00800000E+00  1.00800000E+00  1.20100000E+01
  1.00800000E+00  1.00800000E+00  1.20100000E+01  1.00800000E+00  1.00800000E+00
  1.20100000E+01  1.20100000E+01  1.00800000E+00  1.00800000E+00  1.20100000E+01
  1.20100000E+01  1.20100000E+01  1.00800000E+00  1.00800000E+00  1.20100000E+01
  1.00800000E+00  1.20100000E+01  1.00800000E+00  1.20100000E+01  1.00800000E+00
  1.00800000E+00  1.20100000E+01  1.00800000E+00  1.00800000E+00  1.20100000E+01
  1.00800000E+00  1.00800000E+00  1.00800000E+00  1.00800000E+00  1.00800000E+00
  1.20100000E+01  1.20100000E+01  1.00800000E+00  1.00800000E+00  1.00800000E+00
  1.20100000E+01  1.00800000E+00  1.00800000E+00  1.00800000E+00  1.00800000E+00
  3.20600000E+01  1.20100000E+01  1.20100000E+01  1.20100000E+01  1.20100000E+01
  1.20100000E+01  3.20600000E+01  1.20100000E+01  1.20100000E+01  1.00800000E+00
  1.20100000E+01  1.20100000E+01  1.20100000E+01  1.20100000E+01  1.20100000E+01
  1.00800000E+00  1.20100000E+01  1.20100000E+01  1.00800000E+00  1.00800000E+00
  1.20100000E+01  1.00800000E+00  1.00800000E+00  1.20100000E+01  1.00800000E+00
  1.00800000E+00  1.20100000E+01  1.00800000E+00  1.00800000E+00  1.20100000E+01
  1.20100000E+01  1.00800000E+00  1.00800000E+00  1.20100000E+01  1.20100000E+01
  1.20100000E+01  1.00800000E+00  1.00800000E+00  1.20100000E+01  1.00800000E+00
  1.20100000E+01  1.00800000E+00  1.20100000E+01  1.00800000E+00  1.00800000E+00
  1.20100000E+01  1.00800000E+00  1.00800000E+00  1.20100000E+01  1.00800000E+00
  1.00800000E+00  1.00800000E+00  1.00800000E+00  1.00800000E+00  1.20100000E+01
  1.20100000E+01  1.00800000E+00  1.00800000E+00  1.00800000E+00  1.20100000E+01
  1.00800000E+00  1.00800000E+00  1.00800000E+00  1.00800000E+00  3.20600000E+01
  1.20100000E+01  1.20100000E+01  1.20100000E+01  1.20100000E+01  1.20100000E+01
  3.20600000E+01  1.20100000E+01  1.20100000E+01  1.00800000E+00  1.20100000E+01
  1.20100000E+01  1.20100000E+01  1.20100000E+01  1.20100000E+01  1.00800000E+00
  1.20100000E+01  1.20100000E+01  1.00800000E+00  1.00800000E+00  1.20100000E+01
  1.00800000E+00  1.00800000E+00  1.20100000E+01  1.00800000E+00  1.00800000E+00
  1.20100000E+01  1.00800000E+00  1.00800000E+00  1.20100000E+01  1.20100000E+01
  1.00800000E+00  1.00800000E+00  1.20100000E+01  1.20100000E+01  1.20100000E+01
  1.00800000E+00  1.00800000E+00  1.20100000E+01  1.00800000E+00  1.20100000E+01
  1.00800000E+00  1.20100000E+01  1.00800000E+00  1.00800000E+00  1.20100000E+01
  1.00800000E+00  1.00800000E+00  1.20100000E+01  1.00800000E+00  1.00800000E+00
  1.00800000E+00  1.00800000E+00  1.00800000E+00  1.20100000E+01  1.20100000E+01
  1.00800000E+00  1.00800000E+00  1.00800000E+00  1.20100000E+01  1.00800000E+00
  1.00800000E+00  1.00800000E+00  1.00800000E+00  3.20600000E+01  1.20100000E+01
  1.20100000E+01  1.20100000E+01  1.20100000E+01  1.20100000E+01  3.20600000E+01
  1.20100000E+01  1.20100000E+01  1.00800000E+00  1.20100000E+01  1.20100000E+01
  1.20100000E+01  1.20100000E+01  1.20100000E+01  1.00800000E+00  1.20100000E+01
  1.20100000E+01  1.00800000E+00  1.00800000E+00  1.20100000E+01  1.00800000E+00
  1.00800000E+00  1.20100000E+01  1.00800000E+00  1.00800000E+00  1.20100000E+01
  1.00800000E+00  1.00800000E+00  1.20100000E+01  1.20100000E+01  1.00800000E+00
  1.00800000E+00  1.20100000E+01  1.20100000E+01  1.20100000E+01  1.00800000E+00
  1.00800000E+00  1.20100000E+01  1.00800000E+00  1.20100000E+01  1.00800000E+00
  1.20100000E+01  1.00800000E+00  1.00800000E+00  1.20100000E+01  1.00800000E+00
  1.00800000E+00  1.20100000E+01  1.00800000E+00  1.00800000E+00  1.00800000E+00
  1.00800000E+00  1.00800000E+00  1.20100000E+01  1.20100000E+01  1.00800000E+00
  1.00800000E+00  1.00800000E+00  1.20100000E+01  1.00800000E+00  1.00800000E+00
  1.00800000E+00  1.00800000E+00  3.20600000E+01  1.20100000E+01  1.20100000E+01
  1.20100000E+01  1.20100000E+01  1.20100000E+01  3.20600000E+01  1.20100000E+01
  1.20100000E+01  1.00800000E+00  1.20100000E+01  1.20100000E+01  1.20100000E+01
  1.20100000E+01  1.20100000E+01  1.00800000E+00  1.20100000E+01  1.20100000E+01
  1.00800000E+00  1.00800000E+00  1.20100000E+01  1.00800000E+00  1.00800000E+00
  1.20100000E+01  1.00800000E+00  1.00800000E+00  1.20100000E+01  1.00800000E+00
  1.00800000E+00  1.20100000E+01  1.20100000E+01  1.00800000E+00  1.00800000E+00
  1.20100000E+01  1.20100000E+01  1.20100000E+01  1.00800000E+00  1.00800000E+00
  1.20100000E+01  1.00800000E+00  1.20100000E+01  1.00800000E+00  1.20100000E+01
  1.00800000E+00  1.00800000E+00  1.20100000E+01  1.00800000E+00  1.00800000E+00
  1.20100000E+01  1.00800000E+00  1.00800000E+00  1.00800000E+00  1.00800000E+00
  1.00800000E+00  1.20100000E+01  1.20100000E+01  1.00800000E+00  1.00800000E+00
  1.00800000E+00  1.20100000E+01  1.00800000E+00  1.00800000E+00  1.00800000E+00
  1.00800000E+00  3.20600000E+01  1.20100000E+01  1.20100000E+01  1.20100000E+01
  1.20100000E+01  1.20100000E+01  3.20600000E+01  1.20100000E+01  1.20100000E+01
  1.00800000E+00  1.20100000E+01  1.20100000E+01  1.20100000E+01  1.20100000E+01
  1.20100000E+01  1.00800000E+00  1.20100000E+01  1.20100000E+01  1.00800000E+00
  1.00800000E+00  1.20100000E+01  1.00800000E+00  1.00800000E+00  1.20100000E+01
  1.00800000E+00  1.00800000E+00  1.20100000E+01  1.00800000E+00  1.00800000E+00
  1.20100000E+01  1.20100000E+01  1.00800000E+00  1.00800000E+00  1.20100000E+01
  1.20100000E+01  1.20100000E+01  1.00800000E+00  1.00800000E+00  1.20100000E+01
  1.00800000E+00  1.20100000E+01  1.00800000E+00  1.20100000E+01  1.00800000E+00
  1.00800000E+00  1.20100000E+01  1.00800000E+00  1.00800000E+00  1.20100000E+01
  1.00800000E+00  1.00800000E+00  1.00800000E+00  1.00800000E+00  1.00800000E+00
  1.20100000E+01  1.20100000E+01  1.00800000E+00  1.00800000E+00  1.00800000E+00
  1.20100000E+01  1.00800000E+00  1.00800000E+00  1.00800000E+00  1.00800000E+00
  3.20600000E+01  1.20100000E+01  1.20100000E+01  1.20100000E+01  1.20100000E+01
  1.20100000E+01  3.20600000E+01  1.20100000E+01  1.20100000E+01  1.00800000E+00
  1.20100000E+01  1.20100000E+01  1.20100000E+01  1.20100000E+01  1.20100000E+01
  1.00800000E+00  1.20100000E+01  1.20100000E+01  1.00800000E+00  1.00800000E+00
  1.20100000E+01  1.00800000E+00  1.00800000E+00  1.20100000E+01  1.00800000E+00
  1.00800000E+00  1.20100000E+01  1.00800000E+00  1.00800000E+00  1.20100000E+01
  1.20100000E+01  1.00800000E+00  1.00800000E+00  1.20100000E+01  1.20100000E+01
  1.20100000E+01  1.00800000E+00  1.00800000E+00  1.20100000E+01  1.00800000E+00
  1.20100000E+01  1.00800000E+00  1.20100000E+01  1.00800000E+00  1.00800000E+00
  1.20100000E+01  1.00800000E+00  1.00800000E+00  1.20100000E+01  1.00800000E+00
  1.00800000E+00  1.00800000E+00  1.00800000E+00  1.00800000E+00  1.20100000E+01
  1.20100000E+01  1.00800000E+00  1.00800000E+00  1.00800000E+00  1.20100000E+01
  1.00800000E+00  1.00800000E+00  1.00800000E+00  1.00800000E+00  3.20600000E+01
  1.20100000E+01  1.20100000E+01  1.20100000E+01  1.20100000E+01  1.20100000E+01
  3.20600000E+01  1.20100000E+01  1.20100000E+01  1.00800000E+00  1.20100000E+01
  1.20100000E+01  1.20100000E+01  1.20100000E+01  1.20100000E+01  1.00800000E+00
  1.20100000E+01  1.20100000E+01  1.00800000E+00  1.00800000E+00  1.20100000E+01
  1.00800000E+00  1.00800000E+00  1.20100000E+01  1.00800000E+00  1.00800000E+00
  1.20100000E+01  1.00800000E+00  1.00800000E+00  1.20100000E+01  1.20100000E+01
  1.00800000E+00  1.00800000E+00  1.20100000E+01  1.20100000E+01  1.20100000E+01
  1.00800000E+00  1.00800000E+00  1.20100000E+01  1.00800000E+00  1.20100000E+01
  1.00800000E+00  1.20100000E+01  1.00800000E+00  1.00800000E+00  1.20100000E+01
  1.00800000E+00  1.00800000E+00  1.20100000E+01  1.00800000E+00  1.00800000E+00
  1.00800000E+00  1.00800000E+00  1.00800000E+00  1.20100000E+01  1.20100000E+01
  1.00800000E+00  1.00800000E+00  1.00800000E+00  1.20100000E+01  1.00800000E+00
  1.00800000E+00  1.00800000E+00  1.00800000E+00  3.20600000E+01  1.20100000E+01
  1.20100000E+01  1.20100000E+01  1.20100000E+01  1.20100000E+01  3.20600000E+01
  1.20100000E+01  1.20100000E+01  1.00800000E+00  1.20100000E+01  1.20100000E+01
  1.20100000E+01  1.20100000E+01  1.20100000E+01  1.00800000E+00  1.20100000E+01
  1.20100000E+01  1.00800000E+00  1.00800000E+00  1.20100000E+01  1.00800000E+00
  1.00800000E+00  1.20100000E+01  1.00800000E+00  1.00800000E+00  1.20100000E+01
  1.00800000E+00  1.00800000E+00  1.20100000E+01  1.20100000E+01  1.00800000E+00
  1.00800000E+00  1.20100000E+01  1.20100000E+01  1.20100000E+01  1.00800000E+00
  1.00800000E+00  1.20100000E+01  1.00800000E+00  1.20100000E+01  1.00800000E+00
  1.20100000E+01  1.00800000E+00  1.00800000E+00  1.20100000E+01  1.00800000E+00
  1.00800000E+00  1.20100000E+01  1.00800000E+00  1.00800000E+00  1.00800000E+00
  1.00800000E+00  1.00800000E+00  1.20100000E+01  1.20100000E+01  1.00800000E+00
  1.00800000E+00  1.00800000E+00  1.20100000E+01  1.00800000E+00  1.00800000E+00
  1.00800000E+00  1.00800000E+00  3.20600000E+01  1.20100000E+01  1.20100000E+01
  1.20100000E+01  1.20100000E+01  1.20100000E+01  3.20600000E+01  1.20100000E+01
  1.20100000E+01  1.00800000E+00  1.20100000E+01  1.20100000E+01  1.20100000E+01
  1.20100000E+01  1.20100000E+01  1.00800000E+00  1.20100000E+01  1.20100000E+01
  1.00800000E+00  1.00800000E+00  1.20100000E+01  1.00800000E+00  1.00800000E+00
  1.20100000E+01  1.00800000E+00  1.00800000E+00  1.20100000E+01  1.00800000E+00
  1.00800000E+00  1.20100000E+01  1.20100000E+01  1.00800000E+00  1.00800000E+00
  1.20100000E+01  1.20100000E+01  1.20100000E+01  1.00800000E+00  1.00800000E+00
  1.20100000E+01  1.00800000E+00  1.20100000E+01  1.00800000E+00  1.20100000E+01
  1.00800000E+00  1.00800000E+00  1.20100000E+01  1.00800000E+00  1.00800000E+00
  1.20100000E+01  1.00800000E+00  1.00800000E+00  1.00800000E+00  1.00800000E+00
  1.00800000E+00  1.20100000E+01  1.20100000E+01  1.00800000E+00  1.00800000E+00
  1.00800000E+00  1.20100000E+01  1.00800000E+00  1.00800000E+00  1.00800000E+00
  1.00800000E+00  3.20600000E+01  1.20100000E+01  1.20100000E+01  1.20100000E+01
  1.20100000E+01  1.20100000E+01  3.20600000E+01  1.20100000E+01  1.20100000E+01
  1.00800000E+00  1.20100000E+01  1.20100000E+01  1.20100000E+01  1.20100000E+01
  1.20100000E+01  1.00800000E+00  1.20100000E+01  1.20100000E+01  1.00800000E+00
  1.00800000E+00  1.20100000E+01  1.00800000E+00  1.00800000E+00  1.20100000E+01
  1.00800000E+00  1.00800000E+00  1.20100000E+01  1.00800000E+00  1.00800000E+00
  1.20100000E+01  1.20100000E+01  1.00800000E+00  1.00800000E+00  1.20100000E+01
  1.20100000E+01  1.20100000E+01  1.00800000E+00  1.00800000E+00  1.20100000E+01
  1.00800000E+00  1.20100000E+01  1.00800000E+00  1.20100000E+01  1.00800000E+00
  1.00800000E+00  1.20100000E+01  1.00800000E+00  1.00800000E+00  1.20100000E+01
  1.00800000E+00  1.00800000E+00  1.00800000E+00  1.00800000E+00  1.00800000E+00
  1.20100000E+01  1.20100000E+01  1.00800000E+00  1.00800000E+00  1.00800000E+00
  1.20100000E+01  1.00800000E+00  1.00800000E+00  1.00800000E+00  1.00800000E+00
  3.20600000E+01  1.20100000E+01  1.20100000E+01  1.20100000E+01  1.20100000E+01
  1.20100000E+01  3.20600000E+01  1.20100000E+01  1.20100000E+01  1.00800000E+00
  1.20100000E+01  1.20100000E+01  1.20100000E+01  1.20100000E+01  1.20100000E+01
  1.00800000E+00  1.20100000E+01  1.20100000E+01  1.00800000E+00  1.00800000E+00
  1.20100000E+01  1.00800000E+00  1.00800000E+00  1.20100000E+01  1.00800000E+00
  1.00800000E+00  1.20100000E+01  1.00800000E+00  1.00800000E+00  1.20100000E+01
  1.20100000E+01  1.00800000E+00  1.00800000E+00  1.20100000E+01  1.20100000E+01
  1.20100000E+01  1.00800000E+00  1.00800000E+00  1.20100000E+01  1.00800000E+00
  1.20100000E+01  1.00800000E+00  1.20100000E+01  1.00800000E+00  1.00800000E+00
  1.20100000E+01  1.00800000E+00  1.00800000E+00  1.20100000E+01  1.00800000E+00
  1.00800000E+00  1.00800000E+00  1.00800000E+00  1.00800000E+00  1.20100000E+01
  1.20100000E+01  1.00800000E+00  1.00800000E+00  1.00800000E+00  1.20100000E+01
  1.00800000E+00  1.00800000E+00  1.00800000E+00  1.00800000E+00  3.20600000E+01
  1.20100000E+01  1.20100000E+01  1.20100000E+01  1.20100000E+01  1.20100000E+01
  3.20600000E+01  1.20100000E+01  1.20100000E+01  1.00800000E+00  1.20100000E+01
  1.20100000E+01  1.20100000E+01  1.20100000E+01  1.20100000E+01  1.00800000E+00
  1.20100000E+01  1.20100000E+01  1.00800000E+00  1.00800000E+00  1.20100000E+01
  1.00800000E+00  1.00800000E+00  1.20100000E+01  1.00800000E+00  1.00800000E+00
  1.20100000E+01  1.00800000E+00  1.00800000E+00  1.20100000E+01  1.20100000E+01
  1.00800000E+00  1.00800000E+00  1.20100000E+01  1.20100000E+01  1.20100000E+01
  1.00800000E+00  1.00800000E+00  1.20100000E+01  1.00800000E+00  1.20100000E+01
  1.00800000E+00  1.20100000E+01  1.00800000E+00  1.00800000E+00  1.20100000E+01
  1.00800000E+00  1.00800000E+00  1.20100000E+01  1.00800000E+00  1.00800000E+00
  1.00800000E+00  1.00800000E+00  1.00800000E+00  1.20100000E+01  1.20100000E+01
  1.00800000E+00  1.00800000E+00  1.00800000E+00  1.20100000E+01  1.00800000E+00
  1.00800000E+00  1.00800000E+00  1.00800000E+00  3.20600000E+01  1.20100000E+01
  1.20100000E+01  1.20100000E+01  1.20100000E+01  1.20100000E+01  3.20600000E+01
  1.20100000E+01  1.20100000E+01  1.00800000E+00  1.20100000E+01  1.20100000E+01
  1.20100000E+01  1.20100000E+01  1.20100000E+01  1.00800000E+00  1.20100000E+01
  1.20100000E+01  1.00800000E+00  1.00800000E+00  1.20100000E+01  1.00800000E+00
  1.00800000E+00  1.20100000E+01  1.00800000E+00  1.00800000E+00  1.20100000E+01
  1.00800000E+00  1.00800000E+00  1.20100000E+01  1.20100000E+01  1.00800000E+00
  1.00800000E+00  1.20100000E+01  1.20100000E+01  1.20100000E+01  1.00800000E+00
  1.00800000E+00  1.20100000E+01  1.00800000E+00  1.20100000E+01  1.00800000E+00
  1.20100000E+01  1.00800000E+00  1.00800000E+00  1.20100000E+01  1.00800000E+00
  1.00800000E+00  1.20100000E+01  1.00800000E+00  1.00800000E+00  1.00800000E+00
  1.00800000E+00  1.00800000E+00  1.20100000E+01  1.20100000E+01  1.00800000E+00
  1.00800000E+00  1.00800000E+00  1.20100000E+01  1.00800000E+00  1.00800000E+00
  1.00800000E+00  1.00800000E+00  3.20600000E+01  1.20100000E+01  1.20100000E+01
  1.20100000E+01  1.20100000E+01  1.20100000E+01  3.20600000E+01  1.20100000E+01
  1.20100000E+01  1.00800000E+00  1.20100000E+01  1.20100000E+01  1.20100000E+01
  1.20100000E+01  1.20100000E+01  1.00800000E+00  1.20100000E+01  1.20100000E+01
  1.00800000E+00  1.00800000E+00  1.20100000E+01  1.00800000E+00  1.00800000E+00
  1.20100000E+01  1.00800000E+00  1.00800000E+00  1.20100000E+01  1.00800000E+00
  1.00800000E+00  1.20100000E+01  1.20100000E+01  1.00800000E+00  1.00800000E+00
  1.20100000E+01  1.20100000E+01  1.20100000E+01  1.00800000E+00  1.00800000E+00
  1.20100000E+01  1.00800000E+00  1.20100000E+01  1.00800000E+00  1.20100000E+01
  1.00800000E+00  1.00800000E+00  1.20100000E+01  1.00800000E+00  1.00800000E+00
  1.20100000E+01  1.00800000E+00  1.00800000E+00  1.00800000E+00  1.00800000E+00
  1.00800000E+00  1.20100000E+01  1.20100000E+01  1.00800000E+00  1.00800000E+00
  1.00800000E+00  1.20100000E+01  1.00800000E+00  1.00800000E+00  1.00800000E+00
  1.00800000E+00  3.20600000E+01  1.20100000E+01  1.20100000E+01  1.20100000E+01
  1.20100000E+01  1.20100000E+01  3.20600000E+01  1.20100000E+01  1.20100000E+01
  1.00800000E+00  1.20100000E+01  1.20100000E+01  1.20100000E+01  1.20100000E+01
  1.20100000E+01  1.00800000E+00  1.20100000E+01  1.20100000E+01  1.00800000E+00
  1.00800000E+00  1.20100000E+01  1.00800000E+00  1.00800000E+00  1.20100000E+01
  1.00800000E+00  1.00800000E+00  1.20100000E+01  1.00800000E+00  1.00800000E+00
  1.20100000E+01  1.20100000E+01  1.00800000E+00  1.00800000E+00  1.20100000E+01
  1.20100000E+01  1.20100000E+01  1.00800000E+00  1.00800000E+00  1.20100000E+01
  1.00800000E+00  1.20100000E+01  1.00800000E+00  1.20100000E+01  1.00800000E+00
  1.00800000E+00  1.20100000E+01  1.00800000E+00  1.00800000E+00  1.20100000E+01
  1.00800000E+00  1.00800000E+00  1.00800000E+00  1.00800000E+00  1.00800000E+00
  1.20100000E+01  1.20100000E+01  1.00800000E+00  1.00800000E+00  1.00800000E+00
  1.20100000E+01  1.00800000E+00  1.00800000E+00  1.00800000E+00  1.00800000E+00
  3.20600000E+01  1.20100000E+01  1.20100000E+01  1.20100000E+01  1.20100000E+01
  1.20100000E+01  3.20600000E+01  1.20100000E+01  1.20100000E+01  1.00800000E+00
  1.20100000E+01  1.20100000E+01  1.20100000E+01  1.20100000E+01  1.20100000E+01
  1.00800000E+00  1.20100000E+01  1.20100000E+01  1.00800000E+00  1.00800000E+00
  1.20100000E+01  1.00800000E+00  1.00800000E+00  1.20100000E+01  1.00800000E+00
  1.00800000E+00  1.20100000E+01  1.00800000E+00  1.00800000E+00  1.20100000E+01
  1.20100000E+01  1.00800000E+00  1.00800000E+00  1.20100000E+01  1.20100000E+01
  1.20100000E+01  1.00800000E+00  1.00800000E+00  1.20100000E+01  1.00800000E+00
  1.20100000E+01  1.00800000E+00  1.20100000E+01  1.00800000E+00  1.00800000E+00
  1.20100000E+01  1.00800000E+00  1.00800000E+00  1.20100000E+01  1.00800000E+00
  1.00800000E+00  1.00800000E+00  1.00800000E+00  1.00800000E+00  1.20100000E+01
  1.20100000E+01  1.00800000E+00  1.00800000E+00  1.00800000E+00  1.20100000E+01
  1.00800000E+00  1.00800000E+00  1.00800000E+00  1.00800000E+00  3.20600000E+01
  1.20100000E+01  1.20100000E+01  1.20100000E+01  1.20100000E+01  1.20100000E+01
  3.20600000E+01  1.20100000E+01  1.20100000E+01  1.00800000E+00  1.20100000E+01
  1.20100000E+01  1.20100000E+01  1.20100000E+01  1.20100000E+01  1.00800000E+00
  1.20100000E+01  1.20100000E+01  1.00800000E+00  1.00800000E+00  1.20100000E+01
  1.00800000E+00  1.00800000E+00  1.20100000E+01  1.00800000E+00  1.00800000E+00
  1.20100000E+01  1.00800000E+00  1.00800000E+00  1.20100000E+01  1.20100000E+01
  1.00800000E+00  1.00800000E+00  1.20100000E+01  1.20100000E+01  1.20100000E+01
  1.00800000E+00  1.00800000E+00  1.20100000E+01  1.00800000E+00  1.20100000E+01
  1.00800000E+00  1.20100000E+01  1.00800000E+00  1.00800000E+00  1.20100000E+01
  1.00800000E+00  1.00800000E+00  1.20100000E+01  1.00800000E+00  1.00800000E+00
  1.00800000E+00  1.00800000E+00  1.00800000E+00  1.20100000E+01  1.20100000E+01
  1.00800000E+00  1.00800000E+00  1.00800000E+00  1.20100000E+01  1.00800000E+00
  1.00800000E+00  1.00800000E+00  1.00800000E+00  3.20600000E+01  1.20100000E+01
  1.20100000E+01  1.20100000E+01  1.20100000E+01  1.20100000E+01  3.20600000E+01
  1.20100000E+01  1.20100000E+01  1.00800000E+00  1.20100000E+01  1.20100000E+01
  1.20100000E+01  1.20100000E+01  1.20100000E+01  1.00800000E+00  1.20100000E+01
  1.20100000E+01  1.00800000E+00  1.00800000E+00  1.20100000E+01  1.00800000E+00
  1.00800000E+00  1.20100000E+01  1.00800000E+00  1.00800000E+00  1.20100000E+01
  1.00800000E+00  1.00800000E+00  1.20100000E+01  1.20100000E+01  1.00800000E+00
  1.00800000E+00  1.20100000E+01  1.20100000E+01  1.20100000E+01  1.00800000E+00
  1.00800000E+00  1.20100000E+01  1.00800000E+00  1.20100000E+01  1.00800000E+00
  1.20100000E+01  1.00800000E+00  1.00800000E+00  1.20100000E+01  1.00800000E+00
  1.00800000E+00  1.20100000E+01  1.00800000E+00  1.00800000E+00  1.00800000E+00
  1.00800000E+00  1.00800000E+00  1.20100000E+01  1.20100000E+01  1.00800000E+00
  1.00800000E+00  1.00800000E+00  1.20100000E+01  1.00800000E+00  1.00800000E+00
  1.00800000E+00  1.00800000E+00  3.20600000E+01  1.20100000E+01  1.20100000E+01
  1.20100000E+01  1.20100000E+01  1.20100000E+01  3.20600000E+01  1.20100000E+01
  1.20100000E+01  1.00800000E+00  1.20100000E+01  1.20100000E+01  1.20100000E+01
  1.20100000E+01  1.20100000E+01  1.00800000E+00  1.20100000E+01  1.20100000E+01
  1.00800000E+00  1.00800000E+00  1.20100000E+01  1.00800000E+00  1.00800000E+00
  1.20100000E+01  1.00800000E+00  1.00800000E+00  1.20100000E+01  1.00800000E+00
  1.00800000E+00  1.20100000E+01  1.20100000E+01  1.00800000E+00  1.00800000E+00
  1.20100000E+01  1.20100000E+01  1.20100000E+01  1.00800000E+00  1.00800000E+00
  1.20100000E+01  1.00800000E+00  1.20100000E+01  1.00800000E+00  1.20100000E+01
  1.00800000E+00  1.00800000E+00  1.20100000E+01  1.00800000E+00  1.00800000E+00
  1.20100000E+01  1.00800000E+00  1.00800000E+00  1.00800000E+00  1.00800000E+00
  1.00800000E+00  1.20100000E+01  1.20100000E+01  1.00800000E+00  1.00800000E+00
  1.00800000E+00  1.20100000E+01  1.00800000E+00  1.00800000E+00  1.00800000E+00
  1.00800000E+00  3.20600000E+01  1.20100000E+01  1.20100000E+01  1.20100000E+01
  1.20100000E+01  1.20100000E+01  3.20600000E+01  1.20100000E+01  1.20100000E+01
  1.00800000E+00  1.20100000E+01  1.20100000E+01  1.20100000E+01  1.20100000E+01
  1.20100000E+01  1.00800000E+00  1.20100000E+01  1.20100000E+01  1.00800000E+00
  1.00800000E+00  1.20100000E+01  1.00800000E+00  1.00800000E+00  1.20100000E+01
  1.00800000E+00  1.00800000E+00  1.20100000E+01  1.00800000E+00  1.00800000E+00
  1.20100000E+01  1.20100000E+01  1.00800000E+00  1.00800000E+00  1.20100000E+01
  1.20100000E+01  1.20100000E+01  1.00800000E+00  1.00800000E+00  1.20100000E+01
  1.00800000E+00  1.20100000E+01  1.00800000E+00  1.20100000E+01  1.00800000E+00
  1.00800000E+00  1.20100000E+01  1.00800000E+00  1.00800000E+00  1.20100000E+01
  1.00800000E+00  1.00800000E+00  1.00800000E+00  1.00800000E+00  1.00800000E+00
  1.20100000E+01  1.20100000E+01  1.00800000E+00  1.00800000E+00  1.00800000E+00
  1.20100000E+01  1.00800000E+00  1.00800000E+00  1.00800000E+00  1.00800000E+00
  3.20600000E+01  1.20100000E+01  1.20100000E+01  1.20100000E+01  1.20100000E+01
  1.20100000E+01  3.20600000E+01  1.20100000E+01  1.20100000E+01  1.00800000E+00
  1.20100000E+01  1.20100000E+01  1.20100000E+01  1.20100000E+01  1.20100000E+01
  1.00800000E+00  1.20100000E+01  1.20100000E+01  1.00800000E+00  1.00800000E+00
  1.20100000E+01  1.00800000E+00  1.00800000E+00  1.20100000E+01  1.00800000E+00
  1.00800000E+00  1.20100000E+01  1.00800000E+00  1.00800000E+00  1.20100000E+01
  1.20100000E+01  1.00800000E+00  1.00800000E+00  1.20100000E+01  1.20100000E+01
  1.20100000E+01  1.00800000E+00  1.00800000E+00  1.20100000E+01  1.00800000E+00
  1.20100000E+01  1.00800000E+00  1.20100000E+01  1.00800000E+00  1.00800000E+00
  1.20100000E+01  1.00800000E+00  1.00800000E+00  1.20100000E+01  1.00800000E+00
  1.00800000E+00  1.00800000E+00  1.00800000E+00  1.00800000E+00  1.20100000E+01
  1.20100000E+01  1.00800000E+00  1.00800000E+00  1.00800000E+00  1.20100000E+01
  1.00800000E+00  1.00800000E+00  1.00800000E+00  1.00800000E+00  3.20600000E+01
  1.20100000E+01  1.20100000E+01  1.20100000E+01  1.20100000E+01  1.20100000E+01
  3.20600000E+01  1.20100000E+01  1.20100000E+01  1.00800000E+00  1.20100000E+01
  1.20100000E+01  1.20100000E+01  1.20100000E+01  1.20100000E+01  1.00800000E+00
  1.20100000E+01  1.20100000E+01  1.00800000E+00  1.00800000E+00  1.20100000E+01
  1.00800000E+00  1.00800000E+00  1.20100000E+01  1.00800000E+00  1.00800000E+00
  1.20100000E+01  1.00800000E+00  1.00800000E+00  1.20100000E+01  1.20100000E+01
  1.00800000E+00  1.00800000E+00  1.20100000E+01  1.20100000E+01  1.20100000E+01
  1.00800000E+00  1.00800000E+00  1.20100000E+01  1.00800000E+00  1.20100000E+01
  1.00800000E+00  1.20100000E+01  1.00800000E+00  1.00800000E+00  1.20100000E+01
  1.00800000E+00  1.00800000E+00  1.20100000E+01  1.00800000E+00  1.00800000E+00
  1.00800000E+00  1.00800000E+00  1.00800000E+00  1.20100000E+01  1.20100000E+01
  1.00800000E+00  1.00800000E+00  1.00800000E+00  1.20100000E+01  1.00800000E+00
  1.00800000E+00  1.00800000E+00  1.00800000E+00  3.20600000E+01  1.20100000E+01
  1.20100000E+01  1.20100000E+01  1.20100000E+01  1.20100000E+01  3.20600000E+01
  1.20100000E+01  1.20100000E+01  1.00800000E+00  1.20100000E+01  1.20100000E+01
  1.20100000E+01  1.20100000E+01  1.20100000E+01  1.00800000E+00  1.20100000E+01
  1.20100000E+01  1.00800000E+00  1.00800000E+00  1.20100000E+01  1.00800000E+00
  1.00800000E+00  1.20100000E+01  1.00800000E+00  1.00800000E+00  1.20100000E+01
  1.00800000E+00  1.00800000E+00  1.20100000E+01  1.20100000E+01  1.00800000E+00
  1.00800000E+00  1.20100000E+01  1.20100000E+01  1.20100000E+01  1.00800000E+00
  1.00800000E+00  1.20100000E+01  1.00800000E+00  1.20100000E+01  1.00800000E+00
  1.20100000E+01  1.00800000E+00  1.00800000E+00  1.20100000E+01  1.00800000E+00
  1.00800000E+00  1.20100000E+01  1.00800000E+00  1.00800000E+00  1.00800000E+00
  1.00800000E+00  1.00800000E+00  1.20100000E+01  1.20100000E+01  1.00800000E+00
  1.00800000E+00  1.00800000E+00  1.20100000E+01  1.00800000E+00  1.00800000E+00
  1.00800000E+00  1.00800000E+00  3.20600000E+01  1.20100000E+01  1.20100000E+01
  1.20100000E+01  1.20100000E+01  1.20100000E+01  3.20600000E+01  1.20100000E+01
  1.20100000E+01  1.00800000E+00  1.20100000E+01  1.20100000E+01  1.20100000E+01
  1.20100000E+01  1.20100000E+01  1.00800000E+00  1.20100000E+01  1.20100000E+01
  1.00800000E+00  1.00800000E+00  1.20100000E+01  1.00800000E+00  1.00800000E+00
  1.20100000E+01  1.00800000E+00  1.00800000E+00  1.20100000E+01  1.00800000E+00
  1.00800000E+00  1.20100000E+01  1.20100000E+01  1.00800000E+00  1.00800000E+00
  1.20100000E+01  1.20100000E+01  1.20100000E+01  1.00800000E+00  1.00800000E+00
  1.20100000E+01  1.00800000E+00  1.20100000E+01  1.00800000E+00  1.20100000E+01
  1.00800000E+00  1.00800000E+00  1.20100000E+01  1.00800000E+00  1.00800000E+00
  1.20100000E+01  1.00800000E+00  1.00800000E+00  1.00800000E+00  1.00800000E+00
  1.00800000E+00  1.20100000E+01  1.20100000E+01  1.00800000E+00  1.00800000E+00
  1.00800000E+00  1.20100000E+01  1.00800000E+00  1.00800000E+00  1.00800000E+00
  1.00800000E+00  3.20600000E+01  1.20100000E+01  1.20100000E+01  1.20100000E+01
  1.20100000E+01  1.20100000E+01  3.20600000E+01  1.20100000E+01  1.20100000E+01
  1.00800000E+00  1.20100000E+01  1.20100000E+01  1.20100000E+01  1.20100000E+01
  1.20100000E+01  1.00800000E+00  1.20100000E+01  1.20100000E+01  1.00800000E+00
  1.00800000E+00  1.20100000E+01  1.00800000E+00  1.00800000E+00  1.20100000E+01
  1.00800000E+00  1.00800000E+00  1.20100000E+01  1.00800000E+00  1.00800000E+00
  1.20100000E+01  1.20100000E+01  1.00800000E+00  1.00800000E+00  1.20100000E+01
  1.20100000E+01  1.20100000E+01  1.00800000E+00  1.00800000E+00  1.20100000E+01
  1.00800000E+00  1.20100000E+01  1.00800000E+00  1.20100000E+01  1.00800000E+00
  1.00800000E+00  1.20100000E+01  1.00800000E+00  1.00800000E+00  1.20100000E+01
  1.00800000E+00  1.00800000E+00  1.00800000E+00  1.00800000E+00  1.00800000E+00
  1.20100000E+01  1.20100000E+01  1.00800000E+00  1.00800000E+00  1.00800000E+00
  1.20100000E+01  1.00800000E+00  1.00800000E+00  1.00800000E+00  1.00800000E+00
  3.20600000E+01  1.20100000E+01  1.20100000E+01  1.20100000E+01  1.20100000E+01
  1.20100000E+01  3.20600000E+01  1.20100000E+01  1.20100000E+01  1.00800000E+00
  1.20100000E+01  1.20100000E+01  1.20100000E+01  1.20100000E+01  1.20100000E+01
  1.00800000E+00  1.20100000E+01  1.20100000E+01  1.00800000E+00  1.00800000E+00
  1.20100000E+01  1.00800000E+00  1.00800000E+00  1.20100000E+01  1.00800000E+00
  1.00800000E+00  1.20100000E+01  1.00800000E+00  1.00800000E+00  1.20100000E+01
  1.20100000E+01  1.00800000E+00  1.00800000E+00  1.20100000E+01  1.20100000E+01
  1.20100000E+01  1.00800000E+00  1.00800000E+00  1.20100000E+01  1.00800000E+00
  1.20100000E+01  1.00800000E+00  1.20100000E+01  1.00800000E+00  1.00800000E+00
  1.20100000E+01  1.00800000E+00  1.00800000E+00  1.20100000E+01  1.00800000E+00
  1.00800000E+00  1.00800000E+00  1.00800000E+00  1.00800000E+00  1.20100000E+01
  1.20100000E+01  1.00800000E+00  1.00800000E+00  1.00800000E+00  1.20100000E+01
  1.00800000E+00  1.00800000E+00  1.00800000E+00  1.00800000E+00  3.20600000E+01
  1.20100000E+01  1.20100000E+01  1.20100000E+01  1.20100000E+01  1.20100000E+01
  3.20600000E+01  1.20100000E+01  1.20100000E+01  1.00800000E+00  1.20100000E+01
  1.20100000E+01  1.20100000E+01  1.20100000E+01  1.20100000E+01  1.00800000E+00
  1.20100000E+01  1.20100000E+01  1.00800000E+00  1.00800000E+00  1.20100000E+01
  1.00800000E+00  1.00800000E+00  1.20100000E+01  1.00800000E+00  1.00800000E+00
  1.20100000E+01  1.00800000E+00  1.00800000E+00  1.20100000E+01  1.20100000E+01
  1.00800000E+00  1.00800000E+00  1.20100000E+01  1.20100000E+01  1.20100000E+01
  1.00800000E+00  1.00800000E+00  1.20100000E+01  1.00800000E+00  1.20100000E+01
  1.00800000E+00  1.20100000E+01  1.00800000E+00  1.00800000E+00  1.20100000E+01
  1.00800000E+00  1.00800000E+00  1.20100000E+01  1.00800000E+00  1.00800000E+00
  1.00800000E+00  1.00800000E+00  1.00800000E+00  1.20100000E+01  1.20100000E+01
  1.00800000E+00  1.00800000E+00  1.00800000E+00  1.20100000E+01  1.00800000E+00
  1.00800000E+00  1.00800000E+00  1.00800000E+00  3.20600000E+01  1.20100000E+01
  1.20100000E+01  1.20100000E+01  1.20100000E+01  1.20100000E+01  3.20600000E+01
  1.20100000E+01  1.20100000E+01  1.00800000E+00  1.20100000E+01  1.20100000E+01
  1.20100000E+01  1.20100000E+01  1.20100000E+01  1.00800000E+00  1.20100000E+01
  1.20100000E+01  1.00800000E+00  1.00800000E+00  1.20100000E+01  1.00800000E+00
  1.00800000E+00  1.20100000E+01  1.00800000E+00  1.00800000E+00  1.20100000E+01
  1.00800000E+00  1.00800000E+00  1.20100000E+01  1.20100000E+01  1.00800000E+00
  1.00800000E+00  1.20100000E+01  1.20100000E+01  1.20100000E+01  1.00800000E+00
  1.00800000E+00  1.20100000E+01  1.00800000E+00  1.20100000E+01  1.00800000E+00
  1.20100000E+01  1.00800000E+00  1.00800000E+00  1.20100000E+01  1.00800000E+00
  1.00800000E+00  1.20100000E+01  1.00800000E+00  1.00800000E+00  1.00800000E+00
  1.00800000E+00  1.00800000E+00  1.20100000E+01  1.20100000E+01  1.00800000E+00
  1.00800000E+00  1.00800000E+00  1.20100000E+01  1.00800000E+00  1.00800000E+00
  1.00800000E+00  1.00800000E+00  3.20600000E+01  1.20100000E+01  1.20100000E+01
  1.20100000E+01  1.20100000E+01  1.20100000E+01  3.20600000E+01  1.20100000E+01
  1.20100000E+01  1.00800000E+00  1.20100000E+01  1.20100000E+01  1.20100000E+01
  1.20100000E+01  1.20100000E+01  1.00800000E+00  1.20100000E+01  1.20100000E+01
  1.00800000E+00  1.00800000E+00  1.20100000E+01  1.00800000E+00  1.00800000E+00
  1.20100000E+01  1.00800000E+00  1.00800000E+00  1.20100000E+01  1.00800000E+00
  1.00800000E+00  1.20100000E+01  1.20100000E+01  1.00800000E+00  1.00800000E+00
  1.20100000E+01  1.20100000E+01  1.20100000E+01  1.00800000E+00  1.00800000E+00
  1.20100000E+01  1.00800000E+00  1.20100000E+01  1.00800000E+00  1.20100000E+01
  1.00800000E+00  1.00800000E+00  1.20100000E+01  1.00800000E+00  1.00800000E+00
  1.20100000E+01  1.00800000E+00  1.00800000E+00  1.00800000E+00  1.00800000E+00
  1.00800000E+00  1.20100000E+01  1.20100000E+01  1.00800000E+00  1.00800000E+00
  1.00800000E+00  1.20100000E+01  1.00800000E+00  1.00800000E+00  1.00800000E+00
  1.00800000E+00  3.20600000E+01  1.20100000E+01  1.20100000E+01  1.20100000E+01
  1.20100000E+01  1.20100000E+01  3.20600000E+01  1.20100000E+01  1.20100000E+01
  1.00800000E+00  1.20100000E+01  1.20100000E+01  1.20100000E+01  1.20100000E+01
  1.20100000E+01  1.00800000E+00  1.20100000E+01  1.20100000E+01  1.00800000E+00
  1.00800000E+00  1.20100000E+01  1.00800000E+00  1.00800000E+00  1.20100000E+01
  1.00800000E+00  1.00800000E+00  1.20100000E+01  1.00800000E+00  1.00800000E+00
  1.20100000E+01  1.20100000E+01  1.00800000E+00  1.00800000E+00  1.20100000E+01
  1.20100000E+01  1.20100000E+01  1.00800000E+00  1.00800000E+00  1.20100000E+01
  1.00800000E+00  1.20100000E+01  1.00800000E+00  1.20100000E+01  1.00800000E+00
  1.00800000E+00  1.20100000E+01  1.00800000E+00  1.00800000E+00  1.20100000E+01
  1.00800000E+00  1.00800000E+00  1.00800000E+00  1.00800000E+00  1.00800000E+00
  1.20100000E+01  1.20100000E+01  1.00800000E+00  1.00800000E+00  1.00800000E+00
  1.20100000E+01  1.00800000E+00  1.00800000E+00  1.00800000E+00  1.00800000E+00
  3.20600000E+01  1.20100000E+01  1.20100000E+01  1.20100000E+01  1.20100000E+01
  1.20100000E+01  3.20600000E+01  1.20100000E+01  1.20100000E+01  1.00800000E+00
  1.20100000E+01  1.20100000E+01  1.20100000E+01  1.20100000E+01  1.20100000E+01
  1.00800000E+00  1.20100000E+01  1.20100000E+01  1.00800000E+00  1.00800000E+00
  1.20100000E+01  1.00800000E+00  1.00800000E+00  1.20100000E+01  1.00800000E+00
  1.00800000E+00  1.20100000E+01  1.00800000E+00  1.00800000E+00  1.20100000E+01
  1.20100000E+01  1.00800000E+00  1.00800000E+00  1.20100000E+01  1.20100000E+01
  1.20100000E+01  1.00800000E+00  1.00800000E+00  1.20100000E+01  1.00800000E+00
  1.20100000E+01  1.00800000E+00  1.20100000E+01  1.00800000E+00  1.00800000E+00
  1.20100000E+01  1.00800000E+00  1.00800000E+00  1.20100000E+01  1.00800000E+00
  1.00800000E+00  1.00800000E+00  1.00800000E+00  1.00800000E+00  1.20100000E+01
  1.20100000E+01  1.00800000E+00  1.00800000E+00  1.00800000E+00  1.20100000E+01
  1.00800000E+00  1.00800000E+00  1.00800000E+00  1.00800000E+00  3.20600000E+01
  1.20100000E+01  1.20100000E+01  1.20100000E+01  1.20100000E+01  1.20100000E+01
  3.20600000E+01  1.20100000E+01  1.20100000E+01  1.00800000E+00  1.20100000E+01
  1.20100000E+01  1.20100000E+01  1.20100000E+01  1.20100000E+01  1.00800000E+00
  1.20100000E+01  1.20100000E+01  1.00800000E+00  1.00800000E+00  1.20100000E+01
  1.00800000E+00  1.00800000E+00  1.20100000E+01  1.00800000E+00  1.00800000E+00
  1.20100000E+01  1.00800000E+00  1.00800000E+00  1.20100000E+01  1.20100000E+01
  1.00800000E+00  1.00800000E+00  1.20100000E+01  1.20100000E+01  1.20100000E+01
  1.00800000E+00  1.00800000E+00  1.20100000E+01  1.00800000E+00  1.20100000E+01
  1.00800000E+00  1.20100000E+01  1.00800000E+00  1.00800000E+00  1.20100000E+01
  1.00800000E+00  1.00800000E+00  1.20100000E+01  1.00800000E+00  1.00800000E+00
  1.00800000E+00  1.00800000E+00  1.00800000E+00  1.20100000E+01  1.20100000E+01
  1.00800000E+00  1.00800000E+00  1.00800000E+00  1.20100000E+01  1.00800000E+00
  1.00800000E+00  1.00800000E+00  1.00800000E+00  3.20600000E+01  1.20100000E+01
  1.20100000E+01  1.20100000E+01  1.20100000E+01  1.20100000E+01  3.20600000E+01
  1.20100000E+01  1.20100000E+01  1.00800000E+00  1.20100000E+01  1.20100000E+01
  1.20100000E+01  1.20100000E+01  1.20100000E+01  1.00800000E+00  1.20100000E+01
  1.20100000E+01  1.00800000E+00  1.00800000E+00  1.20100000E+01  1.00800000E+00
  1.00800000E+00  1.20100000E+01  1.00800000E+00  1.00800000E+00  1.20100000E+01
  1.00800000E+00  1.00800000E+00  1.20100000E+01  1.20100000E+01  1.00800000E+00
  1.00800000E+00  1.20100000E+01  1.20100000E+01  1.20100000E+01  1.00800000E+00
  1.00800000E+00  1.20100000E+01  1.00800000E+00  1.20100000E+01  1.00800000E+00
  1.20100000E+01  1.00800000E+00  1.00800000E+00  1.20100000E+01  1.00800000E+00
  1.00800000E+00  1.20100000E+01  1.00800000E+00  1.00800000E+00  1.00800000E+00
  1.00800000E+00  1.00800000E+00  1.20100000E+01  1.20100000E+01  1.00800000E+00
  1.00800000E+00  1.00800000E+00  1.20100000E+01  1.00800000E+00  1.00800000E+00
  1.00800000E+00  1.00800000E+00  3.20600000E+01  1.20100000E+01  1.20100000E+01
  1.20100000E+01  1.20100000E+01  1.20100000E+01  3.20600000E+01  1.20100000E+01
  1.20100000E+01  1.00800000E+00  1.20100000E+01  1.20100000E+01  1.20100000E+01
  1.20100000E+01  1.20100000E+01  1.00800000E+00  1.20100000E+01  1.20100000E+01
  1.00800000E+00  1.00800000E+00  1.20100000E+01  1.00800000E+00  1.00800000E+00
  1.20100000E+01  1.00800000E+00  1.00800000E+00  1.20100000E+01  1.00800000E+00
  1.00800000E+00  1.20100000E+01  1.20100000E+01  1.00800000E+00  1.00800000E+00
  1.20100000E+01  1.20100000E+01  1.20100000E+01  1.00800000E+00  1.00800000E+00
  1.20100000E+01  1.00800000E+00  1.20100000E+01  1.00800000E+00  1.20100000E+01
  1.00800000E+00  1.00800000E+00  1.20100000E+01  1.00800000E+00  1.00800000E+00
  1.20100000E+01  1.00800000E+00  1.00800000E+00  1.00800000E+00  1.00800000E+00
  1.00800000E+00  1.20100000E+01  1.20100000E+01  1.00800000E+00  1.00800000E+00
  1.00800000E+00  1.20100000E+01  1.00800000E+00  1.00800000E+00  1.00800000E+00
  1.00800000E+00  3.20600000E+01  1.20100000E+01  1.20100000E+01  1.20100000E+01
  1.20100000E+01  1.20100000E+01  3.20600000E+01  1.20100000E+01  1.20100000E+01
  1.00800000E+00  1.20100000E+01  1.20100000E+01  1.20100000E+01  1.20100000E+01
  1.20100000E+01  1.00800000E+00  1.20100000E+01  1.20100000E+01  1.00800000E+00
  1.00800000E+00  1.20100000E+01  1.00800000E+00  1.00800000E+00  1.20100000E+01
  1.00800000E+00  1.00800000E+00  1.20100000E+01  1.00800000E+00  1.00800000E+00
  1.20100000E+01  1.20100000E+01  1.00800000E+00  1.00800000E+00  1.20100000E+01
  1.20100000E+01  1.20100000E+01  1.00800000E+00  1.00800000E+00  1.20100000E+01
  1.00800000E+00  1.20100000E+01  1.00800000E+00  1.20100000E+01  1.00800000E+00
  1.00800000E+00  1.20100000E+01  1.00800000E+00  1.00800000E+00  1.20100000E+01
  1.00800000E+00  1.00800000E+00  1.00800000E+00  1.00800000E+00  1.00800000E+00
  1.20100000E+01  1.20100000E+01  1.00800000E+00  1.00800000E+00  1.00800000E+00
  1.20100000E+01  1.00800000E+00  1.00800000E+00  1.00800000E+00  1.00800000E+00
  3.20600000E+01  1.20100000E+01  1.20100000E+01  1.20100000E+01  1.20100000E+01
  1.20100000E+01  3.20600000E+01  1.20100000E+01  1.20100000E+01  1.00800000E+00
  1.20100000E+01  1.20100000E+01  1.20100000E+01  1.20100000E+01  1.20100000E+01
  1.00800000E+00  1.20100000E+01  1.20100000E+01  1.00800000E+00  1.00800000E+00
  1.20100000E+01  1.00800000E+00  1.00800000E+00  1.20100000E+01  1.00800000E+00
  1.00800000E+00  1.20100000E+01  1.00800000E+00  1.00800000E+00  1.20100000E+01
  1.20100000E+01  1.00800000E+00  1.00800000E+00  1.20100000E+01  1.20100000E+01
  1.20100000E+01  1.00800000E+00  1.00800000E+00  1.20100000E+01  1.00800000E+00
  1.20100000E+01  1.00800000E+00  1.20100000E+01  1.00800000E+00  1.00800000E+00
  1.20100000E+01  1.00800000E+00  1.00800000E+00  1.20100000E+01  1.00800000E+00
  1.00800000E+00  1.00800000E+00  1.00800000E+00  1.00800000E+00  1.20100000E+01
  1.20100000E+01  1.00800000E+00  1.00800000E+00  1.00800000E+00  1.20100000E+01
  1.00800000E+00  1.00800000E+00  1.00800000E+00  1.00800000E+00  3.20600000E+01
  1.20100000E+01  1.20100000E+01  1.20100000E+01  1.20100000E+01  1.20100000E+01
  3.20600000E+01  1.20100000E+01  1.20100000E+01  1.00800000E+00  1.20100000E+01
  1.20100000E+01  1.20100000E+01  1.20100000E+01  1.20100000E+01  1.00800000E+00
  1.20100000E+01  1.20100000E+01  1.00800000E+00  1.00800000E+00  1.20100000E+01
  1.00800000E+00  1.00800000E+00  1.20100000E+01  1.00800000E+00  1.00800000E+00
  1.20100000E+01  1.00800000E+00  1.00800000E+00  1.20100000E+01  1.20100000E+01
  1.00800000E+00  1.00800000E+00  1.20100000E+01  1.20100000E+01  1.20100000E+01
  1.00800000E+00  1.00800000E+00  1.20100000E+01  1.00800000E+00  1.20100000E+01
  1.00800000E+00  1.20100000E+01  1.00800000E+00  1.00800000E+00  1.20100000E+01
  1.00800000E+00  1.00800000E+00  1.20100000E+01  1.00800000E+00  1.00800000E+00
  1.00800000E+00  1.00800000E+00  1.00800000E+00  1.20100000E+01  1.20100000E+01
  1.00800000E+00  1.00800000E+00  1.00800000E+00  1.20100000E+01  1.00800000E+00
  1.00800000E+00  1.00800000E+00  1.00800000E+00  3.20600000E+01  1.20100000E+01
  1.20100000E+01  1.20100000E+01  1.20100000E+01  1.20100000E+01  3.20600000E+01
  1.20100000E+01  1.20100000E+01  1.00800000E+00  1.20100000E+01  1.20100000E+01
  1.20100000E+01  1.20100000E+01  1.20100000E+01  1.00800000E+00  1.20100000E+01
  1.20100000E+01  1.00800000E+00  1.00800000E+00  1.20100000E+01  1.00800000E+00
  1.00800000E+00  1.20100000E+01  1.00800000E+00  1.00800000E+00  1.20100000E+01
  1.00800000E+00  1.00800000E+00  1.20100000E+01  1.20100000E+01  1.00800000E+00
  1.00800000E+00  1.20100000E+01  1.20100000E+01  1.20100000E+01  1.00800000E+00
  1.00800000E+00  1.20100000E+01  1.00800000E+00  1.20100000E+01  1.00800000E+00
  1.20100000E+01  1.00800000E+00  1.00800000E+00  1.20100000E+01  1.00800000E+00
  1.00800000E+00  1.20100000E+01  1.00800000E+00  1.00800000E+00  1.00800000E+00
  1.00800000E+00  1.00800000E+00  1.20100000E+01  1.20100000E+01  1.00800000E+00
  1.00800000E+00  1.00800000E+00  1.20100000E+01  1.00800000E+00  1.00800000E+00
  1.00800000E+00  1.00800000E+00  3.20600000E+01  1.20100000E+01  1.20100000E+01
  1.20100000E+01  1.20100000E+01  1.20100000E+01  3.20600000E+01  1.20100000E+01
  1.20100000E+01  1.00800000E+00  1.20100000E+01  1.20100000E+01  1.20100000E+01
  1.20100000E+01  1.20100000E+01  1.00800000E+00  1.20100000E+01  1.20100000E+01
  1.00800000E+00  1.00800000E+00  1.20100000E+01  1.00800000E+00  1.00800000E+00
  1.20100000E+01  1.00800000E+00  1.00800000E+00  1.20100000E+01  1.00800000E+00
  1.00800000E+00  1.20100000E+01  1.20100000E+01  1.00800000E+00  1.00800000E+00
  1.20100000E+01  1.20100000E+01  1.20100000E+01  1.00800000E+00  1.00800000E+00
  1.20100000E+01  1.00800000E+00  1.20100000E+01  1.00800000E+00  1.20100000E+01
  1.00800000E+00  1.00800000E+00  1.20100000E+01  1.00800000E+00  1.00800000E+00
  1.20100000E+01  1.00800000E+00  1.00800000E+00  1.00800000E+00  1.00800000E+00
  1.00800000E+00  1.20100000E+01  1.20100000E+01  1.00800000E+00  1.00800000E+00
  1.00800000E+00  1.20100000E+01  1.00800000E+00  1.00800000E+00  1.00800000E+00
  1.00800000E+00  3.20600000E+01  1.20100000E+01  1.20100000E+01  1.20100000E+01
  1.20100000E+01  1.20100000E+01  3.20600000E+01  1.20100000E+01  1.20100000E+01
  1.00800000E+00  1.20100000E+01  1.20100000E+01  1.20100000E+01  1.20100000E+01
  1.20100000E+01  1.00800000E+00  1.20100000E+01  1.20100000E+01  1.00800000E+00
  1.00800000E+00  1.20100000E+01  1.00800000E+00  1.00800000E+00  1.20100000E+01
  1.00800000E+00  1.00800000E+00  1.20100000E+01  1.00800000E+00  1.00800000E+00
  1.20100000E+01  1.20100000E+01  1.00800000E+00  1.00800000E+00  1.20100000E+01
  1.20100000E+01  1.20100000E+01  1.00800000E+00  1.00800000E+00  1.20100000E+01
  1.00800000E+00  1.20100000E+01  1.00800000E+00  1.20100000E+01  1.00800000E+00
  1.00800000E+00  1.20100000E+01  1.00800000E+00  1.00800000E+00  1.20100000E+01
  1.00800000E+00  1.00800000E+00  1.00800000E+00  1.00800000E+00  1.00800000E+00
  1.20100000E+01  1.20100000E+01  1.00800000E+00  1.00800000E+00  1.00800000E+00
  1.20100000E+01  1.00800000E+00  1.00800000E+00  1.00800000E+00  1.00800000E+00
  3.20600000E+01  1.20100000E+01  1.20100000E+01  1.20100000E+01  1.20100000E+01
  1.20100000E+01  3.20600000E+01  1.20100000E+01  1.20100000E+01  1.00800000E+00
  1.20100000E+01  1.20100000E+01  1.20100000E+01  1.20100000E+01  1.20100000E+01
  1.00800000E+00  1.20100000E+01  1.20100000E+01  1.00800000E+00  1.00800000E+00
  1.20100000E+01  1.00800000E+00  1.00800000E+00  1.20100000E+01  1.00800000E+00
  1.00800000E+00  1.20100000E+01  1.00800000E+00  1.00800000E+00  1.20100000E+01
  1.20100000E+01  1.00800000E+00  1.00800000E+00  1.20100000E+01  1.20100000E+01
  1.20100000E+01  1.00800000E+00  1.00800000E+00  1.20100000E+01  1.00800000E+00
  1.20100000E+01  1.00800000E+00  1.20100000E+01  1.00800000E+00  1.00800000E+00
  1.20100000E+01  1.00800000E+00  1.00800000E+00  1.20100000E+01  1.00800000E+00
  1.00800000E+00  1.00800000E+00  1.00800000E+00  1.00800000E+00  1.20100000E+01
  1.20100000E+01  1.00800000E+00  1.00800000E+00  1.00800000E+00  1.20100000E+01
  1.00800000E+00  1.00800000E+00  1.00800000E+00  1.00800000E+00  3.20600000E+01
  1.20100000E+01  1.20100000E+01  1.20100000E+01  1.20100000E+01  1.20100000E+01
  3.20600000E+01  1.20100000E+01  1.20100000E+01  1.00800000E+00  1.20100000E+01
  1.20100000E+01  1.20100000E+01  1.20100000E+01  1.20100000E+01  1.00800000E+00
  1.20100000E+01  1.20100000E+01  1.00800000E+00  1.00800000E+00  1.20100000E+01
  1.00800000E+00  1.00800000E+00  1.20100000E+01  1.00800000E+00  1.00800000E+00
  1.20100000E+01  1.00800000E+00  1.00800000E+00  1.20100000E+01  1.20100000E+01
  1.00800000E+00  1.00800000E+00  1.20100000E+01  1.20100000E+01  1.20100000E+01
  1.00800000E+00  1.00800000E+00  1.20100000E+01  1.00800000E+00  1.20100000E+01
  1.00800000E+00  1.20100000E+01  1.00800000E+00  1.00800000E+00  1.20100000E+01
  1.00800000E+00  1.00800000E+00  1.20100000E+01  1.00800000E+00  1.00800000E+00
  1.00800000E+00  1.00800000E+00  1.00800000E+00  1.20100000E+01  1.20100000E+01
  1.00800000E+00  1.00800000E+00  1.00800000E+00  1.20100000E+01  1.00800000E+00
  1.00800000E+00  1.00800000E+00  1.00800000E+00  3.20600000E+01  1.20100000E+01
  1.20100000E+01  1.20100000E+01  1.20100000E+01  1.20100000E+01  3.20600000E+01
  1.20100000E+01  1.20100000E+01  1.00800000E+00  1.20100000E+01  1.20100000E+01
  1.20100000E+01  1.20100000E+01  1.20100000E+01  1.00800000E+00  1.20100000E+01
  1.20100000E+01  1.00800000E+00  1.00800000E+00  1.20100000E+01  1.00800000E+00
  1.00800000E+00  1.20100000E+01  1.00800000E+00  1.00800000E+00  1.20100000E+01
  1.00800000E+00  1.00800000E+00  1.20100000E+01  1.20100000E+01  1.00800000E+00
  1.00800000E+00  1.20100000E+01  1.20100000E+01  1.20100000E+01  1.00800000E+00
  1.00800000E+00  1.20100000E+01  1.00800000E+00  1.20100000E+01  1.00800000E+00
  1.20100000E+01  1.00800000E+00  1.00800000E+00  1.20100000E+01  1.00800000E+00
  1.00800000E+00  1.20100000E+01  1.00800000E+00  1.00800000E+00  1.00800000E+00
  1.00800000E+00  1.00800000E+00  1.20100000E+01  1.20100000E+01  1.00800000E+00
  1.00800000E+00  1.00800000E+00  1.20100000E+01  1.00800000E+00  1.00800000E+00
  1.00800000E+00  1.00800000E+00  3.20600000E+01  1.20100000E+01  1.20100000E+01
  1.20100000E+01  1.20100000E+01  1.20100000E+01  3.20600000E+01  1.20100000E+01
  1.20100000E+01  1.00800000E+00  1.20100000E+01  1.20100000E+01  1.20100000E+01
  1.20100000E+01  1.20100000E+01  1.00800000E+00  1.20100000E+01  1.20100000E+01
  1.00800000E+00  1.00800000E+00  1.20100000E+01  1.00800000E+00  1.00800000E+00
  1.20100000E+01  1.00800000E+00  1.00800000E+00  1.20100000E+01  1.00800000E+00
  1.00800000E+00  1.20100000E+01  1.20100000E+01  1.00800000E+00  1.00800000E+00
  1.20100000E+01  1.20100000E+01  1.20100000E+01  1.00800000E+00  1.00800000E+00
  1.20100000E+01  1.00800000E+00  1.20100000E+01  1.00800000E+00  1.20100000E+01
  1.00800000E+00  1.00800000E+00  1.20100000E+01  1.00800000E+00  1.00800000E+00
  1.20100000E+01  1.00800000E+00  1.00800000E+00  1.00800000E+00  1.00800000E+00
  1.00800000E+00  1.20100000E+01  1.20100000E+01  1.00800000E+00  1.00800000E+00
  1.00800000E+00  1.20100000E+01  1.00800000E+00  1.00800000E+00  1.00800000E+00
  1.00800000E+00  3.20600000E+01  1.20100000E+01  1.20100000E+01  1.20100000E+01
  1.20100000E+01  1.20100000E+01  3.20600000E+01  1.20100000E+01  1.20100000E+01
  1.00800000E+00  1.20100000E+01  1.20100000E+01  1.20100000E+01  1.20100000E+01
  1.20100000E+01  1.00800000E+00  1.20100000E+01  1.20100000E+01  1.00800000E+00
  1.00800000E+00  1.20100000E+01  1.00800000E+00  1.00800000E+00  1.20100000E+01
  1.00800000E+00  1.00800000E+00  1.20100000E+01  1.00800000E+00  1.00800000E+00
  1.20100000E+01  1.20100000E+01  1.00800000E+00  1.00800000E+00  1.20100000E+01
  1.20100000E+01  1.20100000E+01  1.00800000E+00  1.00800000E+00  1.20100000E+01
  1.00800000E+00  1.20100000E+01  1.00800000E+00  1.20100000E+01  1.00800000E+00
  1.00800000E+00  1.20100000E+01  1.00800000E+00  1.00800000E+00  1.20100000E+01
  1.00800000E+00  1.00800000E+00  1.00800000E+00  1.00800000E+00  1.00800000E+00
  1.20100000E+01  1.20100000E+01  1.00800000E+00  1.00800000E+00  1.00800000E+00
  1.20100000E+01  1.00800000E+00  1.00800000E+00  1.00800000E+00  1.00800000E+00
  3.20600000E+01  1.20100000E+01  1.20100000E+01  1.20100000E+01  1.20100000E+01
  1.20100000E+01  3.20600000E+01  1.20100000E+01  1.20100000E+01  1.00800000E+00
  1.20100000E+01  1.20100000E+01  1.20100000E+01  1.20100000E+01  1.20100000E+01
  1.00800000E+00  1.20100000E+01  1.20100000E+01  1.00800000E+00  1.00800000E+00
  1.20100000E+01  1.00800000E+00  1.00800000E+00  1.20100000E+01  1.00800000E+00
  1.00800000E+00  1.20100000E+01  1.00800000E+00  1.00800000E+00  1.20100000E+01
  1.20100000E+01  1.00800000E+00  1.00800000E+00  1.20100000E+01  1.20100000E+01
  1.20100000E+01  1.00800000E+00  1.00800000E+00  1.20100000E+01  1.00800000E+00
  1.20100000E+01  1.00800000E+00  1.20100000E+01  1.00800000E+00  1.00800000E+00
  1.20100000E+01  1.00800000E+00  1.00800000E+00  1.20100000E+01  1.00800000E+00
  1.00800000E+00  1.00800000E+00  1.00800000E+00  1.00800000E+00  1.20100000E+01
  1.20100000E+01  1.00800000E+00  1.00800000E+00  1.00800000E+00  1.20100000E+01
  1.00800000E+00  1.00800000E+00  1.00800000E+00  1.00800000E+00  3.20600000E+01
  1.20100000E+01  1.20100000E+01  1.20100000E+01  1.20100000E+01  1.20100000E+01
  3.20600000E+01  1.20100000E+01  1.20100000E+01  1.00800000E+00  1.20100000E+01
  1.20100000E+01  1.20100000E+01  1.20100000E+01  1.20100000E+01  1.00800000E+00
  1.20100000E+01  1.20100000E+01  1.00800000E+00  1.00800000E+00  1.20100000E+01
  1.00800000E+00  1.00800000E+00  1.20100000E+01  1.00800000E+00  1.00800000E+00
  1.20100000E+01  1.00800000E+00  1.00800000E+00  1.20100000E+01  1.20100000E+01
  1.00800000E+00  1.00800000E+00  1.20100000E+01  1.20100000E+01  1.20100000E+01
  1.00800000E+00  1.00800000E+00  1.20100000E+01  1.00800000E+00  1.20100000E+01
  1.00800000E+00  1.20100000E+01  1.00800000E+00  1.00800000E+00  1.20100000E+01
  1.00800000E+00  1.00800000E+00  1.20100000E+01  1.00800000E+00  1.00800000E+00
  1.00800000E+00  1.00800000E+00  1.00800000E+00  1.20100000E+01  1.20100000E+01
  1.00800000E+00  1.00800000E+00  1.00800000E+00  1.20100000E+01  1.00800000E+00
  1.00800000E+00  1.00800000E+00  1.00800000E+00  3.20600000E+01  1.20100000E+01
  1.20100000E+01  1.20100000E+01  1.20100000E+01  1.20100000E+01  3.20600000E+01
  1.20100000E+01  1.20100000E+01  1.00800000E+00  1.20100000E+01  1.20100000E+01
  1.20100000E+01  1.20100000E+01  1.20100000E+01  1.00800000E+00  1.20100000E+01
  1.20100000E+01  1.00800000E+00  1.00800000E+00  1.20100000E+01  1.00800000E+00
  1.00800000E+00  1.20100000E+01  1.00800000E+00  1.00800000E+00  1.20100000E+01
  1.00800000E+00  1.00800000E+00  1.20100000E+01  1.20100000E+01  1.00800000E+00
  1.00800000E+00  1.20100000E+01  1.20100000E+01  1.20100000E+01  1.00800000E+00
  1.00800000E+00  1.20100000E+01  1.00800000E+00  1.20100000E+01  1.00800000E+00
  1.20100000E+01  1.00800000E+00  1.00800000E+00  1.20100000E+01  1.00800000E+00
  1.00800000E+00  1.20100000E+01  1.00800000E+00  1.00800000E+00  1.00800000E+00
  1.00800000E+00  1.00800000E+00  1.20100000E+01  1.20100000E+01  1.00800000E+00
  1.00800000E+00  1.00800000E+00  1.20100000E+01  1.00800000E+00  1.00800000E+00
  1.00800000E+00  1.00800000E+00  3.20600000E+01  1.20100000E+01  1.20100000E+01
  1.20100000E+01  1.20100000E+01  1.20100000E+01  3.20600000E+01  1.20100000E+01
  1.20100000E+01  1.00800000E+00  1.20100000E+01  1.20100000E+01  1.20100000E+01
  1.20100000E+01  1.20100000E+01  1.00800000E+00  1.20100000E+01  1.20100000E+01
  1.00800000E+00  1.00800000E+00  1.20100000E+01  1.00800000E+00  1.00800000E+00
  1.20100000E+01  1.00800000E+00  1.00800000E+00  1.20100000E+01  1.00800000E+00
  1.00800000E+00  1.20100000E+01  1.20100000E+01  1.00800000E+00  1.00800000E+00
  1.20100000E+01  1.20100000E+01  1.20100000E+01  1.00800000E+00  1.00800000E+00
  1.20100000E+01  1.00800000E+00  1.20100000E+01  1.00800000E+00  1.20100000E+01
  1.00800000E+00  1.00800000E+00  1.20100000E+01  1.00800000E+00  1.00800000E+00
  1.20100000E+01  1.00800000E+00  1.00800000E+00  1.00800000E+00  1.00800000E+00
  1.00800000E+00  1.20100000E+01  1.20100000E+01  1.00800000E+00  1.00800000E+00
  1.00800000E+00  1.20100000E+01  1.00800000E+00  1.00800000E+00  1.00800000E+00
  1.00800000E+00  3.20600000E+01  1.20100000E+01  1.20100000E+01  1.20100000E+01
  1.20100000E+01  1.20100000E+01  3.20600000E+01  1.20100000E+01  1.20100000E+01
  1.00800000E+00  1.20100000E+01  1.20100000E+01  1.20100000E+01  1.20100000E+01
  1.20100000E+01  1.00800000E+00  1.20100000E+01  1.20100000E+01  1.00800000E+00
  1.00800000E+00  1.20100000E+01  1.00800000E+00  1.00800000E+00  1.20100000E+01
  1.00800000E+00  1.00800000E+00  1.20100000E+01  1.00800000E+00  1.00800000E+00
  1.20100000E+01  1.20100000E+01  1.00800000E+00  1.00800000E+00  1.20100000E+01
  1.20100000E+01  1.20100000E+01  1.00800000E+00  1.00800000E+00  1.20100000E+01
  1.00800000E+00  1.20100000E+01  1.00800000E+00  1.20100000E+01  1.00800000E+00
  1.00800000E+00  1.20100000E+01  1.00800000E+00  1.00800000E+00  1.20100000E+01
  1.00800000E+00  1.00800000E+00  1.00800000E+00  1.00800000E+00  1.00800000E+00
  1.20100000E+01  1.20100000E+01  1.00800000E+00  1.00800000E+00  1.00800000E+00
  1.20100000E+01  1.00800000E+00  1.00800000E+00  1.00800000E+00  1.00800000E+00
  3.20600000E+01  1.20100000E+01  1.20100000E+01  1.20100000E+01  1.20100000E+01
  1.20100000E+01  3.20600000E+01  1.20100000E+01  1.20100000E+01  1.00800000E+00
  1.20100000E+01  1.20100000E+01  1.20100000E+01  1.20100000E+01  1.20100000E+01
  1.00800000E+00  1.20100000E+01  1.20100000E+01  1.00800000E+00  1.00800000E+00
  1.20100000E+01  1.00800000E+00  1.00800000E+00  1.20100000E+01  1.00800000E+00
  1.00800000E+00  1.20100000E+01  1.00800000E+00  1.00800000E+00  1.20100000E+01
  1.20100000E+01  1.00800000E+00  1.00800000E+00  1.20100000E+01  1.20100000E+01
  1.20100000E+01  1.00800000E+00  1.00800000E+00  1.20100000E+01  1.00800000E+00
  1.20100000E+01  1.00800000E+00  1.20100000E+01  1.00800000E+00  1.00800000E+00
  1.20100000E+01  1.00800000E+00  1.00800000E+00  1.20100000E+01  1.00800000E+00
  1.00800000E+00  1.00800000E+00  1.00800000E+00  1.00800000E+00  1.20100000E+01
  1.20100000E+01  1.00800000E+00  1.00800000E+00  1.00800000E+00  1.20100000E+01
  1.00800000E+00  1.00800000E+00  1.00800000E+00  1.00800000E+00  3.20600000E+01
  1.20100000E+01  1.20100000E+01  1.20100000E+01  1.20100000E+01  1.20100000E+01
  3.20600000E+01  1.20100000E+01  1.20100000E+01  1.00800000E+00  1.20100000E+01
  1.20100000E+01  1.20100000E+01  1.20100000E+01  1.20100000E+01  1.00800000E+00
  1.20100000E+01  1.20100000E+01  1.00800000E+00  1.00800000E+00  1.20100000E+01
  1.00800000E+00  1.00800000E+00  1.20100000E+01  1.00800000E+00  1.00800000E+00
  1.20100000E+01  1.00800000E+00  1.00800000E+00  1.20100000E+01  1.20100000E+01
  1.00800000E+00  1.00800000E+00  1.20100000E+01  1.20100000E+01  1.20100000E+01
  1.00800000E+00  1.00800000E+00  1.20100000E+01  1.00800000E+00  1.20100000E+01
  1.00800000E+00  1.20100000E+01  1.00800000E+00  1.00800000E+00  1.20100000E+01
  1.00800000E+00  1.00800000E+00  1.20100000E+01  1.00800000E+00  1.00800000E+00
  1.00800000E+00  1.00800000E+00  1.00800000E+00  1.20100000E+01  1.20100000E+01
  1.00800000E+00  1.00800000E+00  1.00800000E+00  1.20100000E+01  1.00800000E+00
  1.00800000E+00  1.00800000E+00  1.00800000E+00  3.20600000E+01  1.20100000E+01
  1.20100000E+01  1.20100000E+01  1.20100000E+01  1.20100000E+01  3.20600000E+01
  1.20100000E+01  1.20100000E+01  1.00800000E+00  1.20100000E+01  1.20100000E+01
  1.20100000E+01  1.20100000E+01  1.20100000E+01  1.00800000E+00  1.20100000E+01
  1.20100000E+01  1.00800000E+00  1.00800000E+00  1.20100000E+01  1.00800000E+00
  1.00800000E+00  1.20100000E+01  1.00800000E+00  1.00800000E+00  1.20100000E+01
  1.00800000E+00  1.00800000E+00  1.20100000E+01  1.20100000E+01  1.00800000E+00
  1.00800000E+00  1.20100000E+01  1.20100000E+01  1.20100000E+01  1.00800000E+00
  1.00800000E+00  1.20100000E+01  1.00800000E+00  1.20100000E+01  1.00800000E+00
  1.20100000E+01  1.00800000E+00  1.00800000E+00  1.20100000E+01  1.00800000E+00
  1.00800000E+00  1.20100000E+01  1.00800000E+00  1.00800000E+00  1.00800000E+00
  1.00800000E+00  1.00800000E+00  1.20100000E+01  1.20100000E+01  1.00800000E+00
  1.00800000E+00  1.00800000E+00  1.20100000E+01  1.00800000E+00  1.00800000E+00
  1.00800000E+00  1.00800000E+00  3.20600000E+01  1.20100000E+01  1.20100000E+01
  1.20100000E+01  1.20100000E+01  1.20100000E+01  3.20600000E+01  1.20100000E+01
  1.20100000E+01  1.00800000E+00  1.20100000E+01  1.20100000E+01  1.20100000E+01
  1.20100000E+01  1.20100000E+01  1.00800000E+00  1.20100000E+01  1.20100000E+01
  1.00800000E+00  1.00800000E+00  1.20100000E+01  1.00800000E+00  1.00800000E+00
  1.20100000E+01  1.00800000E+00  1.00800000E+00  1.20100000E+01  1.00800000E+00
  1.00800000E+00  1.20100000E+01  1.20100000E+01  1.00800000E+00  1.00800000E+00
  1.20100000E+01  1.20100000E+01  1.20100000E+01  1.00800000E+00  1.00800000E+00
  1.20100000E+01  1.00800000E+00  1.20100000E+01  1.00800000E+00  1.20100000E+01
  1.00800000E+00  1.00800000E+00  1.20100000E+01  1.00800000E+00  1.00800000E+00
  1.20100000E+01  1.00800000E+00  1.00800000E+00  1.00800000E+00  1.00800000E+00
  1.00800000E+00  1.20100000E+01  1.20100000E+01  1.00800000E+00  1.00800000E+00
  1.00800000E+00  1.20100000E+01  1.00800000E+00  1.00800000E+00  1.00800000E+00
  1.00800000E+00  3.20600000E+01  1.20100000E+01  1.20100000E+01  1.20100000E+01
  1.20100000E+01  1.20100000E+01  3.20600000E+01  1.20100000E+01  1.20100000E+01
  1.00800000E+00  1.20100000E+01  1.20100000E+01  1.20100000E+01  1.20100000E+01
  1.20100000E+01  1.00800000E+00  1.20100000E+01  1.20100000E+01  1.00800000E+00
  1.00800000E+00  1.20100000E+01  1.00800000E+00  1.00800000E+00  1.20100000E+01
  1.00800000E+00  1.00800000E+00  1.20100000E+01  1.00800000E+00  1.00800000E+00
  1.20100000E+01  1.20100000E+01  1.00800000E+00  1.00800000E+00  1.20100000E+01
  1.20100000E+01  1.20100000E+01  1.00800000E+00  1.00800000E+00  1.20100000E+01
  1.00800000E+00  1.20100000E+01  1.00800000E+00  1.20100000E+01  1.00800000E+00
  1.00800000E+00  1.20100000E+01  1.00800000E+00  1.00800000E+00  1.20100000E+01
  1.00800000E+00  1.00800000E+00  1.00800000E+00  1.00800000E+00  1.00800000E+00
  1.20100000E+01  1.20100000E+01  1.00800000E+00  1.00800000E+00  1.00800000E+00
  1.20100000E+01  1.00800000E+00  1.00800000E+00  1.00800000E+00  1.00800000E+00
  3.20600000E+01  1.20100000E+01  1.20100000E+01  1.20100000E+01  1.20100000E+01
  1.20100000E+01  3.20600000E+01  1.20100000E+01  1.20100000E+01  1.00800000E+00
  1.20100000E+01  1.20100000E+01  1.20100000E+01  1.20100000E+01  1.20100000E+01
  1.00800000E+00  1.20100000E+01  1.20100000E+01  1.00800000E+00  1.00800000E+00
  1.20100000E+01  1.00800000E+00  1.00800000E+00  1.20100000E+01  1.00800000E+00
  1.00800000E+00  1.20100000E+01  1.00800000E+00  1.00800000E+00  1.20100000E+01
  1.20100000E+01  1.00800000E+00  1.00800000E+00  1.20100000E+01  1.20100000E+01
  1.20100000E+01  1.00800000E+00  1.00800000E+00  1.20100000E+01  1.00800000E+00
  1.20100000E+01  1.00800000E+00  1.20100000E+01  1.00800000E+00  1.00800000E+00
  1.20100000E+01  1.00800000E+00  1.00800000E+00  1.20100000E+01  1.00800000E+00
  1.00800000E+00  1.00800000E+00  1.00800000E+00  1.00800000E+00  1.20100000E+01
  1.20100000E+01  1.00800000E+00  1.00800000E+00  1.00800000E+00  1.20100000E+01
  1.00800000E+00  1.00800000E+00  1.00800000E+00  1.00800000E+00  3.20600000E+01
  1.20100000E+01  1.20100000E+01  1.20100000E+01  1.20100000E+01  1.20100000E+01
  3.20600000E+01  1.20100000E+01  1.20100000E+01  1.00800000E+00  1.20100000E+01
  1.20100000E+01  1.20100000E+01  1.20100000E+01  1.20100000E+01  1.00800000E+00
  1.20100000E+01  1.20100000E+01  1.00800000E+00  1.00800000E+00  1.20100000E+01
  1.00800000E+00  1.00800000E+00  1.20100000E+01  1.00800000E+00  1.00800000E+00
  1.20100000E+01  1.00800000E+00  1.00800000E+00  1.20100000E+01  1.20100000E+01
  1.00800000E+00  1.00800000E+00  1.20100000E+01  1.20100000E+01  1.20100000E+01
  1.00800000E+00  1.00800000E+00  1.20100000E+01  1.00800000E+00  1.20100000E+01
  1.00800000E+00  1.20100000E+01  1.00800000E+00  1.00800000E+00  1.20100000E+01
  1.00800000E+00  1.00800000E+00  1.20100000E+01  1.00800000E+00  1.00800000E+00
  1.00800000E+00  1.00800000E+00  1.00800000E+00  1.20100000E+01  1.20100000E+01
  1.00800000E+00  1.00800000E+00  1.00800000E+00  1.20100000E+01  1.00800000E+00
  1.00800000E+00  1.00800000E+00  1.00800000E+00  3.20600000E+01  1.20100000E+01
  1.20100000E+01  1.20100000E+01  1.20100000E+01  1.20100000E+01  3.20600000E+01
  1.20100000E+01  1.20100000E+01  1.00800000E+00  1.20100000E+01  1.20100000E+01
  1.20100000E+01  1.20100000E+01  1.20100000E+01  1.00800000E+00  1.20100000E+01
  1.20100000E+01  1.00800000E+00  1.00800000E+00  1.20100000E+01  1.00800000E+00
  1.00800000E+00  1.20100000E+01  1.00800000E+00  1.00800000E+00  1.20100000E+01
  1.00800000E+00  1.00800000E+00  1.20100000E+01  1.20100000E+01  1.00800000E+00
  1.00800000E+00  1.20100000E+01  1.20100000E+01  1.20100000E+01  1.00800000E+00
  1.00800000E+00  1.20100000E+01  1.00800000E+00  1.20100000E+01  1.00800000E+00
  1.20100000E+01  1.00800000E+00  1.00800000E+00  1.20100000E+01  1.00800000E+00
  1.00800000E+00  1.20100000E+01  1.00800000E+00  1.00800000E+00  1.00800000E+00
  1.00800000E+00  1.00800000E+00  1.20100000E+01  1.20100000E+01  1.00800000E+00
  1.00800000E+00  1.00800000E+00  1.20100000E+01  1.00800000E+00  1.00800000E+00
  1.00800000E+00  1.00800000E+00  3.20600000E+01  1.20100000E+01  1.20100000E+01
  1.20100000E+01  1.20100000E+01  1.20100000E+01  3.20600000E+01  1.20100000E+01
  1.20100000E+01  1.00800000E+00  1.20100000E+01  1.20100000E+01  1.20100000E+01
  1.20100000E+01  1.20100000E+01  1.00800000E+00  1.20100000E+01  1.20100000E+01
  1.00800000E+00  1.00800000E+00  1.20100000E+01  1.00800000E+00  1.00800000E+00
  1.20100000E+01  1.00800000E+00  1.00800000E+00  1.20100000E+01  1.00800000E+00
  1.00800000E+00  1.20100000E+01  1.20100000E+01  1.00800000E+00  1.00800000E+00
  1.20100000E+01  1.20100000E+01  1.20100000E+01  1.00800000E+00  1.00800000E+00
  1.20100000E+01  1.00800000E+00  1.20100000E+01  1.00800000E+00  1.20100000E+01
  1.00800000E+00  1.00800000E+00  1.20100000E+01  1.00800000E+00  1.00800000E+00
  1.20100000E+01  1.00800000E+00  1.00800000E+00  1.00800000E+00  1.00800000E+00
  1.00800000E+00  1.20100000E+01  1.20100000E+01  1.00800000E+00  1.00800000E+00
  1.00800000E+00  1.20100000E+01  1.00800000E+00  1.00800000E+00  1.00800000E+00
  1.00800000E+00  3.20600000E+01  1.20100000E+01  1.20100000E+01  1.20100000E+01
  1.20100000E+01  1.20100000E+01  3.20600000E+01  1.20100000E+01  1.20100000E+01
  1.00800000E+00  1.20100000E+01  1.20100000E+01  1.20100000E+01  1.20100000E+01
  1.20100000E+01  1.00800000E+00  1.20100000E+01  1.20100000E+01  1.00800000E+00
  1.00800000E+00  1.20100000E+01  1.00800000E+00  1.00800000E+00  1.20100000E+01
  1.00800000E+00  1.00800000E+00  1.20100000E+01  1.00800000E+00  1.00800000E+00
  1.20100000E+01  1.20100000E+01  1.00800000E+00  1.00800000E+00  1.20100000E+01
  1.20100000E+01  1.20100000E+01  1.00800000E+00  1.00800000E+00  1.20100000E+01
  1.00800000E+00  1.20100000E+01  1.00800000E+00  1.20100000E+01  1.00800000E+00
  1.00800000E+00  1.20100000E+01  1.00800000E+00  1.00800000E+00  1.20100000E+01
  1.00800000E+00  1.00800000E+00  1.00800000E+00  1.00800000E+00  1.00800000E+00
  1.20100000E+01  1.20100000E+01  1.00800000E+00  1.00800000E+00  1.00800000E+00
  1.20100000E+01  1.00800000E+00  1.00800000E+00  1.00800000E+00  1.00800000E+00
  3.20600000E+01  1.20100000E+01  1.20100000E+01  1.20100000E+01  1.20100000E+01
  1.20100000E+01  3.20600000E+01  1.20100000E+01  1.20100000E+01  1.00800000E+00
  1.20100000E+01  1.20100000E+01  1.20100000E+01  1.20100000E+01  1.20100000E+01
  1.00800000E+00  1.20100000E+01  1.20100000E+01  1.00800000E+00  1.00800000E+00
  1.20100000E+01  1.00800000E+00  1.00800000E+00  1.20100000E+01  1.00800000E+00
  1.00800000E+00  1.20100000E+01  1.00800000E+00  1.00800000E+00  1.20100000E+01
  1.20100000E+01  1.00800000E+00  1.00800000E+00  1.20100000E+01  1.20100000E+01
  1.20100000E+01  1.00800000E+00  1.00800000E+00  1.20100000E+01  1.00800000E+00
  1.20100000E+01  1.00800000E+00  1.20100000E+01  1.00800000E+00  1.00800000E+00
  1.20100000E+01  1.00800000E+00  1.00800000E+00  1.20100000E+01  1.00800000E+00
  1.00800000E+00  1.00800000E+00  1.00800000E+00  1.00800000E+00  1.20100000E+01
  1.20100000E+01  1.00800000E+00  1.00800000E+00  1.00800000E+00  1.20100000E+01
  1.00800000E+00  1.00800000E+00  1.00800000E+00  1.00800000E+00  3.20600000E+01
  1.20100000E+01  1.20100000E+01  1.20100000E+01  1.20100000E+01  1.20100000E+01
  3.20600000E+01  1.20100000E+01  1.20100000E+01  1.00800000E+00  1.20100000E+01
  1.20100000E+01  1.20100000E+01  1.20100000E+01  1.20100000E+01  1.00800000E+00
  1.20100000E+01  1.20100000E+01  1.00800000E+00  1.00800000E+00  1.20100000E+01
  1.00800000E+00  1.00800000E+00  1.20100000E+01  1.00800000E+00  1.00800000E+00
  1.20100000E+01  1.00800000E+00  1.00800000E+00  1.20100000E+01  1.20100000E+01
  1.00800000E+00  1.00800000E+00  1.20100000E+01  1.20100000E+01  1.20100000E+01
  1.00800000E+00  1.00800000E+00  1.20100000E+01  1.00800000E+00  1.20100000E+01
  1.00800000E+00  1.20100000E+01  1.00800000E+00  1.00800000E+00  1.20100000E+01
  1.00800000E+00  1.00800000E+00  1.20100000E+01  1.00800000E+00  1.00800000E+00
  1.00800000E+00  1.00800000E+00  1.00800000E+00  1.20100000E+01  1.20100000E+01
  1.00800000E+00  1.00800000E+00  1.00800000E+00  1.20100000E+01  1.00800000E+00
  1.00800000E+00  1.00800000E+00  1.00800000E+00  3.20600000E+01  1.20100000E+01
  1.20100000E+01  1.20100000E+01  1.20100000E+01  1.20100000E+01  3.20600000E+01
  1.20100000E+01  1.20100000E+01  1.00800000E+00  1.20100000E+01  1.20100000E+01
  1.20100000E+01  1.20100000E+01  1.20100000E+01  1.00800000E+00  1.20100000E+01
  1.20100000E+01  1.00800000E+00  1.00800000E+00  1.20100000E+01  1.00800000E+00
  1.00800000E+00  1.20100000E+01  1.00800000E+00  1.00800000E+00  1.20100000E+01
  1.00800000E+00  1.00800000E+00  1.20100000E+01  1.20100000E+01  1.00800000E+00
  1.00800000E+00  1.20100000E+01  1.20100000E+01  1.20100000E+01  1.00800000E+00
  1.00800000E+00  1.20100000E+01  1.00800000E+00  1.20100000E+01  1.00800000E+00
  1.20100000E+01  1.00800000E+00  1.00800000E+00  1.20100000E+01  1.00800000E+00
  1.00800000E+00  1.20100000E+01  1.00800000E+00  1.00800000E+00  1.00800000E+00
  1.00800000E+00  1.00800000E+00  1.20100000E+01  1.20100000E+01  1.00800000E+00
  1.00800000E+00  1.00800000E+00  1.20100000E+01  1.00800000E+00  1.00800000E+00
  1.00800000E+00  1.00800000E+00  3.20600000E+01  1.20100000E+01  1.20100000E+01
  1.20100000E+01  1.20100000E+01  1.20100000E+01  3.20600000E+01  1.20100000E+01
  1.20100000E+01  1.00800000E+00  1.20100000E+01  1.20100000E+01  1.20100000E+01
  1.20100000E+01  1.20100000E+01  1.00800000E+00  1.20100000E+01  1.20100000E+01
  1.00800000E+00  1.00800000E+00  1.20100000E+01  1.00800000E+00  1.00800000E+00
  1.20100000E+01  1.00800000E+00  1.00800000E+00  1.20100000E+01  1.00800000E+00
  1.00800000E+00  1.20100000E+01  1.20100000E+01  1.00800000E+00  1.00800000E+00
  1.20100000E+01  1.20100000E+01  1.20100000E+01  1.00800000E+00  1.00800000E+00
  1.20100000E+01  1.00800000E+00  1.20100000E+01  1.00800000E+00  1.20100000E+01
  1.00800000E+00  1.00800000E+00  1.20100000E+01  1.00800000E+00  1.00800000E+00
  1.20100000E+01  1.00800000E+00  1.00800000E+00  1.00800000E+00  1.00800000E+00
  1.00800000E+00  1.20100000E+01  1.20100000E+01  1.00800000E+00  1.00800000E+00
  1.00800000E+00  1.20100000E+01  1.00800000E+00  1.00800000E+00  1.00800000E+00
  1.00800000E+00  3.20600000E+01  1.20100000E+01  1.20100000E+01  1.20100000E+01
  1.20100000E+01  1.20100000E+01  3.20600000E+01  1.20100000E+01  1.20100000E+01
  1.00800000E+00  1.20100000E+01  1.20100000E+01  1.20100000E+01  1.20100000E+01
  1.20100000E+01  1.00800000E+00  1.20100000E+01  1.20100000E+01  1.00800000E+00
  1.00800000E+00  1.20100000E+01  1.00800000E+00  1.00800000E+00  1.20100000E+01
  1.00800000E+00  1.00800000E+00  1.20100000E+01  1.00800000E+00  1.00800000E+00
  1.20100000E+01  1.20100000E+01  1.00800000E+00  1.00800000E+00  1.20100000E+01
  1.20100000E+01  1.20100000E+01  1.00800000E+00  1.00800000E+00  1.20100000E+01
  1.00800000E+00  1.20100000E+01  1.00800000E+00  1.20100000E+01  1.00800000E+00
  1.00800000E+00  1.20100000E+01  1.00800000E+00  1.00800000E+00  1.20100000E+01
  1.00800000E+00  1.00800000E+00  1.00800000E+00  1.00800000E+00  1.00800000E+00
  1.20100000E+01  1.20100000E+01  1.00800000E+00  1.00800000E+00  1.00800000E+00
  1.20100000E+01  1.00800000E+00  1.00800000E+00  1.00800000E+00  1.00800000E+00
  3.20600000E+01  1.20100000E+01  1.20100000E+01  1.20100000E+01  1.20100000E+01
  1.20100000E+01  3.20600000E+01  1.20100000E+01  1.20100000E+01  1.00800000E+00
  1.20100000E+01  1.20100000E+01  1.20100000E+01  1.20100000E+01  1.20100000E+01
  1.00800000E+00  1.20100000E+01  1.20100000E+01  1.00800000E+00  1.00800000E+00
  1.20100000E+01  1.00800000E+00  1.00800000E+00  1.20100000E+01  1.00800000E+00
  1.00800000E+00  1.20100000E+01  1.00800000E+00  1.00800000E+00  1.20100000E+01
  1.20100000E+01  1.00800000E+00  1.00800000E+00  1.20100000E+01  1.20100000E+01
  1.20100000E+01  1.00800000E+00  1.00800000E+00  1.20100000E+01  1.00800000E+00
  1.20100000E+01  1.00800000E+00  1.20100000E+01  1.00800000E+00  1.00800000E+00
  1.20100000E+01  1.00800000E+00  1.00800000E+00  1.20100000E+01  1.00800000E+00
  1.00800000E+00  1.00800000E+00  1.00800000E+00  1.00800000E+00  1.20100000E+01
  1.20100000E+01  1.00800000E+00  1.00800000E+00  1.00800000E+00  1.20100000E+01
  1.00800000E+00  1.00800000E+00  1.00800000E+00  1.00800000E+00  3.20600000E+01
  1.20100000E+01  1.20100000E+01  1.20100000E+01  1.20100000E+01  1.20100000E+01
  3.20600000E+01  1.20100000E+01  1.20100000E+01  1.00800000E+00  1.20100000E+01
  1.20100000E+01  1.20100000E+01  1.20100000E+01  1.20100000E+01  1.00800000E+00
  1.20100000E+01  1.20100000E+01  1.00800000E+00  1.00800000E+00  1.20100000E+01
  1.00800000E+00  1.00800000E+00  1.20100000E+01  1.00800000E+00  1.00800000E+00
  1.20100000E+01  1.00800000E+00  1.00800000E+00  1.20100000E+01  1.20100000E+01
  1.00800000E+00  1.00800000E+00  1.20100000E+01  1.20100000E+01  1.20100000E+01
  1.00800000E+00  1.00800000E+00  1.20100000E+01  1.00800000E+00  1.20100000E+01
  1.00800000E+00  1.20100000E+01  1.00800000E+00  1.00800000E+00  1.20100000E+01
  1.00800000E+00  1.00800000E+00  1.20100000E+01  1.00800000E+00  1.00800000E+00
  1.00800000E+00  1.00800000E+00  1.00800000E+00  1.20100000E+01  1.20100000E+01
  1.00800000E+00  1.00800000E+00  1.00800000E+00  1.20100000E+01  1.00800000E+00
  1.00800000E+00  1.00800000E+00  1.00800000E+00  3.20600000E+01  1.20100000E+01
  1.20100000E+01  1.20100000E+01  1.20100000E+01  1.20100000E+01  3.20600000E+01
  1.20100000E+01  1.20100000E+01  1.00800000E+00  1.20100000E+01  1.20100000E+01
  1.20100000E+01  1.20100000E+01  1.20100000E+01  1.00800000E+00  1.20100000E+01
  1.20100000E+01  1.00800000E+00  1.00800000E+00  1.20100000E+01  1.00800000E+00
  1.00800000E+00  1.20100000E+01  1.00800000E+00  1.00800000E+00  1.20100000E+01
  1.00800000E+00  1.00800000E+00  1.20100000E+01  1.20100000E+01  1.00800000E+00
  1.00800000E+00  1.20100000E+01  1.20100000E+01  1.20100000E+01  1.00800000E+00
  1.00800000E+00  1.20100000E+01  1.00800000E+00  1.20100000E+01  1.00800000E+00
  1.20100000E+01  1.00800000E+00  1.00800000E+00  1.20100000E+01  1.00800000E+00
  1.00800000E+00  1.20100000E+01  1.00800000E+00  1.00800000E+00  1.00800000E+00
  1.00800000E+00  1.00800000E+00  1.20100000E+01  1.20100000E+01  1.00800000E+00
  1.00800000E+00  1.00800000E+00  1.20100000E+01  1.00800000E+00  1.00800000E+00
  1.00800000E+00  1.00800000E+00  3.20600000E+01  1.20100000E+01  1.20100000E+01
  1.20100000E+01  1.20100000E+01  1.20100000E+01  3.20600000E+01  1.20100000E+01
  1.20100000E+01  1.00800000E+00  1.20100000E+01  1.20100000E+01  1.20100000E+01
  1.20100000E+01  1.20100000E+01  1.00800000E+00  1.20100000E+01  1.20100000E+01
  1.00800000E+00  1.00800000E+00  1.20100000E+01  1.00800000E+00  1.00800000E+00
  1.20100000E+01  1.00800000E+00  1.00800000E+00  1.20100000E+01  1.00800000E+00
  1.00800000E+00  1.20100000E+01  1.20100000E+01  1.00800000E+00  1.00800000E+00
  1.20100000E+01  1.20100000E+01  1.20100000E+01  1.00800000E+00  1.00800000E+00
  1.20100000E+01  1.00800000E+00  1.20100000E+01  1.00800000E+00  1.20100000E+01
  1.00800000E+00  1.00800000E+00  1.20100000E+01  1.00800000E+00  1.00800000E+00
  1.20100000E+01  1.00800000E+00  1.00800000E+00  1.00800000E+00  1.00800000E+00
  1.00800000E+00  1.20100000E+01  1.20100000E+01  1.00800000E+00  1.00800000E+00
  1.00800000E+00  1.20100000E+01  1.00800000E+00  1.00800000E+00  1.00800000E+00
  1.00800000E+00  3.20600000E+01  1.20100000E+01  1.20100000E+01  1.20100000E+01
  1.20100000E+01  1.20100000E+01  3.20600000E+01  1.20100000E+01  1.20100000E+01
  1.00800000E+00  1.20100000E+01  1.20100000E+01  1.20100000E+01  1.20100000E+01
  1.20100000E+01  1.00800000E+00  1.20100000E+01  1.20100000E+01  1.00800000E+00
  1.00800000E+00  1.20100000E+01  1.00800000E+00  1.00800000E+00  1.20100000E+01
  1.00800000E+00  1.00800000E+00  1.20100000E+01  1.00800000E+00  1.00800000E+00
  1.20100000E+01  1.20100000E+01  1.00800000E+00  1.00800000E+00  1.20100000E+01
  1.20100000E+01  1.20100000E+01  1.00800000E+00  1.00800000E+00  1.20100000E+01
  1.00800000E+00  1.20100000E+01  1.00800000E+00  1.20100000E+01  1.00800000E+00
  1.00800000E+00  1.20100000E+01  1.00800000E+00  1.00800000E+00  1.20100000E+01
  1.00800000E+00  1.00800000E+00  1.00800000E+00  1.00800000E+00  1.00800000E+00
  1.20100000E+01  1.20100000E+01  1.00800000E+00  1.00800000E+00  1.00800000E+00
  1.20100000E+01  1.00800000E+00  1.00800000E+00  1.00800000E+00  1.00800000E+00
  3.20600000E+01  1.20100000E+01  1.20100000E+01  1.20100000E+01  1.20100000E+01
  1.20100000E+01  3.20600000E+01  1.20100000E+01  1.20100000E+01  1.00800000E+00
  1.20100000E+01  1.20100000E+01  1.20100000E+01  1.20100000E+01  1.20100000E+01
  1.00800000E+00  1.20100000E+01  1.20100000E+01  1.00800000E+00  1.00800000E+00
  1.20100000E+01  1.00800000E+00  1.00800000E+00  1.20100000E+01  1.00800000E+00
  1.00800000E+00  1.20100000E+01  1.00800000E+00  1.00800000E+00  1.20100000E+01
  1.20100000E+01  1.00800000E+00  1.00800000E+00  1.20100000E+01  1.20100000E+01
  1.20100000E+01  1.00800000E+00  1.00800000E+00  1.20100000E+01  1.00800000E+00
  1.20100000E+01  1.00800000E+00  1.20100000E+01  1.00800000E+00  1.00800000E+00
  1.20100000E+01  1.00800000E+00  1.00800000E+00  1.20100000E+01  1.00800000E+00
  1.00800000E+00  1.00800000E+00  1.00800000E+00  1.00800000E+00  1.20100000E+01
  1.20100000E+01  1.00800000E+00  1.00800000E+00  1.00800000E+00  1.20100000E+01
  1.00800000E+00  1.00800000E+00  1.00800000E+00  1.00800000E+00  3.20600000E+01
  1.20100000E+01  1.20100000E+01  1.20100000E+01  1.20100000E+01  1.20100000E+01
  3.20600000E+01  1.20100000E+01  1.20100000E+01  1.00800000E+00  1.20100000E+01
  1.20100000E+01  1.20100000E+01  1.20100000E+01  1.20100000E+01  1.00800000E+00
  1.20100000E+01  1.20100000E+01  1.00800000E+00  1.00800000E+00  1.20100000E+01
  1.00800000E+00  1.00800000E+00  1.20100000E+01  1.00800000E+00  1.00800000E+00
  1.20100000E+01  1.00800000E+00  1.00800000E+00  1.20100000E+01  1.20100000E+01
  1.00800000E+00  1.00800000E+00  1.20100000E+01  1.20100000E+01  1.20100000E+01
  1.00800000E+00  1.00800000E+00  1.20100000E+01  1.00800000E+00  1.20100000E+01
  1.00800000E+00  1.20100000E+01  1.00800000E+00  1.00800000E+00  1.20100000E+01
  1.00800000E+00  1.00800000E+00  1.20100000E+01  1.00800000E+00  1.00800000E+00
  1.00800000E+00  1.00800000E+00  1.00800000E+00  1.20100000E+01  1.20100000E+01
  1.00800000E+00  1.00800000E+00  1.00800000E+00  1.20100000E+01  1.00800000E+00
  1.00800000E+00  1.00800000E+00  1.00800000E+00  3.20600000E+01  1.20100000E+01
  1.20100000E+01  1.20100000E+01  1.20100000E+01  1.20100000E+01  3.20600000E+01
  1.20100000E+01  1.20100000E+01  1.00800000E+00  1.20100000E+01  1.20100000E+01
  1.20100000E+01  1.20100000E+01  1.20100000E+01  1.00800000E+00  1.20100000E+01
  1.20100000E+01  1.00800000E+00  1.00800000E+00  1.20100000E+01  1.00800000E+00
  1.00800000E+00  1.20100000E+01  1.00800000E+00  1.00800000E+00  1.20100000E+01
  1.00800000E+00  1.00800000E+00  1.20100000E+01  1.20100000E+01  1.00800000E+00
  1.00800000E+00  1.20100000E+01  1.20100000E+01  1.20100000E+01  1.00800000E+00
  1.00800000E+00  1.20100000E+01  1.00800000E+00  1.20100000E+01  1.00800000E+00
  1.20100000E+01  1.00800000E+00  1.00800000E+00  1.20100000E+01  1.00800000E+00
  1.00800000E+00  1.20100000E+01  1.00800000E+00  1.00800000E+00  1.00800000E+00
  1.00800000E+00  1.00800000E+00  1.20100000E+01  1.20100000E+01  1.00800000E+00
  1.00800000E+00  1.00800000E+00  1.20100000E+01  1.00800000E+00  1.00800000E+00
  1.00800000E+00  1.00800000E+00  3.20600000E+01  1.20100000E+01  1.20100000E+01
  1.20100000E+01  1.20100000E+01  1.20100000E+01  3.20600000E+01  1.20100000E+01
  1.20100000E+01  1.00800000E+00  1.20100000E+01  1.20100000E+01  1.20100000E+01
  1.20100000E+01  1.20100000E+01  1.00800000E+00  1.20100000E+01  1.20100000E+01
  1.00800000E+00  1.00800000E+00  1.20100000E+01  1.00800000E+00  1.00800000E+00
  1.20100000E+01  1.00800000E+00  1.00800000E+00  1.20100000E+01  1.00800000E+00
  1.00800000E+00  1.20100000E+01  1.20100000E+01  1.00800000E+00  1.00800000E+00
  1.20100000E+01  1.20100000E+01  1.20100000E+01  1.00800000E+00  1.00800000E+00
  1.20100000E+01  1.00800000E+00  1.20100000E+01  1.00800000E+00  1.20100000E+01
  1.00800000E+00  1.00800000E+00  1.20100000E+01  1.00800000E+00  1.00800000E+00
  1.20100000E+01  1.00800000E+00  1.00800000E+00  1.00800000E+00  1.00800000E+00
  1.00800000E+00  1.20100000E+01  1.20100000E+01  1.00800000E+00  1.00800000E+00
  1.00800000E+00  1.20100000E+01  1.00800000E+00  1.00800000E+00  1.00800000E+00
  1.00800000E+00  3.20600000E+01  1.20100000E+01  1.20100000E+01  1.20100000E+01
  1.20100000E+01  1.20100000E+01  3.20600000E+01  1.20100000E+01  1.20100000E+01
  1.00800000E+00  1.20100000E+01  1.20100000E+01  1.20100000E+01  1.20100000E+01
  1.20100000E+01  1.00800000E+00  1.20100000E+01  1.20100000E+01  1.00800000E+00
  1.00800000E+00  1.20100000E+01  1.00800000E+00  1.00800000E+00  1.20100000E+01
  1.00800000E+00  1.00800000E+00  1.20100000E+01  1.00800000E+00  1.00800000E+00
  1.20100000E+01  1.20100000E+01  1.00800000E+00  1.00800000E+00  1.20100000E+01
  1.20100000E+01  1.20100000E+01  1.00800000E+00  1.00800000E+00  1.20100000E+01
  1.00800000E+00  1.20100000E+01  1.00800000E+00  1.20100000E+01  1.00800000E+00
  1.00800000E+00  1.20100000E+01  1.00800000E+00  1.00800000E+00  1.20100000E+01
  1.00800000E+00  1.00800000E+00  1.00800000E+00  1.00800000E+00  1.00800000E+00
  1.20100000E+01  1.20100000E+01  1.00800000E+00  1.00800000E+00  1.00800000E+00
  1.20100000E+01  1.00800000E+00  1.00800000E+00  1.00800000E+00  1.00800000E+00
  3.20600000E+01  1.20100000E+01  1.20100000E+01  1.20100000E+01  1.20100000E+01
  1.20100000E+01  3.20600000E+01  1.20100000E+01  1.20100000E+01  1.00800000E+00
  1.20100000E+01  1.20100000E+01  1.20100000E+01  1.20100000E+01  1.20100000E+01
  1.00800000E+00  1.20100000E+01  1.20100000E+01  1.00800000E+00  1.00800000E+00
  1.20100000E+01  1.00800000E+00  1.00800000E+00  1.20100000E+01  1.00800000E+00
  1.00800000E+00  1.20100000E+01  1.00800000E+00  1.00800000E+00  1.20100000E+01
  1.20100000E+01  1.00800000E+00  1.00800000E+00  1.20100000E+01  1.20100000E+01
  1.20100000E+01  1.00800000E+00  1.00800000E+00  1.20100000E+01  1.00800000E+00
  1.20100000E+01  1.00800000E+00  1.20100000E+01  1.00800000E+00  1.00800000E+00
  1.20100000E+01  1.00800000E+00  1.00800000E+00  1.20100000E+01  1.00800000E+00
  1.00800000E+00  1.00800000E+00  1.00800000E+00  1.00800000E+00  1.20100000E+01
  1.20100000E+01  1.00800000E+00  1.00800000E+00  1.00800000E+00  1.20100000E+01
  1.00800000E+00  1.00800000E+00  1.00800000E+00  1.00800000E+00  3.20600000E+01
  1.20100000E+01  1.20100000E+01  1.20100000E+01  1.20100000E+01  1.20100000E+01
  3.20600000E+01  1.20100000E+01  1.20100000E+01  1.00800000E+00  1.20100000E+01
  1.20100000E+01  1.20100000E+01  1.20100000E+01  1.20100000E+01  1.00800000E+00
  1.20100000E+01  1.20100000E+01  1.00800000E+00  1.00800000E+00  1.20100000E+01
  1.00800000E+00  1.00800000E+00  1.20100000E+01  1.00800000E+00  1.00800000E+00
  1.20100000E+01  1.00800000E+00  1.00800000E+00  1.20100000E+01  1.20100000E+01
  1.00800000E+00  1.00800000E+00  1.20100000E+01  1.20100000E+01  1.20100000E+01
  1.00800000E+00  1.00800000E+00  1.20100000E+01  1.00800000E+00  1.20100000E+01
  1.00800000E+00  1.20100000E+01  1.00800000E+00  1.00800000E+00  1.20100000E+01
  1.00800000E+00  1.00800000E+00  1.20100000E+01  1.00800000E+00  1.00800000E+00
  1.00800000E+00  1.00800000E+00  1.00800000E+00  1.20100000E+01  1.20100000E+01
  1.00800000E+00  1.00800000E+00  1.00800000E+00  1.20100000E+01  1.00800000E+00
  1.00800000E+00  1.00800000E+00  1.00800000E+00  3.20600000E+01  1.20100000E+01
  1.20100000E+01  1.20100000E+01  1.20100000E+01  1.20100000E+01  3.20600000E+01
  1.20100000E+01  1.20100000E+01  1.00800000E+00  1.20100000E+01  1.20100000E+01
  1.20100000E+01  1.20100000E+01  1.20100000E+01  1.00800000E+00  1.20100000E+01
  1.20100000E+01  1.00800000E+00  1.00800000E+00  1.20100000E+01  1.00800000E+00
  1.00800000E+00  1.20100000E+01  1.00800000E+00  1.00800000E+00  1.20100000E+01
  1.00800000E+00  1.00800000E+00  1.20100000E+01  1.20100000E+01  1.00800000E+00
  1.00800000E+00  1.20100000E+01  1.20100000E+01  1.20100000E+01  1.00800000E+00
  1.00800000E+00  1.20100000E+01  1.00800000E+00  1.20100000E+01  1.00800000E+00
  1.20100000E+01  1.00800000E+00  1.00800000E+00  1.20100000E+01  1.00800000E+00
  1.00800000E+00  1.20100000E+01  1.00800000E+00  1.00800000E+00  1.00800000E+00
  1.00800000E+00  1.00800000E+00  1.20100000E+01  1.20100000E+01  1.00800000E+00
  1.00800000E+00  1.00800000E+00  1.20100000E+01  1.00800000E+00  1.00800000E+00
  1.00800000E+00  1.00800000E+00  3.20600000E+01  1.20100000E+01  1.20100000E+01
  1.20100000E+01  1.20100000E+01  1.20100000E+01  3.20600000E+01  1.20100000E+01
  1.20100000E+01  1.00800000E+00  1.20100000E+01  1.20100000E+01  1.20100000E+01
  1.20100000E+01  1.20100000E+01  1.00800000E+00  1.20100000E+01  1.20100000E+01
  1.00800000E+00  1.00800000E+00  1.20100000E+01  1.00800000E+00  1.00800000E+00
  1.20100000E+01  1.00800000E+00  1.00800000E+00  1.20100000E+01  1.00800000E+00
  1.00800000E+00  1.20100000E+01  1.20100000E+01  1.00800000E+00  1.00800000E+00
  1.20100000E+01  1.20100000E+01  1.20100000E+01  1.00800000E+00  1.00800000E+00
  1.20100000E+01  1.00800000E+00  1.20100000E+01  1.00800000E+00  1.20100000E+01
  1.00800000E+00  1.00800000E+00  1.20100000E+01  1.00800000E+00  1.00800000E+00
  1.20100000E+01  1.00800000E+00  1.00800000E+00  1.00800000E+00  1.00800000E+00
  1.00800000E+00  1.20100000E+01  1.20100000E+01  1.00800000E+00  1.00800000E+00
  1.00800000E+00  1.20100000E+01  1.00800000E+00  1.00800000E+00  1.00800000E+00
  1.00800000E+00  3.20600000E+01  1.20100000E+01  1.20100000E+01  1.20100000E+01
  1.20100000E+01  1.20100000E+01  3.20600000E+01  1.20100000E+01  1.20100000E+01
  1.00800000E+00  1.20100000E+01  1.20100000E+01  1.20100000E+01  1.20100000E+01
  1.20100000E+01  1.00800000E+00  1.20100000E+01  1.20100000E+01  1.00800000E+00
  1.00800000E+00  1.20100000E+01  1.00800000E+00  1.00800000E+00  1.20100000E+01
  1.00800000E+00  1.00800000E+00  1.20100000E+01  1.00800000E+00  1.00800000E+00
  1.20100000E+01  1.20100000E+01  1.00800000E+00  1.00800000E+00  1.20100000E+01
  1.20100000E+01  1.20100000E+01  1.00800000E+00  1.00800000E+00  1.20100000E+01
  1.00800000E+00  1.20100000E+01  1.00800000E+00  1.20100000E+01  1.00800000E+00
  1.00800000E+00  1.20100000E+01  1.00800000E+00  1.00800000E+00  1.20100000E+01
  1.00800000E+00  1.00800000E+00  1.00800000E+00  1.00800000E+00  1.00800000E+00
  1.20100000E+01  1.20100000E+01  1.00800000E+00  1.00800000E+00  1.00800000E+00
  1.20100000E+01  1.00800000E+00  1.00800000E+00  1.00800000E+00  1.00800000E+00
  3.20600000E+01  1.20100000E+01  1.20100000E+01  1.20100000E+01  1.20100000E+01
  1.20100000E+01  3.20600000E+01  1.20100000E+01  1.20100000E+01  1.00800000E+00
  1.20100000E+01  1.20100000E+01  1.20100000E+01  1.20100000E+01  1.20100000E+01
  1.00800000E+00  1.20100000E+01  1.20100000E+01  1.00800000E+00  1.00800000E+00
  1.20100000E+01  1.00800000E+00  1.00800000E+00  1.20100000E+01  1.00800000E+00
  1.00800000E+00  1.20100000E+01  1.00800000E+00  1.00800000E+00  1.20100000E+01
  1.20100000E+01  1.00800000E+00  1.00800000E+00  1.20100000E+01  1.20100000E+01
  1.20100000E+01  1.00800000E+00  1.00800000E+00  1.20100000E+01  1.00800000E+00
  1.20100000E+01  1.00800000E+00  1.20100000E+01  1.00800000E+00  1.00800000E+00
  1.20100000E+01  1.00800000E+00  1.00800000E+00  1.20100000E+01  1.00800000E+00
  1.00800000E+00  1.00800000E+00  1.00800000E+00  1.00800000E+00  1.20100000E+01
  1.20100000E+01  1.00800000E+00  1.00800000E+00  1.00800000E+00  1.20100000E+01
  1.00800000E+00  1.00800000E+00  1.00800000E+00  1.00800000E+00  3.20600000E+01
  1.20100000E+01  1.20100000E+01  1.20100000E+01  1.20100000E+01  1.20100000E+01
  3.20600000E+01  1.20100000E+01  1.20100000E+01  1.00800000E+00  1.20100000E+01
  1.20100000E+01  1.20100000E+01  1.20100000E+01  1.20100000E+01  1.00800000E+00
  1.20100000E+01  1.20100000E+01  1.00800000E+00  1.00800000E+00  1.20100000E+01
  1.00800000E+00  1.00800000E+00  1.20100000E+01  1.00800000E+00  1.00800000E+00
  1.20100000E+01  1.00800000E+00  1.00800000E+00  1.20100000E+01  1.20100000E+01
  1.00800000E+00  1.00800000E+00  1.20100000E+01  1.20100000E+01  1.20100000E+01
  1.00800000E+00  1.00800000E+00  1.20100000E+01  1.00800000E+00  1.20100000E+01
  1.00800000E+00  1.20100000E+01  1.00800000E+00  1.00800000E+00  1.20100000E+01
  1.00800000E+00  1.00800000E+00  1.20100000E+01  1.00800000E+00  1.00800000E+00
  1.00800000E+00  1.00800000E+00  1.00800000E+00  1.20100000E+01  1.20100000E+01
  1.00800000E+00  1.00800000E+00  1.00800000E+00  1.20100000E+01  1.00800000E+00
  1.00800000E+00  1.00800000E+00  1.00800000E+00  3.20600000E+01  1.20100000E+01
  1.20100000E+01  1.20100000E+01  1.20100000E+01  1.20100000E+01  3.20600000E+01
  1.20100000E+01  1.20100000E+01  1.00800000E+00  1.20100000E+01  1.20100000E+01
  1.20100000E+01  1.20100000E+01  1.20100000E+01  1.00800000E+00  1.20100000E+01
  1.20100000E+01  1.00800000E+00  1.00800000E+00  1.20100000E+01  1.00800000E+00
  1.00800000E+00  1.20100000E+01  1.00800000E+00  1.00800000E+00  1.20100000E+01
  1.00800000E+00  1.00800000E+00  1.20100000E+01  1.20100000E+01  1.00800000E+00
  1.00800000E+00  1.20100000E+01  1.20100000E+01  1.20100000E+01  1.00800000E+00
  1.00800000E+00  1.20100000E+01  1.00800000E+00  1.20100000E+01  1.00800000E+00
  1.20100000E+01  1.00800000E+00  1.00800000E+00  1.20100000E+01  1.00800000E+00
  1.00800000E+00  1.20100000E+01  1.00800000E+00  1.00800000E+00  1.00800000E+00
  1.00800000E+00  1.00800000E+00  1.20100000E+01  1.20100000E+01  1.00800000E+00
  1.00800000E+00  1.00800000E+00  1.20100000E+01  1.00800000E+00  1.00800000E+00
  1.00800000E+00  1.00800000E+00  3.20600000E+01  1.20100000E+01  1.20100000E+01
  1.20100000E+01  1.20100000E+01  1.20100000E+01  3.20600000E+01  1.20100000E+01
  1.20100000E+01  1.00800000E+00  1.20100000E+01  1.20100000E+01  1.20100000E+01
  1.20100000E+01  1.20100000E+01  1.00800000E+00  1.20100000E+01  1.20100000E+01
  1.00800000E+00  1.00800000E+00  1.20100000E+01  1.00800000E+00  1.00800000E+00
  1.20100000E+01  1.00800000E+00  1.00800000E+00  1.20100000E+01  1.00800000E+00
  1.00800000E+00  1.20100000E+01  1.20100000E+01  1.00800000E+00  1.00800000E+00
  1.20100000E+01  1.20100000E+01  1.20100000E+01  1.00800000E+00  1.00800000E+00
  1.20100000E+01  1.00800000E+00  1.20100000E+01  1.00800000E+00  1.20100000E+01
  1.00800000E+00  1.00800000E+00  1.20100000E+01  1.00800000E+00  1.00800000E+00
  1.20100000E+01  1.00800000E+00  1.00800000E+00  1.00800000E+00  1.00800000E+00
  1.00800000E+00  1.20100000E+01  1.20100000E+01  1.00800000E+00  1.00800000E+00
  1.00800000E+00  1.20100000E+01  1.00800000E+00  1.00800000E+00  1.00800000E+00
  1.00800000E+00  3.20600000E+01  1.20100000E+01  1.20100000E+01  1.20100000E+01
  1.20100000E+01  1.20100000E+01  3.20600000E+01  1.20100000E+01  1.20100000E+01
  1.00800000E+00  1.20100000E+01  1.20100000E+01  1.20100000E+01  1.20100000E+01
  1.20100000E+01  1.00800000E+00  1.20100000E+01  1.20100000E+01  1.00800000E+00
  1.00800000E+00  1.20100000E+01  1.00800000E+00  1.00800000E+00  1.20100000E+01
  1.00800000E+00  1.00800000E+00  1.20100000E+01  1.00800000E+00  1.00800000E+00
  1.20100000E+01  1.20100000E+01  1.00800000E+00  1.00800000E+00  1.20100000E+01
  1.20100000E+01  1.20100000E+01  1.00800000E+00  1.00800000E+00  1.20100000E+01
  1.00800000E+00  1.20100000E+01  1.00800000E+00  1.20100000E+01  1.00800000E+00
  1.00800000E+00  1.20100000E+01  1.00800000E+00  1.00800000E+00  1.20100000E+01
  1.00800000E+00  1.00800000E+00  1.00800000E+00  1.00800000E+00  1.00800000E+00
  1.20100000E+01  1.20100000E+01  1.00800000E+00  1.00800000E+00  1.00800000E+00
  1.20100000E+01  1.00800000E+00  1.00800000E+00  1.00800000E+00  1.00800000E+00
  3.20600000E+01  1.20100000E+01  1.20100000E+01  1.20100000E+01  1.20100000E+01
  1.20100000E+01  3.20600000E+01  1.20100000E+01  1.20100000E+01  1.00800000E+00
  1.20100000E+01  1.20100000E+01  1.20100000E+01  1.20100000E+01  1.20100000E+01
  1.00800000E+00  1.20100000E+01  1.20100000E+01  1.00800000E+00  1.00800000E+00
  1.20100000E+01  1.00800000E+00  1.00800000E+00  1.20100000E+01  1.00800000E+00
  1.00800000E+00  1.20100000E+01  1.00800000E+00  1.00800000E+00  1.20100000E+01
  1.20100000E+01  1.00800000E+00  1.00800000E+00  1.20100000E+01  1.20100000E+01
  1.20100000E+01  1.00800000E+00  1.00800000E+00  1.20100000E+01  1.00800000E+00
  1.20100000E+01  1.00800000E+00  1.20100000E+01  1.00800000E+00  1.00800000E+00
  1.20100000E+01  1.00800000E+00  1.00800000E+00  1.20100000E+01  1.00800000E+00
  1.00800000E+00  1.00800000E+00  1.00800000E+00  1.00800000E+00  1.20100000E+01
  1.20100000E+01  1.00800000E+00  1.00800000E+00  1.00800000E+00  1.20100000E+01
  1.00800000E+00  1.00800000E+00  1.00800000E+00  1.00800000E+00  3.20600000E+01
  1.20100000E+01  1.20100000E+01  1.20100000E+01  1.20100000E+01  1.20100000E+01
  3.20600000E+01  1.20100000E+01  1.20100000E+01  1.00800000E+00  1.20100000E+01
  1.20100000E+01  1.20100000E+01  1.20100000E+01  1.20100000E+01  1.00800000E+00
  1.20100000E+01  1.20100000E+01  1.00800000E+00  1.00800000E+00  1.20100000E+01
  1.00800000E+00  1.00800000E+00  1.20100000E+01  1.00800000E+00  1.00800000E+00
  1.20100000E+01  1.00800000E+00  1.00800000E+00  1.20100000E+01  1.20100000E+01
  1.00800000E+00  1.00800000E+00  1.20100000E+01  1.20100000E+01  1.20100000E+01
  1.00800000E+00  1.00800000E+00  1.20100000E+01  1.00800000E+00  1.20100000E+01
  1.00800000E+00  1.20100000E+01  1.00800000E+00  1.00800000E+00  1.20100000E+01
  1.00800000E+00  1.00800000E+00  1.20100000E+01  1.00800000E+00  1.00800000E+00
  1.00800000E+00  1.00800000E+00  1.00800000E+00  1.20100000E+01  1.20100000E+01
  1.00800000E+00  1.00800000E+00  1.00800000E+00  1.20100000E+01  1.00800000E+00
  1.00800000E+00  1.00800000E+00  1.00800000E+00  3.20600000E+01  1.20100000E+01
  1.20100000E+01  1.20100000E+01  1.20100000E+01  1.20100000E+01  3.20600000E+01
  1.20100000E+01  1.20100000E+01  1.00800000E+00  1.20100000E+01  1.20100000E+01
  1.20100000E+01  1.20100000E+01  1.20100000E+01  1.00800000E+00  1.20100000E+01
  1.20100000E+01  1.00800000E+00  1.00800000E+00  1.20100000E+01  1.00800000E+00
  1.00800000E+00  1.20100000E+01  1.00800000E+00  1.00800000E+00  1.20100000E+01
  1.00800000E+00  1.00800000E+00  1.20100000E+01  1.20100000E+01  1.00800000E+00
  1.00800000E+00  1.20100000E+01  1.20100000E+01  1.20100000E+01  1.00800000E+00
  1.00800000E+00  1.20100000E+01  1.00800000E+00  1.20100000E+01  1.00800000E+00
  1.20100000E+01  1.00800000E+00  1.00800000E+00  1.20100000E+01  1.00800000E+00
  1.00800000E+00  1.20100000E+01  1.00800000E+00  1.00800000E+00  1.00800000E+00
  1.00800000E+00  1.00800000E+00  1.20100000E+01  1.20100000E+01  1.00800000E+00
  1.00800000E+00  1.00800000E+00  1.20100000E+01  1.00800000E+00  1.00800000E+00
  1.00800000E+00  1.00800000E+00  3.20600000E+01  1.20100000E+01  1.20100000E+01
  1.20100000E+01  1.20100000E+01  1.20100000E+01  3.20600000E+01  1.20100000E+01
  1.20100000E+01  1.00800000E+00  1.20100000E+01  1.20100000E+01  1.20100000E+01
  1.20100000E+01  1.20100000E+01  1.00800000E+00  1.20100000E+01  1.20100000E+01
  1.00800000E+00  1.00800000E+00  1.20100000E+01  1.00800000E+00  1.00800000E+00
  1.20100000E+01  1.00800000E+00  1.00800000E+00  1.20100000E+01  1.00800000E+00
  1.00800000E+00  1.20100000E+01  1.20100000E+01  1.00800000E+00  1.00800000E+00
  1.20100000E+01  1.20100000E+01  1.20100000E+01  1.00800000E+00  1.00800000E+00
  1.20100000E+01  1.00800000E+00  1.20100000E+01  1.00800000E+00  1.20100000E+01
  1.00800000E+00  1.00800000E+00  1.20100000E+01  1.00800000E+00  1.00800000E+00
  1.20100000E+01  1.00800000E+00  1.00800000E+00  1.00800000E+00  1.00800000E+00
  1.00800000E+00  1.20100000E+01  1.20100000E+01  1.00800000E+00  1.00800000E+00
  1.00800000E+00  1.20100000E+01  1.00800000E+00  1.00800000E+00  1.00800000E+00
  1.00800000E+00  3.20600000E+01  1.20100000E+01  1.20100000E+01  1.20100000E+01
  1.20100000E+01  1.20100000E+01  3.20600000E+01  1.20100000E+01  1.20100000E+01
  1.00800000E+00  1.20100000E+01  1.20100000E+01  1.20100000E+01  1.20100000E+01
  1.20100000E+01  1.00800000E+00  1.20100000E+01  1.20100000E+01  1.00800000E+00
  1.00800000E+00  1.20100000E+01  1.00800000E+00  1.00800000E+00  1.20100000E+01
  1.00800000E+00  1.00800000E+00  1.20100000E+01  1.00800000E+00  1.00800000E+00
  1.20100000E+01  1.20100000E+01  1.00800000E+00  1.00800000E+00  1.20100000E+01
  1.20100000E+01  1.20100000E+01  1.00800000E+00  1.00800000E+00  1.20100000E+01
  1.00800000E+00  1.20100000E+01  1.00800000E+00  1.20100000E+01  1.00800000E+00
  1.00800000E+00  1.20100000E+01  1.00800000E+00  1.00800000E+00  1.20100000E+01
  1.00800000E+00  1.00800000E+00  1.00800000E+00  1.00800000E+00  1.00800000E+00
  1.20100000E+01  1.20100000E+01  1.00800000E+00  1.00800000E+00  1.00800000E+00
  1.20100000E+01  1.00800000E+00  1.00800000E+00  1.00800000E+00  1.00800000E+00
  3.20600000E+01  1.20100000E+01  1.20100000E+01  1.20100000E+01  1.20100000E+01
  1.20100000E+01  3.20600000E+01  1.20100000E+01  1.20100000E+01  1.00800000E+00
  1.20100000E+01  1.20100000E+01  1.20100000E+01  1.20100000E+01  1.20100000E+01
  1.00800000E+00  1.20100000E+01  1.20100000E+01  1.00800000E+00  1.00800000E+00
  1.20100000E+01  1.00800000E+00  1.00800000E+00  1.20100000E+01  1.00800000E+00
  1.00800000E+00  1.20100000E+01  1.00800000E+00  1.00800000E+00  1.20100000E+01
  1.20100000E+01  1.00800000E+00  1.00800000E+00  1.20100000E+01  1.20100000E+01
  1.20100000E+01  1.00800000E+00  1.00800000E+00  1.20100000E+01  1.00800000E+00
  1.20100000E+01  1.00800000E+00  1.20100000E+01  1.00800000E+00  1.00800000E+00
  1.20100000E+01  1.00800000E+00  1.00800000E+00  1.20100000E+01  1.00800000E+00
  1.00800000E+00  1.00800000E+00  1.00800000E+00  1.00800000E+00  1.20100000E+01
  1.20100000E+01  1.00800000E+00  1.00800000E+00  1.00800000E+00  1.20100000E+01
  1.00800000E+00  1.00800000E+00  1.00800000E+00  1.00800000E+00  3.20600000E+01
  1.20100000E+01  1.20100000E+01  1.20100000E+01  1.20100000E+01  1.20100000E+01
  3.20600000E+01  1.20100000E+01  1.20100000E+01  1.00800000E+00  1.20100000E+01
  1.20100000E+01  1.20100000E+01  1.20100000E+01  1.20100000E+01  1.00800000E+00
  1.20100000E+01  1.20100000E+01  1.00800000E+00  1.00800000E+00  1.20100000E+01
  1.00800000E+00  1.00800000E+00  1.20100000E+01  1.00800000E+00  1.00800000E+00
  1.20100000E+01  1.00800000E+00  1.00800000E+00  1.20100000E+01  1.20100000E+01
  1.00800000E+00  1.00800000E+00  1.20100000E+01  1.20100000E+01  1.20100000E+01
  1.00800000E+00  1.00800000E+00  1.20100000E+01  1.00800000E+00  1.20100000E+01
  1.00800000E+00  1.20100000E+01  1.00800000E+00  1.00800000E+00  1.20100000E+01
  1.00800000E+00  1.00800000E+00  1.20100000E+01  1.00800000E+00  1.00800000E+00
  1.00800000E+00  1.00800000E+00  1.00800000E+00  1.20100000E+01  1.20100000E+01
  1.00800000E+00  1.00800000E+00  1.00800000E+00  1.20100000E+01  1.00800000E+00
  1.00800000E+00  1.00800000E+00  1.00800000E+00  3.20600000E+01  1.20100000E+01
  1.20100000E+01  1.20100000E+01  1.20100000E+01  1.20100000E+01  3.20600000E+01
  1.20100000E+01  1.20100000E+01  1.00800000E+00  1.20100000E+01  1.20100000E+01
  1.20100000E+01  1.20100000E+01  1.20100000E+01  1.00800000E+00  1.20100000E+01
  1.20100000E+01  1.00800000E+00  1.00800000E+00  1.20100000E+01  1.00800000E+00
  1.00800000E+00  1.20100000E+01  1.00800000E+00  1.00800000E+00  1.20100000E+01
  1.00800000E+00  1.00800000E+00  1.20100000E+01  1.20100000E+01  1.00800000E+00
  1.00800000E+00  1.20100000E+01  1.20100000E+01  1.20100000E+01  1.00800000E+00
  1.00800000E+00  1.20100000E+01  1.00800000E+00  1.20100000E+01  1.00800000E+00
  1.20100000E+01  1.00800000E+00  1.00800000E+00  1.20100000E+01  1.00800000E+00
  1.00800000E+00  1.20100000E+01  1.00800000E+00  1.00800000E+00  1.00800000E+00
  1.00800000E+00  1.00800000E+00  1.20100000E+01  1.20100000E+01  1.00800000E+00
  1.00800000E+00  1.00800000E+00  1.20100000E+01  1.00800000E+00  1.00800000E+00
  1.00800000E+00  1.00800000E+00  3.20600000E+01  1.20100000E+01  1.20100000E+01
  1.20100000E+01  1.20100000E+01  1.20100000E+01  3.20600000E+01  1.20100000E+01
  1.20100000E+01  1.00800000E+00  1.20100000E+01  1.20100000E+01  1.20100000E+01
  1.20100000E+01  1.20100000E+01  1.00800000E+00  1.20100000E+01  1.20100000E+01
  1.00800000E+00  1.00800000E+00  1.20100000E+01  1.00800000E+00  1.00800000E+00
  1.20100000E+01  1.00800000E+00  1.00800000E+00  1.20100000E+01  1.00800000E+00
  1.00800000E+00  1.20100000E+01  1.20100000E+01  1.00800000E+00  1.00800000E+00
  1.20100000E+01  1.20100000E+01  1.20100000E+01  1.00800000E+00  1.00800000E+00
  1.20100000E+01  1.00800000E+00  1.20100000E+01  1.00800000E+00  1.20100000E+01
  1.00800000E+00  1.00800000E+00  1.20100000E+01  1.00800000E+00  1.00800000E+00
  1.20100000E+01  1.00800000E+00  1.00800000E+00  1.00800000E+00  1.00800000E+00
  1.00800000E+00  1.20100000E+01  1.20100000E+01  1.00800000E+00  1.00800000E+00
  1.00800000E+00  1.20100000E+01  1.00800000E+00  1.00800000E+00  1.00800000E+00
  1.00800000E+00  3.20600000E+01  1.20100000E+01  1.20100000E+01  1.20100000E+01
  1.20100000E+01  1.20100000E+01  3.20600000E+01  1.20100000E+01  1.20100000E+01
  1.00800000E+00  1.20100000E+01  1.20100000E+01  1.20100000E+01  1.20100000E+01
  1.20100000E+01  1.00800000E+00  1.20100000E+01  1.20100000E+01  1.00800000E+00
  1.00800000E+00  1.20100000E+01  1.00800000E+00  1.00800000E+00  1.20100000E+01
  1.00800000E+00  1.00800000E+00  1.20100000E+01  1.00800000E+00  1.00800000E+00
  1.20100000E+01  1.20100000E+01  1.00800000E+00  1.00800000E+00  1.20100000E+01
  1.20100000E+01  1.20100000E+01  1.00800000E+00  1.00800000E+00  1.20100000E+01
  1.00800000E+00  1.20100000E+01  1.00800000E+00  1.20100000E+01  1.00800000E+00
  1.00800000E+00  1.20100000E+01  1.00800000E+00  1.00800000E+00  1.20100000E+01
  1.00800000E+00  1.00800000E+00  1.00800000E+00  1.00800000E+00  1.00800000E+00
  1.20100000E+01  1.20100000E+01  1.00800000E+00  1.00800000E+00  1.00800000E+00
  1.20100000E+01  1.00800000E+00  1.00800000E+00  1.00800000E+00  1.00800000E+00
  3.20600000E+01  1.20100000E+01  1.20100000E+01  1.20100000E+01  1.20100000E+01
  1.20100000E+01  3.20600000E+01  1.20100000E+01  1.20100000E+01  1.00800000E+00
  1.20100000E+01  1.20100000E+01  1.20100000E+01  1.20100000E+01  1.20100000E+01
  1.00800000E+00  1.20100000E+01  1.20100000E+01  1.00800000E+00  1.00800000E+00
  1.20100000E+01  1.00800000E+00  1.00800000E+00  1.20100000E+01  1.00800000E+00
  1.00800000E+00  1.20100000E+01  1.00800000E+00  1.00800000E+00  1.20100000E+01
  1.20100000E+01  1.00800000E+00  1.00800000E+00  1.20100000E+01  1.20100000E+01
  1.20100000E+01  1.00800000E+00  1.00800000E+00  1.20100000E+01  1.00800000E+00
  1.20100000E+01  1.00800000E+00  1.20100000E+01  1.00800000E+00  1.00800000E+00
  1.20100000E+01  1.00800000E+00  1.00800000E+00  1.20100000E+01  1.00800000E+00
  1.00800000E+00  1.00800000E+00  1.00800000E+00  1.00800000E+00  1.20100000E+01
  1.20100000E+01  1.00800000E+00  1.00800000E+00  1.00800000E+00  1.20100000E+01
  1.00800000E+00  1.00800000E+00  1.00800000E+00  1.00800000E+00  3.20600000E+01
  1.20100000E+01  1.20100000E+01  1.20100000E+01  1.20100000E+01  1.20100000E+01
  3.20600000E+01  1.20100000E+01  1.20100000E+01  1.00800000E+00  1.20100000E+01
  1.20100000E+01  1.20100000E+01  1.20100000E+01  1.20100000E+01  1.00800000E+00
  1.20100000E+01  1.20100000E+01  1.00800000E+00  1.00800000E+00  1.20100000E+01
  1.00800000E+00  1.00800000E+00  1.20100000E+01  1.00800000E+00  1.00800000E+00
  1.20100000E+01  1.00800000E+00  1.00800000E+00  1.20100000E+01  1.20100000E+01
  1.00800000E+00  1.00800000E+00  1.20100000E+01  1.20100000E+01  1.20100000E+01
  1.00800000E+00  1.00800000E+00  1.20100000E+01  1.00800000E+00  1.20100000E+01
  1.00800000E+00  1.20100000E+01  1.00800000E+00  1.00800000E+00  1.20100000E+01
  1.00800000E+00  1.00800000E+00  1.20100000E+01  1.00800000E+00  1.00800000E+00
  1.00800000E+00  1.00800000E+00  1.00800000E+00  1.20100000E+01  1.20100000E+01
  1.00800000E+00  1.00800000E+00  1.00800000E+00  1.20100000E+01  1.00800000E+00
  1.00800000E+00  1.00800000E+00  1.00800000E+00  3.20600000E+01  1.20100000E+01
  1.20100000E+01  1.20100000E+01  1.20100000E+01  1.20100000E+01  3.20600000E+01
  1.20100000E+01  1.20100000E+01  1.00800000E+00  1.20100000E+01  1.20100000E+01
  1.20100000E+01  1.20100000E+01  1.20100000E+01  1.00800000E+00  1.20100000E+01
  1.20100000E+01  1.00800000E+00  1.00800000E+00  1.20100000E+01  1.00800000E+00
  1.00800000E+00  1.20100000E+01  1.00800000E+00  1.00800000E+00  1.20100000E+01
  1.00800000E+00  1.00800000E+00  1.20100000E+01  1.20100000E+01  1.00800000E+00
  1.00800000E+00  1.20100000E+01  1.20100000E+01  1.20100000E+01  1.00800000E+00
  1.00800000E+00  1.20100000E+01  1.00800000E+00  1.20100000E+01  1.00800000E+00
  1.20100000E+01  1.00800000E+00  1.00800000E+00  1.20100000E+01  1.00800000E+00
  1.00800000E+00  1.20100000E+01  1.00800000E+00  1.00800000E+00  1.00800000E+00
  1.00800000E+00  1.00800000E+00  1.20100000E+01  1.20100000E+01  1.00800000E+00
  1.00800000E+00  1.00800000E+00  1.20100000E+01  1.00800000E+00  1.00800000E+00
  1.00800000E+00  1.00800000E+00  3.20600000E+01  1.20100000E+01  1.20100000E+01
  1.20100000E+01  1.20100000E+01  1.20100000E+01  3.20600000E+01  1.20100000E+01
  1.20100000E+01  1.00800000E+00  1.20100000E+01  1.20100000E+01  1.20100000E+01
  1.20100000E+01  1.20100000E+01  1.00800000E+00  1.20100000E+01  1.20100000E+01
  1.00800000E+00  1.00800000E+00  1.20100000E+01  1.00800000E+00  1.00800000E+00
  1.20100000E+01  1.00800000E+00  1.00800000E+00  1.20100000E+01  1.00800000E+00
  1.00800000E+00  1.20100000E+01  1.20100000E+01  1.00800000E+00  1.00800000E+00
  1.20100000E+01  1.20100000E+01  1.20100000E+01  1.00800000E+00  1.00800000E+00
  1.20100000E+01  1.00800000E+00  1.20100000E+01  1.00800000E+00  1.20100000E+01
  1.00800000E+00  1.00800000E+00  1.20100000E+01  1.00800000E+00  1.00800000E+00
  1.20100000E+01  1.00800000E+00  1.00800000E+00  1.00800000E+00  1.00800000E+00
  1.00800000E+00  1.20100000E+01  1.20100000E+01  1.00800000E+00  1.00800000E+00
  1.00800000E+00  1.20100000E+01  1.00800000E+00  1.00800000E+00  1.00800000E+00
  1.00800000E+00  3.20600000E+01  1.20100000E+01  1.20100000E+01  1.20100000E+01
  1.20100000E+01  1.20100000E+01  3.20600000E+01  1.20100000E+01  1.20100000E+01
  1.00800000E+00  1.20100000E+01  1.20100000E+01  1.20100000E+01  1.20100000E+01
  1.20100000E+01  1.00800000E+00  1.20100000E+01  1.20100000E+01  1.00800000E+00
  1.00800000E+00  1.20100000E+01  1.00800000E+00  1.00800000E+00  1.20100000E+01
  1.00800000E+00  1.00800000E+00  1.20100000E+01  1.00800000E+00  1.00800000E+00
  1.20100000E+01  1.20100000E+01  1.00800000E+00  1.00800000E+00  1.20100000E+01
  1.20100000E+01  1.20100000E+01  1.00800000E+00  1.00800000E+00  1.20100000E+01
  1.00800000E+00  1.20100000E+01  1.00800000E+00  1.20100000E+01  1.00800000E+00
  1.00800000E+00  1.20100000E+01  1.00800000E+00  1.00800000E+00  1.20100000E+01
  1.00800000E+00  1.00800000E+00  1.00800000E+00  1.00800000E+00  1.00800000E+00
  1.20100000E+01  1.20100000E+01  1.00800000E+00  1.00800000E+00  1.00800000E+00
  1.20100000E+01  1.00800000E+00  1.00800000E+00  1.00800000E+00  1.00800000E+00
  3.20600000E+01  1.20100000E+01  1.20100000E+01  1.20100000E+01  1.20100000E+01
  1.20100000E+01  3.20600000E+01  1.20100000E+01  1.20100000E+01  1.00800000E+00
  1.20100000E+01  1.20100000E+01  1.20100000E+01  1.20100000E+01  1.20100000E+01
  1.00800000E+00  1.20100000E+01  1.20100000E+01  1.00800000E+00  1.00800000E+00
  1.20100000E+01  1.00800000E+00  1.00800000E+00  1.20100000E+01  1.00800000E+00
  1.00800000E+00  1.20100000E+01  1.00800000E+00  1.00800000E+00  1.20100000E+01
  1.20100000E+01  1.00800000E+00  1.00800000E+00  1.20100000E+01  1.20100000E+01
  1.20100000E+01  1.00800000E+00  1.00800000E+00  1.20100000E+01  1.00800000E+00
  1.20100000E+01  1.00800000E+00  1.20100000E+01  1.00800000E+00  1.00800000E+00
  1.20100000E+01  1.00800000E+00  1.00800000E+00  1.20100000E+01  1.00800000E+00
  1.00800000E+00  1.00800000E+00  1.00800000E+00  1.00800000E+00  1.20100000E+01
  1.20100000E+01  1.00800000E+00  1.00800000E+00  1.00800000E+00  1.20100000E+01
  1.00800000E+00  1.00800000E+00  1.00800000E+00  1.00800000E+00  3.20600000E+01
  1.20100000E+01  1.20100000E+01  1.20100000E+01  1.20100000E+01  1.20100000E+01
  3.20600000E+01  1.20100000E+01  1.20100000E+01  1.00800000E+00  1.20100000E+01
  1.20100000E+01  1.20100000E+01  1.20100000E+01  1.20100000E+01  1.00800000E+00
  1.20100000E+01  1.20100000E+01  1.00800000E+00  1.00800000E+00  1.20100000E+01
  1.00800000E+00  1.00800000E+00  1.20100000E+01  1.00800000E+00  1.00800000E+00
  1.20100000E+01  1.00800000E+00  1.00800000E+00  1.20100000E+01  1.20100000E+01
  1.00800000E+00  1.00800000E+00  1.20100000E+01  1.20100000E+01  1.20100000E+01
  1.00800000E+00  1.00800000E+00  1.20100000E+01  1.00800000E+00  1.20100000E+01
  1.00800000E+00  1.20100000E+01  1.00800000E+00  1.00800000E+00  1.20100000E+01
  1.00800000E+00  1.00800000E+00  1.20100000E+01  1.00800000E+00  1.00800000E+00
  1.00800000E+00  1.00800000E+00  1.00800000E+00  1.20100000E+01  1.20100000E+01
  1.00800000E+00  1.00800000E+00  1.00800000E+00  1.20100000E+01  1.00800000E+00
  1.00800000E+00  1.00800000E+00  1.00800000E+00  3.20600000E+01  1.20100000E+01
  1.20100000E+01  1.20100000E+01  1.20100000E+01  1.20100000E+01  3.20600000E+01
  1.20100000E+01  1.20100000E+01  1.00800000E+00  1.20100000E+01  1.20100000E+01
  1.20100000E+01  1.20100000E+01  1.20100000E+01  1.00800000E+00  1.20100000E+01
  1.20100000E+01  1.00800000E+00  1.00800000E+00  1.20100000E+01  1.00800000E+00
  1.00800000E+00  1.20100000E+01  1.00800000E+00  1.00800000E+00  1.20100000E+01
  1.00800000E+00  1.00800000E+00  1.20100000E+01  1.20100000E+01  1.00800000E+00
  1.00800000E+00  1.20100000E+01  1.20100000E+01  1.20100000E+01  1.00800000E+00
  1.00800000E+00  1.20100000E+01  1.00800000E+00  1.20100000E+01  1.00800000E+00
  1.20100000E+01  1.00800000E+00  1.00800000E+00  1.20100000E+01  1.00800000E+00
  1.00800000E+00  1.20100000E+01  1.00800000E+00  1.00800000E+00  1.00800000E+00
  1.00800000E+00  1.00800000E+00  1.20100000E+01  1.20100000E+01  1.00800000E+00
  1.00800000E+00  1.00800000E+00  1.20100000E+01  1.00800000E+00  1.00800000E+00
  1.00800000E+00  1.00800000E+00  3.20600000E+01  1.20100000E+01  1.20100000E+01
  1.20100000E+01  1.20100000E+01  1.20100000E+01  3.20600000E+01  1.20100000E+01
  1.20100000E+01  1.00800000E+00  1.20100000E+01  1.20100000E+01  1.20100000E+01
  1.20100000E+01  1.20100000E+01  1.00800000E+00  1.20100000E+01  1.20100000E+01
  1.00800000E+00  1.00800000E+00  1.20100000E+01  1.00800000E+00  1.00800000E+00
  1.20100000E+01  1.00800000E+00  1.00800000E+00  1.20100000E+01  1.00800000E+00
  1.00800000E+00  1.20100000E+01  1.20100000E+01  1.00800000E+00  1.00800000E+00
  1.20100000E+01  1.20100000E+01  1.20100000E+01  1.00800000E+00  1.00800000E+00
  1.20100000E+01  1.00800000E+00  1.20100000E+01  1.00800000E+00  1.20100000E+01
  1.00800000E+00  1.00800000E+00  1.20100000E+01  1.00800000E+00  1.00800000E+00
  1.20100000E+01  1.00800000E+00  1.00800000E+00  1.00800000E+00  1.00800000E+00
  1.00800000E+00  1.20100000E+01  1.20100000E+01  1.00800000E+00  1.00800000E+00
  1.00800000E+00  1.20100000E+01  1.00800000E+00  1.00800000E+00  1.00800000E+00
  1.00800000E+00  3.20600000E+01  1.20100000E+01  1.20100000E+01  1.20100000E+01
  1.20100000E+01  1.20100000E+01  3.20600000E+01  1.20100000E+01  1.20100000E+01
  1.00800000E+00  1.20100000E+01  1.20100000E+01  1.20100000E+01  1.20100000E+01
  1.20100000E+01  1.00800000E+00  1.20100000E+01  1.20100000E+01  1.00800000E+00
  1.00800000E+00  1.20100000E+01  1.00800000E+00  1.00800000E+00  1.20100000E+01
  1.00800000E+00  1.00800000E+00  1.20100000E+01  1.00800000E+00  1.00800000E+00
  1.20100000E+01  1.20100000E+01  1.00800000E+00  1.00800000E+00  1.20100000E+01
  1.20100000E+01  1.20100000E+01  1.00800000E+00  1.00800000E+00  1.20100000E+01
  1.00800000E+00  1.20100000E+01  1.00800000E+00  1.20100000E+01  1.00800000E+00
  1.00800000E+00  1.20100000E+01  1.00800000E+00  1.00800000E+00  1.20100000E+01
  1.00800000E+00  1.00800000E+00  1.00800000E+00  1.00800000E+00  1.00800000E+00
  1.20100000E+01  1.20100000E+01  1.00800000E+00  1.00800000E+00  1.00800000E+00
  1.20100000E+01  1.00800000E+00  1.00800000E+00  1.00800000E+00  1.00800000E+00
  3.20600000E+01  1.20100000E+01  1.20100000E+01  1.20100000E+01  1.20100000E+01
  1.20100000E+01  3.20600000E+01  1.20100000E+01  1.20100000E+01  1.00800000E+00
  1.20100000E+01  1.20100000E+01  1.20100000E+01  1.20100000E+01  1.20100000E+01
  1.00800000E+00  1.20100000E+01  1.20100000E+01  1.00800000E+00  1.00800000E+00
  1.20100000E+01  1.00800000E+00  1.00800000E+00  1.20100000E+01  1.00800000E+00
  1.00800000E+00  1.20100000E+01  1.00800000E+00  1.00800000E+00  1.20100000E+01
  1.20100000E+01  1.00800000E+00  1.00800000E+00  1.20100000E+01  1.20100000E+01
  1.20100000E+01  1.00800000E+00  1.00800000E+00  1.20100000E+01  1.00800000E+00
  1.20100000E+01  1.00800000E+00  1.20100000E+01  1.00800000E+00  1.00800000E+00
  1.20100000E+01  1.00800000E+00  1.00800000E+00  1.20100000E+01  1.00800000E+00
  1.00800000E+00  1.00800000E+00  1.00800000E+00  1.00800000E+00  1.20100000E+01
  1.20100000E+01  1.00800000E+00  1.00800000E+00  1.00800000E+00  1.20100000E+01
  1.00800000E+00  1.00800000E+00  1.00800000E+00  1.00800000E+00  3.20600000E+01
  1.20100000E+01  1.20100000E+01  1.20100000E+01  1.20100000E+01  1.20100000E+01
  3.20600000E+01  1.20100000E+01  1.20100000E+01  1.00800000E+00  1.20100000E+01
  1.20100000E+01  1.20100000E+01  1.20100000E+01  1.20100000E+01  1.00800000E+00
  1.20100000E+01  1.20100000E+01  1.00800000E+00  1.00800000E+00  1.20100000E+01
  1.00800000E+00  1.00800000E+00  1.20100000E+01  1.00800000E+00  1.00800000E+00
  1.20100000E+01  1.00800000E+00  1.00800000E+00  1.20100000E+01  1.20100000E+01
  1.00800000E+00  1.00800000E+00  1.20100000E+01  1.20100000E+01  1.20100000E+01
  1.00800000E+00  1.00800000E+00  1.20100000E+01  1.00800000E+00  1.20100000E+01
  1.00800000E+00  1.20100000E+01  1.00800000E+00  1.00800000E+00  1.20100000E+01
  1.00800000E+00  1.00800000E+00  1.20100000E+01  1.00800000E+00  1.00800000E+00
  1.00800000E+00  1.00800000E+00  1.00800000E+00  1.20100000E+01  1.20100000E+01
  1.00800000E+00  1.00800000E+00  1.00800000E+00  1.20100000E+01  1.00800000E+00
  1.00800000E+00  1.00800000E+00  1.00800000E+00  3.20600000E+01  1.20100000E+01
  1.20100000E+01  1.20100000E+01  1.20100000E+01  1.20100000E+01  3.20600000E+01
  1.20100000E+01  1.20100000E+01  1.00800000E+00  1.20100000E+01  1.20100000E+01
  1.20100000E+01  1.20100000E+01  1.20100000E+01  1.00800000E+00  1.20100000E+01
  1.20100000E+01  1.00800000E+00  1.00800000E+00  1.20100000E+01  1.00800000E+00
  1.00800000E+00  1.20100000E+01  1.00800000E+00  1.00800000E+00  1.20100000E+01
  1.00800000E+00  1.00800000E+00  1.20100000E+01  1.20100000E+01  1.00800000E+00
  1.00800000E+00  1.20100000E+01  1.20100000E+01  1.20100000E+01  1.00800000E+00
  1.00800000E+00  1.20100000E+01  1.00800000E+00  1.20100000E+01  1.00800000E+00
  1.20100000E+01  1.00800000E+00  1.00800000E+00  1.20100000E+01  1.00800000E+00
  1.00800000E+00  1.20100000E+01  1.00800000E+00  1.00800000E+00  1.00800000E+00
  1.00800000E+00  1.00800000E+00  1.20100000E+01  1.20100000E+01  1.00800000E+00
  1.00800000E+00  1.00800000E+00  1.20100000E+01  1.00800000E+00  1.00800000E+00
  1.00800000E+00  1.00800000E+00  3.20600000E+01  1.20100000E+01  1.20100000E+01
  1.20100000E+01  1.20100000E+01  1.20100000E+01  3.20600000E+01  1.20100000E+01
  1.20100000E+01  1.00800000E+00  1.20100000E+01  1.20100000E+01  1.20100000E+01
  1.20100000E+01  1.20100000E+01  1.00800000E+00  1.20100000E+01  1.20100000E+01
  1.00800000E+00  1.00800000E+00  1.20100000E+01  1.00800000E+00  1.00800000E+00
  1.20100000E+01  1.00800000E+00  1.00800000E+00  1.20100000E+01  1.00800000E+00
  1.00800000E+00  1.20100000E+01  1.20100000E+01  1.00800000E+00  1.00800000E+00
  1.20100000E+01  1.20100000E+01  1.20100000E+01  1.00800000E+00  1.00800000E+00
  1.20100000E+01  1.00800000E+00  1.20100000E+01  1.00800000E+00  1.20100000E+01
  1.00800000E+00  1.00800000E+00  1.20100000E+01  1.00800000E+00  1.00800000E+00
  1.20100000E+01  1.00800000E+00  1.00800000E+00  1.00800000E+00  1.00800000E+00
  1.00800000E+00  1.20100000E+01  1.20100000E+01  1.00800000E+00  1.00800000E+00
  1.00800000E+00  1.20100000E+01  1.00800000E+00  1.00800000E+00  1.00800000E+00
  1.00800000E+00  3.20600000E+01  1.20100000E+01  1.20100000E+01  1.20100000E+01
  1.20100000E+01  1.20100000E+01  3.20600000E+01  1.20100000E+01  1.20100000E+01
  1.00800000E+00  1.20100000E+01  1.20100000E+01  1.20100000E+01  1.20100000E+01
  1.20100000E+01  1.00800000E+00  1.20100000E+01  1.20100000E+01  1.00800000E+00
  1.00800000E+00  1.20100000E+01  1.00800000E+00  1.00800000E+00  1.20100000E+01
  1.00800000E+00  1.00800000E+00  1.20100000E+01  1.00800000E+00  1.00800000E+00
  1.20100000E+01  1.20100000E+01  1.00800000E+00  1.00800000E+00  1.20100000E+01
  1.20100000E+01  1.20100000E+01  1.00800000E+00  1.00800000E+00  1.20100000E+01
  1.00800000E+00  1.20100000E+01  1.00800000E+00  1.20100000E+01  1.00800000E+00
  1.00800000E+00  1.20100000E+01  1.00800000E+00  1.00800000E+00  1.20100000E+01
  1.00800000E+00  1.00800000E+00  1.00800000E+00  1.00800000E+00  1.00800000E+00
  1.20100000E+01  1.20100000E+01  1.00800000E+00  1.00800000E+00  1.00800000E+00
  1.20100000E+01  1.00800000E+00  1.00800000E+00  1.00800000E+00  1.00800000E+00
  3.20600000E+01  1.20100000E+01  1.20100000E+01  1.20100000E+01  1.20100000E+01
  1.20100000E+01  3.20600000E+01  1.20100000E+01  1.20100000E+01  1.00800000E+00
  1.20100000E+01  1.20100000E+01  1.20100000E+01  1.20100000E+01  1.20100000E+01
  1.00800000E+00  1.20100000E+01  1.20100000E+01  1.00800000E+00  1.00800000E+00
  1.20100000E+01  1.00800000E+00  1.00800000E+00  1.20100000E+01  1.00800000E+00
  1.00800000E+00  1.20100000E+01  1.00800000E+00  1.00800000E+00  1.20100000E+01
  1.20100000E+01  1.00800000E+00  1.00800000E+00  1.20100000E+01  1.20100000E+01
  1.20100000E+01  1.00800000E+00  1.00800000E+00  1.20100000E+01  1.00800000E+00
  1.20100000E+01  1.00800000E+00  1.20100000E+01  1.00800000E+00  1.00800000E+00
  1.20100000E+01  1.00800000E+00  1.00800000E+00  1.20100000E+01  1.00800000E+00
  1.00800000E+00  1.00800000E+00  1.00800000E+00  1.00800000E+00  1.20100000E+01
  1.20100000E+01  1.00800000E+00  1.00800000E+00  1.00800000E+00  1.20100000E+01
  1.00800000E+00  1.00800000E+00  1.00800000E+00  1.00800000E+00  3.20600000E+01
  1.20100000E+01  1.20100000E+01  1.20100000E+01  1.20100000E+01  1.20100000E+01
  3.20600000E+01  1.20100000E+01  1.20100000E+01  1.00800000E+00  1.20100000E+01
  1.20100000E+01  1.20100000E+01  1.20100000E+01  1.20100000E+01  1.00800000E+00
  1.20100000E+01  1.20100000E+01  1.00800000E+00  1.00800000E+00  1.20100000E+01
  1.00800000E+00  1.00800000E+00  1.20100000E+01  1.00800000E+00  1.00800000E+00
  1.20100000E+01  1.00800000E+00  1.00800000E+00  1.20100000E+01  1.20100000E+01
  1.00800000E+00  1.00800000E+00  1.20100000E+01  1.20100000E+01  1.20100000E+01
  1.00800000E+00  1.00800000E+00  1.20100000E+01  1.00800000E+00  1.20100000E+01
  1.00800000E+00  1.20100000E+01  1.00800000E+00  1.00800000E+00  1.20100000E+01
  1.00800000E+00  1.00800000E+00  1.20100000E+01  1.00800000E+00  1.00800000E+00
  1.00800000E+00  1.00800000E+00  1.00800000E+00  1.20100000E+01  1.20100000E+01
  1.00800000E+00  1.00800000E+00  1.00800000E+00  1.20100000E+01  1.00800000E+00
  1.00800000E+00  1.00800000E+00  1.00800000E+00  3.20600000E+01  1.20100000E+01
  1.20100000E+01  1.20100000E+01  1.20100000E+01  1.20100000E+01  3.20600000E+01
  1.20100000E+01  1.20100000E+01  1.00800000E+00  1.20100000E+01  1.20100000E+01
  1.20100000E+01  1.20100000E+01  1.20100000E+01  1.00800000E+00  1.20100000E+01
  1.20100000E+01  1.00800000E+00  1.00800000E+00  1.20100000E+01  1.00800000E+00
  1.00800000E+00  1.20100000E+01  1.00800000E+00  1.00800000E+00  1.20100000E+01
  1.00800000E+00  1.00800000E+00  1.20100000E+01  1.20100000E+01  1.00800000E+00
  1.00800000E+00  1.20100000E+01  1.20100000E+01  1.20100000E+01  1.00800000E+00
  1.00800000E+00  1.20100000E+01  1.00800000E+00  1.20100000E+01  1.00800000E+00
  1.20100000E+01  1.00800000E+00  1.00800000E+00  1.20100000E+01  1.00800000E+00
  1.00800000E+00  1.20100000E+01  1.00800000E+00  1.00800000E+00  1.00800000E+00
  1.00800000E+00  1.00800000E+00  1.20100000E+01  1.20100000E+01  1.00800000E+00
  1.00800000E+00  1.00800000E+00  1.20100000E+01  1.00800000E+00  1.00800000E+00
  1.00800000E+00  1.00800000E+00  3.20600000E+01  1.20100000E+01  1.20100000E+01
  1.20100000E+01  1.20100000E+01  1.20100000E+01  3.20600000E+01  1.20100000E+01
  1.20100000E+01  1.00800000E+00  1.20100000E+01  1.20100000E+01  1.20100000E+01
  1.20100000E+01  1.20100000E+01  1.00800000E+00  1.20100000E+01  1.20100000E+01
  1.00800000E+00  1.00800000E+00  1.20100000E+01  1.00800000E+00  1.00800000E+00
  1.20100000E+01  1.00800000E+00  1.00800000E+00  1.20100000E+01  1.00800000E+00
  1.00800000E+00  1.20100000E+01  1.20100000E+01  1.00800000E+00  1.00800000E+00
  1.20100000E+01  1.20100000E+01  1.20100000E+01  1.00800000E+00  1.00800000E+00
  1.20100000E+01  1.00800000E+00  1.20100000E+01  1.00800000E+00  1.20100000E+01
  1.00800000E+00  1.00800000E+00  1.20100000E+01  1.00800000E+00  1.00800000E+00
  1.20100000E+01  1.00800000E+00  1.00800000E+00  1.00800000E+00  1.00800000E+00
  1.00800000E+00  1.20100000E+01  1.20100000E+01  1.00800000E+00  1.00800000E+00
  1.00800000E+00  1.20100000E+01  1.00800000E+00  1.00800000E+00  1.00800000E+00
  1.00800000E+00  3.20600000E+01  1.20100000E+01  1.20100000E+01  1.20100000E+01
  1.20100000E+01  1.20100000E+01  3.20600000E+01  1.20100000E+01  1.20100000E+01
  1.00800000E+00  1.20100000E+01  1.20100000E+01  1.20100000E+01  1.20100000E+01
  1.20100000E+01  1.00800000E+00  1.20100000E+01  1.20100000E+01  1.00800000E+00
  1.00800000E+00  1.20100000E+01  1.00800000E+00  1.00800000E+00  1.20100000E+01
  1.00800000E+00  1.00800000E+00  1.20100000E+01  1.00800000E+00  1.00800000E+00
  1.20100000E+01  1.20100000E+01  1.00800000E+00  1.00800000E+00  1.20100000E+01
  1.20100000E+01  1.20100000E+01  1.00800000E+00  1.00800000E+00  1.20100000E+01
  1.00800000E+00  1.20100000E+01  1.00800000E+00  1.20100000E+01  1.00800000E+00
  1.00800000E+00  1.20100000E+01  1.00800000E+00  1.00800000E+00  1.20100000E+01
  1.00800000E+00  1.00800000E+00  1.00800000E+00  1.00800000E+00  1.00800000E+00
  1.20100000E+01  1.20100000E+01  1.00800000E+00  1.00800000E+00  1.00800000E+00
  1.20100000E+01  1.00800000E+00  1.00800000E+00  1.00800000E+00  1.00800000E+00
  3.20600000E+01  1.20100000E+01  1.20100000E+01  1.20100000E+01  1.20100000E+01
  1.20100000E+01  3.20600000E+01  1.20100000E+01  1.20100000E+01  1.00800000E+00
  1.20100000E+01  1.20100000E+01  1.20100000E+01  1.20100000E+01  1.20100000E+01
  1.00800000E+00  1.20100000E+01  1.20100000E+01  1.00800000E+00  1.00800000E+00
  1.20100000E+01  1.00800000E+00  1.00800000E+00  1.20100000E+01  1.00800000E+00
  1.00800000E+00  1.20100000E+01  1.00800000E+00  1.00800000E+00  1.20100000E+01
  1.20100000E+01  1.00800000E+00  1.00800000E+00  1.20100000E+01  1.20100000E+01
  1.20100000E+01  1.00800000E+00  1.00800000E+00  1.20100000E+01  1.00800000E+00
  1.20100000E+01  1.00800000E+00  1.20100000E+01  1.00800000E+00  1.00800000E+00
  1.20100000E+01  1.00800000E+00  1.00800000E+00  1.20100000E+01  1.00800000E+00
  1.00800000E+00  1.00800000E+00  1.00800000E+00  1.00800000E+00  1.20100000E+01
  1.20100000E+01  1.00800000E+00  1.00800000E+00  1.00800000E+00  1.20100000E+01
  1.00800000E+00  1.00800000E+00  1.00800000E+00  1.00800000E+00  3.20600000E+01
  1.20100000E+01  1.20100000E+01  1.20100000E+01  1.20100000E+01  1.20100000E+01
  3.20600000E+01  1.20100000E+01  1.20100000E+01  1.00800000E+00  1.20100000E+01
  1.20100000E+01  1.20100000E+01  1.20100000E+01  1.20100000E+01  1.00800000E+00
  1.20100000E+01  1.20100000E+01  1.00800000E+00  1.00800000E+00  1.20100000E+01
  1.00800000E+00  1.00800000E+00  1.20100000E+01  1.00800000E+00  1.00800000E+00
  1.20100000E+01  1.00800000E+00  1.00800000E+00  1.20100000E+01  1.20100000E+01
  1.00800000E+00  1.00800000E+00  1.20100000E+01  1.20100000E+01  1.20100000E+01
  1.00800000E+00  1.00800000E+00  1.20100000E+01  1.00800000E+00  1.20100000E+01
  1.00800000E+00  1.20100000E+01  1.00800000E+00  1.00800000E+00  1.20100000E+01
  1.00800000E+00  1.00800000E+00  1.20100000E+01  1.00800000E+00  1.00800000E+00
  1.00800000E+00  1.00800000E+00  1.00800000E+00  1.20100000E+01  1.20100000E+01
  1.00800000E+00  1.00800000E+00  1.00800000E+00  1.20100000E+01  1.00800000E+00
  1.00800000E+00  1.00800000E+00  1.00800000E+00  3.20600000E+01  1.20100000E+01
  1.20100000E+01  1.20100000E+01  1.20100000E+01  1.20100000E+01  3.20600000E+01
  1.20100000E+01  1.20100000E+01  1.00800000E+00  1.20100000E+01  1.20100000E+01
  1.20100000E+01  1.20100000E+01  1.20100000E+01  1.00800000E+00  1.20100000E+01
  1.20100000E+01  1.00800000E+00  1.00800000E+00  1.20100000E+01  1.00800000E+00
  1.00800000E+00  1.20100000E+01  1.00800000E+00  1.00800000E+00  1.20100000E+01
  1.00800000E+00  1.00800000E+00  1.20100000E+01  1.20100000E+01  1.00800000E+00
  1.00800000E+00  1.20100000E+01  1.20100000E+01  1.20100000E+01  1.00800000E+00
  1.00800000E+00  1.20100000E+01  1.00800000E+00  1.20100000E+01  1.00800000E+00
  1.20100000E+01  1.00800000E+00  1.00800000E+00  1.20100000E+01  1.00800000E+00
  1.00800000E+00  1.20100000E+01  1.00800000E+00  1.00800000E+00  1.00800000E+00
  1.00800000E+00  1.00800000E+00  1.20100000E+01  1.20100000E+01  1.00800000E+00
  1.00800000E+00  1.00800000E+00  1.20100000E+01  1.00800000E+00  1.00800000E+00
  1.00800000E+00  1.00800000E+00
%FLAG ATOM_TYPE_INDEX                                                           
%FORMAT(10I8)                                                                   
       1       2       3       2       2       2       1       2       2       4
       2       2       2       2       3       4       2       2       4       4
       3       5       5       2       4       4       3       5       5       2
       3       5       5       2       2       3       5       5       2       4
       2       4       3       5       5       2       4       4       3       5
       5       4       5       5       3       3       5       5       5       3
       5       5       5       5       1       2       3       2       2       2
       1       2       2       4       2       2       2       2       3       4
       2       2       4       4       3       5       5       2       4       4
       3       5       5       2       3       5       5       2       2       3
       5       5       2       4       2       4       3       5       5       2
       4       4       3       5       5       4       5       5       3       3
       5       5       5       3       5       5       5       5       1       2
       3       2       2       2       1       2       2       4       2       2
       2       2       3       4       2       2       4       4       3       5
       5       2       4       4       3       5       5       2       3       5
       5       2       2       3       5       5       2       4       2       4
       3       5       5       2       4       4       3       5       5       4
       5       5       3       3       5       5       5       3       5       5
       5       5       1       2       3       2       2       2       1       2
       2       4       2       2       2       2       3       4       2       2
       4       4       3       5       5       2       4       4       3       5
       5       2       3       5       5       2       2       3       5       5
       2       4       2       4       3       5       5       2       4       4
       3       5       5       4       5       5       3       3       5       5
       5       3       5       5       5       5       1       2       3       2
       2       2       1       2       2       4       2       2       2       2
       3       4       2       2       4       4       3       5       5       2
       4       4       3       5       5       2       3       5       5       2
       2       3       5       5       2       4       2       4       3       5
       5       2       4       4       3       5       5       4       5       5
       3       3       5       5       5       3       5       5       5       5
       1       2       3       2       2       2       1       2       2       4
       2       2       2       2       3       4       2       2       4       4
       3       5       5       2       4       4       3       5       5       2
       3       5       5       2       2       3       5       5       2       4
       2       4       3       5       5       2       4       4       3       5
       5       4       5       5       3       3       5       5       5       3
       5       5       5       5       1       2       3       2       2       2
       1       2       2       4       2       2       2       2       3       4
       2       2       4       4       3       5       5       2       4       4
       3       5       5       2       3       5       5       2       2       3
       5       5       2       4       2       4       3       5       5       2
       4       4       3       5       5       4       5       5       3       3
       5       5       5       3       5       5       5       5       1       2
       3       2       2       2       1       2       2       4       2       2
       2       2       3       4       2       2       4       4       3       5
       5       2       4       4       3       5       5       2       3       5
       5       2       2       3       5       5       2       4       2       4
       3       5       5       2       4       4       3       5       5       4
       5       5       3       3       5       5       5       3       5       5
       5       5       1       2       3       2       2       2       1       2
       2       4       2       2       2       2       3       4       2       2
       4       4       3       5       5       2       4       4       3       5
       5       2       3       5       5       2       2       3       5       5
       2       4       2       4       3       5       5       2       4       4
       3       5       5       4       5       5       3       3       5       5
       5       3       5       5       5       5       1       2       3       2
       2       2       1       2       2       4       2       2       2       2
       3       4       2       2       4       4       3       5       5       2
       4       4       3       5       5       2       3       5       5       2
       2       3       5       5       2       4       2       4       3       5
       5       2       4       4       3       5       5       4       5       5
       3       3       5       5       5       3       5       5       5       5
       1       2       3       2       2       2       1       2       2       4
       2       2       2       2       3       4       2       2       4       4
       3       5       5       2       4       4       3       5       5       2
       3       5       5       2       2       3       5       5       2       4
       2       4       3       5       5       2       4       4       3       5
       5       4       5       5       3       3       5       5       5       3
       5       5       5       5       1       2       3       2       2       2
       1       2       2       4       2       2       2       2       3       4
       2       2       4       4       3       5       5       2       4       4
       3       5       5       2       3       5       5       2       2       3
       5       5       2       4       2       4       3       5       5       2
       4       4       3       5       5       4       5       5       3       3
       5       5       5       3       5       5       5       5       1       2
       3       2       2       2       1       2       2       4       2       2
       2       2       3       4       2       2       4       4       3       5
       5       2       4       4       3       5       5       2       3       5
       5       2       2       3       5       5       2       4       2       4
       3       5       5       2       4       4       3       5       5       4
       5       5       3       3       5       5       5       3       5       5
       5       5       1       2       3       2       2       2       1       2
       2       4       2       2       2       2       3       4       2       2
       4       4       3       5       5       2       4       4       3       5
       5       2       3       5       5       2       2       3       5       5
       2       4       2       4       3       5       5       2       4       4
       3       5       5       4       5       5       3       3       5       5
       5       3       5       5       5       5       1       2       3       2
       2       2       1       2       2       4       2       2       2       2
       3       4       2       2       4       4       3       5       5       2
       4       4       3       5       5       2       3       5       5       2
       2       3       5       5       2       4       2       4       3       5
       5       2       4       4       3       5       5       4       5       5
       3       3       5       5       5       3       5       5       5       5
       1       2       3       2       2       2       1       2       2       4
       2       2       2       2       3       4       2       2       4       4
       3       5       5       2       4       4       3       5       5       2
       3       5       5       2       2       3       5       5       2       4
       2       4       3       5       5       2       4       4       3       5
       5       4       5       5       3       3       5       5       5       3
       5       5       5       5       1       2       3       2       2       2
       1       2       2       4       2       2       2       2       3       4
       2       2       4       4       3       5       5       2       4       4
       3       5       5       2       3       5       5       2       2       3
       5       5       2       4       2       4       3       5       5       2
       4       4       3       5       5       4       5       5       3       3
       5       5       5       3       5       5       5       5       1       2
       3       2       2       2       1       2       2       4       2       2
       2       2       3       4       2       2       4       4       3       5
       5       2       4       4       3       5       5       2       3       5
       5       2       2       3       5       5       2       4       2       4
       3       5       5       2       4       4       3       5       5       4
       5       5       3       3       5       5       5       3       5       5
       5       5       1       2       3       2       2       2       1       2
       2       4       2       2       2       2       3       4       2       2
       4       4       3       5       5       2       4       4       3       5
       5       2       3       5       5       2       2       3       5       5
       2       4       2       4       3       5       5       2       4       4
       3       5       5       4       5       5       3       3       5       5
       5       3       5       5       5       5       1       2       3       2
       2       2       1       2       2       4       2       2       2       2
       3       4       2       2       4       4       3       5       5       2
       4       4       3       5       5       2       3       5       5       2
       2       3       5       5       2       4       2       4       3       5
       5       2       4       4       3       5       5       4       5       5
       3       3       5       5       5       3       5       5       5       5
       1       2       3       2       2       2       1       2       2       4
       2       2       2       2       3       4       2       2       4       4
       3       5       5       2       4       4       3       5       5       2
       3       5       5       2       2       3       5       5       2       4
       2       4       3       5       5       2       4       4       3       5
       5       4       5       5       3       3       5       5       5       3
       5       5       5       5       1       2       3       2       2       2
       1       2       2       4       2       2       2       2       3       4
       2       2       4       4       3       5       5       2       4       4
       3       5       5       2       3       5       5       2       2       3
       5       5       2       4       2       4       3       5       5       2
       4       4       3       5       5       4       5       5       3       3
       5       5       5       3       5       5       5       5       1       2
       3       2       2       2       1       2       2       4       2       2
       2       2       3       4       2       2       4       4       3       5
       5       2       4       4       3       5       5       2       3       5
       5       2       2       3       5       5       2       4       2       4
       3       5       5       2       4       4       3       5       5       4
       5       5       3       3       5       5       5       3       5       5
       5       5       1       2       3       2       2       2       1       2
       2       4       2       2       2       2       3       4       2       2
       4       4       3       5       5       2       4       4       3       5
       5       2       3       5       5       2       2       3       5       5
       2       4       2       4       3       5       5       2       4       4
       3       5       5       4       5       5       3       3       5       5
       5       3       5       5       5       5       1       2       3       2
       2       2       1       2       2       4       2       2       2       2
       3       4       2       2       4       4       3       5       5       2
       4       4       3       5       5       2       3       5       5       2
       2       3       5       5       2       4       2       4       3       5
       5       2       4       4       3       5       5       4       5       5
       3       3       5       5       5       3       5       5       5       5
       1       2       3       2       2       2       1       2       2       4
       2       2       2       2       3       4       2       2       4       4
       3       5       5       2       4       4       3       5       5       2
       3       5       5       2       2       3       5       5       2       4
       2       4       3       5       5       2       4       4       3       5
       5       4       5       5       3       3       5       5       5       3
       5       5       5       5       1       2       3       2       2       2
       1       2       2       4       2       2       2       2       3       4
       2       2       4       4       3       5       5       2       4       4
       3       5       5       2       3       5       5       2       2       3
       5       5       2       4       2       4       3       5       5       2
       4       4       3       5       5       4       5       5       3       3
       5       5       5       3       5       5       5       5       1       2
       3       2       2       2       1       2       2       4       2       2
       2       2       3       4       2       2       4       4       3       5
       5       2       4       4       3       5       5       2       3       5
       5       2       2       3       5       5       2       4       2       4
       3       5       5       2       4       4       3       5       5       4
       5       5       3       3       5       5       5       3       5       5
       5       5       1       2       3       2       2       2       1       2
       2       4       2       2       2       2       3       4       2       2
       4       4       3       5       5       2       4       4       3       5
       5       2       3       5       5       2       2       3       5       5
       2       4       2       4       3       5       5       2       4       4
       3       5       5       4       5       5       3       3       5       5
       5       3       5       5       5       5       1       2       3       2
       2       2       1       2       2       4       2       2       2       2
       3       4       2       2       4       4       3       5       5       2
       4       4       3       5       5       2       3       5       5       2
       2       3       5       5       2       4       2       4       3       5
       5       2       4       4       3       5       5       4       5       5
       3       3       5       5       5       3       5       5       5       5
       1       2       3       2       2       2       1       2       2       4
       2       2       2       2       3       4       2       2       4       4
       3       5       5       2       4       4       3       5       5       2
       3       5       5       2       2       3       5       5       2       4
       2       4       3       5       5       2       4       4       3       5
       5       4       5       5       3       3       5       5       5       3
       5       5       5       5       1       2       3       2       2       2
       1       2       2       4       2       2       2       2       3       4
       2       2       4       4       3       5       5       2       4       4
       3       5       5       2       3       5       5       2       2       3
       5       5       2       4       2       4       3       5       5       2
       4       4       3       5       5       4       5       5       3       3
       5       5       5       3       5       5       5       5       1       2
       3       2       2       2       1       2       2       4       2       2
       2       2       3       4       2       2       4       4       3       5
       5       2       4       4       3       5       5       2       3       5
       5       2       2       3       5       5       2       4       2       4
       3       5       5       2       4       4       3       5       5       4
       5       5       3       3       5       5       5       3       5       5
       5       5       1       2       3       2       2       2       1       2
       2       4       2       2       2       2       3       4       2       2
       4       4       3       5       5       2       4       4       3       5
       5       2       3       5       5       2       2       3       5       5
       2       4       2       4       3       5       5       2       4       4
       3       5       5       4       5       5       3       3       5       5
       5       3       5       5       5       5       1       2       3       2
       2       2       1       2       2       4       2       2       2       2
       3       4       2       2       4       4       3       5       5       2
       4       4       3       5       5       2       3       5       5       2
       2       3       5       5       2       4       2       4       3       5
       5       2       4       4       3       5       5       4       5       5
       3       3       5       5       5       3       5       5       5       5
       1       2       3       2       2       2       1       2       2       4
       2       2       2       2       3       4       2       2       4       4
       3       5       5       2       4       4       3       5       5       2
       3       5       5       2       2       3       5       5       2       4
       2       4       3       5       5       2       4       4       3       5
       5       4       5       5       3       3       5       5       5       3
       5       5       5       5       1       2       3       2       2       2
       1       2       2       4       2       2       2       2       3       4
       2       2       4       4       3       5       5       2       4       4
       3       5       5       2       3       5       5       2       2       3
       5       5       2       4       2       4       3       5       5       2
       4       4       3       5       5       4       5       5       3       3
       5       5       5       3       5       5       5       5       1       2
       3       2       2       2       1       2       2       4       2       2
       2       2       3       4       2       2       4       4       3       5
       5       2       4       4       3       5       5       2       3       5
       5       2       2       3       5       5       2       4       2       4
       3       5       5       2       4       4       3       5       5       4
       5       5       3       3       5       5       5       3       5       5
       5       5       1       2       3       2       2       2       1       2
       2       4       2       2       2       2       3       4       2       2
       4       4       3       5       5       2       4       4       3       5
       5       2       3       5       5       2       2       3       5       5
       2       4       2       4       3       5       5       2       4       4
       3       5       5       4       5       5       3       3       5       5
       5       3       5       5       5       5       1       2       3       2
       2       2       1       2       2       4       2       2       2       2
       3       4       2       2       4       4       3       5       5       2
       4       4       3       5       5       2       3       5       5       2
       2       3       5       5       2       4       2       4       3       5
       5       2       4       4       3       5       5       4       5       5
       3       3       5       5       5       3       5       5       5       5
       1       2       3       2       2       2       1       2       2       4
       2       2       2       2       3       4       2       2       4       4
       3       5       5       2       4       4       3       5       5       2
       3       5       5       2       2       3       5       5       2       4
       2       4       3       5       5       2       4       4       3       5
       5       4       5       5       3       3       5       5       5       3
       5       5       5       5       1       2       3       2       2       2
       1       2       2       4       2       2       2       2       3       4
       2       2       4       4       3       5       5       2       4       4
       3       5       5       2       3       5       5       2       2       3
       5       5       2       4       2       4       3       5       5       2
       4       4       3       5       5       4       5       5       3       3
       5       5       5       3       5       5       5       5       1       2
       3       2       2       2       1       2       2       4       2       2
       2       2       3       4       2       2       4       4       3       5
       5       2       4       4       3       5       5       2       3       5
       5       2       2       3       5       5       2       4       2       4
       3       5       5       2       4       4       3       5       5       4
       5       5       3       3       5       5       5       3       5       5
       5       5       1       2       3       2       2       2       1       2
       2       4       2       2       2       2       3       4       2       2
       4       4       3       5       5       2       4       4       3       5
       5       2       3       5       5       2       2       3       5       5
       2       4       2       4       3       5       5       2       4       4
       3       5       5       4       5       5       3       3       5       5
       5       3       5       5       5       5       1       2       3       2
       2       2       1       2       2       4       2       2       2       2
       3       4       2       2       4       4       3       5       5       2
       4       4       3       5       5       2       3       5       5       2
       2       3       5       5       2       4       2       4       3       5
       5       2       4       4       3       5       5       4       5       5
       3       3       5       5       5       3       5       5       5       5
       1       2       3       2       2       2       1       2       2       4
       2       2       2       2       3       4       2       2       4       4
       3       5       5       2       4       4       3       5       5       2
       3       5       5       2       2       3       5       5       2       4
       2       4       3       5       5       2       4       4       3       5
       5       4       5       5       3       3       5       5       5       3
       5       5       5       5       1       2       3       2       2       2
       1       2       2       4       2       2       2       2       3       4
       2       2       4       4       3       5       5       2       4       4
       3       5       5       2       3       5       5       2       2       3
       5       5       2       4       2       4       3       5       5       2
       4       4       3       5       5       4       5       5       3       3
       5       5       5       3       5       5       5       5       1       2
       3       2       2       2       1       2       2       4       2       2
       2       2       3       4       2       2       4       4       3       5
       5       2       4       4       3       5       5       2       3       5
       5       2       2       3       5       5       2       4       2       4
       3       5       5       2       4       4       3       5       5       4
       5       5       3       3       5       5       5       3       5       5
       5       5       1       2       3       2       2       2       1       2
       2       4       2       2       2       2       3       4       2       2
       4       4       3       5       5       2       4       4       3       5
       5       2       3       5       5       2       2       3       5       5
       2       4       2       4       3       5       5       2       4       4
       3       5       5       4       5       5       3       3       5       5
       5       3       5       5       5       5       1       2       3       2
       2       2       1       2       2       4       2       2       2       2
       3       4       2       2       4       4       3       5       5       2
       4       4       3       5       5       2       3       5       5       2
       2       3       5       5       2       4       2       4       3       5
       5       2       4       4       3       5       5       4       5       5
       3       3       5       5       5       3       5       5       5       5
       1       2       3       2       2       2       1       2       2       4
       2       2       2       2       3       4       2       2       4       4
       3       5       5       2       4       4       3       5       5       2
       3       5       5       2       2       3       5       5       2       4
       2       4       3       5       5       2       4       4       3       5
       5       4       5       5       3       3       5       5       5       3
       5       5       5       5       1       2       3       2       2       2
       1       2       2       4       2       2       2       2       3       4
       2       2       4       4       3       5       5       2       4       4
       3       5       5       2       3       5       5       2       2       3
       5       5       2       4       2       4       3       5       5       2
       4       4       3       5       5       4       5       5       3       3
       5       5       5       3       5       5       5       5       1       2
       3       2       2       2       1       2       2       4       2       2
       2       2       3       4       2       2       4       4       3       5
       5       2       4       4       3       5       5       2       3       5
       5       2       2       3       5       5       2       4       2       4
       3       5       5       2       4       4       3       5       5       4
       5       5       3       3       5       5       5       3       5       5
       5       5       1       2       3       2       2       2       1       2
       2       4       2       2       2       2       3       4       2       2
       4       4       3       5       5       2       4       4       3       5
       5       2       3       5       5       2       2       3       5       5
       2       4       2       4       3       5       5       2       4       4
       3       5       5       4       5       5       3       3       5       5
       5       3       5       5       5       5       1       2       3       2
       2       2       1       2       2       4       2       2       2       2
       3       4       2       2       4       4       3       5       5       2
       4       4       3       5       5       2       3       5       5       2
       2       3       5       5       2       4       2       4       3       5
       5       2       4       4       3       5       5       4       5       5
       3       3       5       5       5       3       5       5       5       5
       1       2       3       2       2       2       1       2       2       4
       2       2       2       2       3       4       2       2       4       4
       3       5       5       2       4       4       3       5       5       2
       3       5       5       2       2       3       5       5       2       4
       2       4       3       5       5       2       4       4       3       5
       5       4       5       5       3       3       5       5       5       3
       5       5       5       5       1       2       3       2       2       2
       1       2       2       4       2       2       2       2       3       4
       2       2       4       4       3       5       5       2       4       4
       3       5       5       2       3       5       5       2       2       3
       5       5       2       4       2       4       3       5       5       2
       4       4       3       5       5       4       5       5       3       3
       5       5       5       3       5       5       5       5       1       2
       3       2       2       2       1       2       2       4       2       2
       2       2       3       4       2       2       4       4       3       5
       5       2       4       4       3       5       5       2       3       5
       5       2       2       3       5       5       2       4       2       4
       3       5       5       2       4       4       3       5       5       4
       5       5       3       3       5       5       5       3       5       5
       5       5       1       2       3       2       2       2       1       2
       2       4       2       2       2       2       3       4       2       2
       4       4       3       5       5       2       4       4       3       5
       5       2       3       5       5       2       2       3       5       5
       2       4       2       4       3       5       5       2       4       4
       3       5       5       4       5       5       3       3       5       5
       5       3       5       5       5       5       1       2       3       2
       2       2       1       2       2       4       2       2       2       2
       3       4       2       2       4       4       3       5       5       2
       4       4       3       5       5       2       3       5       5       2
       2       3       5       5       2       4       2       4       3       5
       5       2       4       4       3       5       5       4       5       5
       3       3       5       5       5       3       5       5       5       5
       1       2       3       2       2       2       1       2       2       4
       2       2       2       2       3       4       2       2       4       4
       3       5       5       2       4       4       3       5       5       2
       3       5       5       2       2       3       5       5       2       4
       2       4       3       5       5       2       4       4       3       5
       5       4       5       5       3       3       5       5       5       3
       5       5       5       5       1       2       3       2       2       2
       1       2       2       4       2       2       2       2       3       4
       2       2       4       4       3       5       5       2       4       4
       3       5       5       2       3       5       5       2       2       3
       5       5       2       4       2       4       3       5       5       2
       4       4       3       5       5       4       5       5       3       3
       5       5       5       3       5       5       5       5       1       2
       3       2       2       2       1       2       2       4       2       2
       2       2       3       4       2       2       4       4       3       5
       5       2       4       4       3       5       5       2       3       5
       5       2       2       3       5       5       2       4       2       4
       3       5       5       2       4       4       3       5       5       4
       5       5       3       3       5       5       5       3       5       5
       5       5       1       2       3       2       2       2       1       2
       2       4       2       2       2       2       3       4       2       2
       4       4       3       5       5       2       4       4       3       5
       5       2       3       5       5       2       2       3       5       5
       2       4       2       4       3       5       5       2       4       4
       3       5       5       4       5       5       3       3       5       5
       5       3       5       5       5       5       1       2       3       2
       2       2       1       2       2       4       2       2       2       2
       3       4       2       2       4       4       3       5       5       2
       4       4       3       5       5       2       3       5       5       2
       2       3       5       5       2       4       2       4       3       5
       5       2       4       4       3       5       5       4       5       5
       3       3       5       5       5       3       5       5       5       5
       1       2       3       2       2       2       1       2       2       4
       2       2       2       2       3       4       2       2       4       4
       3       5       5       2       4       4       3       5       5       2
       3       5       5       2       2       3       5       5       2       4
       2       4       3       5       5       2       4       4       3       5
       5       4       5       5       3       3       5       5       5       3
       5       5       5       5       1       2       3       2       2       2
       1       2       2       4       2       2       2       2       3       4
       2       2       4       4       3       5       5       2       4       4
       3       5       5       2       3       5       5       2       2       3
       5       5       2       4       2       4       3       5       5       2
       4       4       3       5       5       4       5       5       3       3
       5       5       5       3       5       5       5       5       1       2
       3       2       2       2       1       2       2       4       2       2
       2       2       3       4       2       2       4       4       3       5
       5       2       4       4       3       5       5       2       3       5
       5       2       2       3       5       5       2       4       2       4
       3       5       5       2       4       4       3       5       5       4
       5       5       3       3       5       5       5       3       5       5
       5       5       1       2       3       2       2       2       1       2
       2       4       2       2       2       2       3       4       2       2
       4       4       3       5       5       2       4       4       3       5
       5       2       3       5       5       2       2       3       5       5
       2       4       2       4       3       5       5       2       4       4
       3       5       5       4       5       5       3       3       5       5
       5       3       5       5       5       5       1       2       3       2
       2       2       1       2       2       4       2       2       2       2
       3       4       2       2       4       4       3       5       5       2
       4       4       3       5       5       2       3       5       5       2
       2       3       5       5       2       4       2       4       3       5
       5       2       4       4       3       5       5       4       5       5
       3       3       5       5       5       3       5       5       5       5
       1       2       3       2       2       2       1       2       2       4
       2       2       2       2       3       4       2       2       4       4
       3       5       5       2       4       4       3       5       5       2
       3       5       5       2       2       3       5       5       2       4
       2       4       3       5       5       2       4       4       3       5
       5       4       5       5       3       3       5       5       5       3
       5       5       5       5       1       2       3       2       2       2
       1       2       2       4       2       2       2       2       3       4
       2       2       4       4       3       5       5       2       4       4
       3       5       5       2       3       5       5       2       2       3
       5       5       2       4       2       4       3       5       5       2
       4       4       3       5       5       4       5       5       3       3
       5       5       5       3       5       5       5       5       1       2
       3       2       2       2       1       2       2       4       2       2
       2       2       3       4       2       2       4       4       3       5
       5       2       4       4       3       5       5       2       3       5
       5       2       2       3       5       5       2       4       2       4
       3       5       5       2       4       4       3       5       5       4
       5       5       3       3       5       5       5       3       5       5
       5       5       1       2       3       2       2       2       1       2
       2       4       2       2       2       2       3       4       2       2
       4       4       3       5       5       2       4       4       3       5
       5       2       3       5       5       2       2       3       5       5
       2       4       2       4       3       5       5       2       4       4
       3       5       5       4       5       5       3       3       5       5
       5       3       5       5       5       5       1       2       3       2
       2       2       1       2       2       4       2       2       2       2
       3       4       2       2       4       4       3       5       5       2
       4       4       3       5       5       2       3       5       5       2
       2       3       5       5       2       4       2       4       3       5
       5       2       4       4       3       5       5       4       5       5
       3       3       5       5       5       3       5       5       5       5
       1       2       3       2       2       2       1       2       2       4
       2       2       2       2       3       4       2       2       4       4
       3       5       5       2       4       4       3       5       5       2
       3       5       5       2       2       3       5       5       2       4
       2       4       3       5       5       2       4       4       3       5
       5       4       5       5       3       3       5       5       5       3
       5       5       5       5       1       2       3       2       2       2
       1       2       2       4       2       2       2       2       3       4
       2       2       4       4       3       5       5       2       4       4
       3       5       5       2       3       5       5       2       2       3
       5       5       2       4       2       4       3       5       5       2
       4       4       3       5       5       4       5       5       3       3
       5       5       5       3       5       5       5       5       1       2
       3       2       2       2       1       2       2       4       2       2
       2       2       3       4       2       2       4       4       3       5
       5       2       4       4       3       5       5       2       3       5
       5       2       2       3       5       5       2       4       2       4
       3       5       5       2       4       4       3       5       5       4
       5       5       3       3       5       5       5       3       5       5
       5       5       1       2       3       2       2       2       1       2
       2       4       2       2       2       2       3       4       2       2
       4       4       3       5       5       2       4       4       3       5
       5       2       3       5       5       2       2       3       5       5
       2       4       2       4       3       5       5       2       4       4
       3       5       5       4       5       5       3       3       5       5
       5       3       5       5       5       5       1       2       3       2
       2       2       1       2       2       4       2       2       2       2
       3       4       2       2       4       4       3       5       5       2
       4       4       3       5       5       2       3       5       5       2
       2       3       5       5       2       4       2       4       3       5
       5       2       4       4       3       5       5       4       5       5
       3       3       5       5       5       3       5       5       5       5
       1       2       3       2       2       2       1       2       2       4
       2       2       2       2       3       4       2       2       4       4
       3       5       5       2       4       4       3       5       5       2
       3       5       5       2       2       3       5       5       2       4
       2       4       3       5       5       2       4       4       3       5
       5       4       5       5       3       3       5       5       5       3
       5       5       5       5       1       2       3       2       2       2
       1       2       2       4       2       2       2       2       3       4
       2       2       4       4       3       5       5       2       4       4
       3       5       5       2       3       5       5       2       2       3
       5       5       2       4       2       4       3       5       5       2
       4       4       3       5       5       4       5       5       3       3
       5       5       5       3       5       5       5       5       1       2
       3       2       2       2       1       2       2       4       2       2
       2       2       3       4       2       2       4       4       3       5
       5       2       4       4       3       5       5       2       3       5
       5       2       2       3       5       5       2       4       2       4
       3       5       5       2       4       4       3       5       5       4
       5       5       3       3       5       5       5       3       5       5
       5       5       1       2       3       2       2       2       1       2
       2       4       2       2       2       2       3       4       2       2
       4       4       3       5       5       2       4       4       3       5
       5       2       3       5       5       2       2       3       5       5
       2       4       2       4       3       5       5       2       4       4
       3       5       5       4       5       5       3       3       5       5
       5       3       5       5       5       5       1       2       3       2
       2       2       1       2       2       4       2       2       2       2
       3       4       2       2       4       4       3       5       5       2
       4       4       3       5       5       2       3       5       5       2
       2       3       5       5       2       4       2       4       3       5
       5       2       4       4       3       5       5       4       5       5
       3       3       5       5       5       3       5       5       5       5
       1       2       3       2       2       2       1       2       2       4
       2       2       2       2       3       4       2       2       4       4
       3       5       5       2       4       4       3       5       5       2
       3       5       5       2       2       3       5       5       2       4
       2       4       3       5       5       2       4       4       3       5
       5       4       5       5       3       3       5       5       5       3
       5       5       5       5       1       2       3       2       2       2
       1       2       2       4       2       2       2       2       3       4
       2       2       4       4       3       5       5       2       4       4
       3       5       5       2       3       5       5       2       2       3
       5       5       2       4       2       4       3       5       5       2
       4       4       3       5       5       4       5       5       3       3
       5       5       5       3       5       5       5       5       1       2
       3       2       2       2       1       2       2       4       2       2
       2       2       3       4       2       2       4       4       3       5
       5       2       4       4       3       5       5       2       3       5
       5       2       2       3       5       5       2       4       2       4
       3       5       5       2       4       4       3       5       5       4
       5       5       3       3       5       5       5       3       5       5
       5       5       1       2       3       2       2       2       1       2
       2       4       2       2       2       2       3       4       2       2
       4       4       3       5       5       2       4       4       3       5
       5       2       3       5       5       2       2       3       5       5
       2       4       2       4       3       5       5       2       4       4
       3       5       5       4       5       5       3       3       5       5
       5       3       5       5       5       5       1       2       3       2
       2       2       1       2       2       4       2       2       2       2
       3       4       2       2       4       4       3       5       5       2
       4       4       3       5       5       2       3       5       5       2
       2       3       5       5       2       4       2       4       3       5
       5       2       4       4       3       5       5       4       5       5
       3       3       5       5       5       3       5       5       5       5
       1       2       3       2       2       2       1       2       2       4
       2       2       2       2       3       4       2       2       4       4
       3       5       5       2       4       4       3       5       5       2
       3       5       5       2       2       3       5       5       2       4
       2       4       3       5       5       2       4       4       3       5
       5       4       5       5       3       3       5       5       5       3
       5       5       5       5       1       2       3       2       2       2
       1       2       2       4       2       2       2       2       3       4
       2       2       4       4       3       5       5       2       4       4
       3       5       5       2       3       5       5       2       2       3
       5       5       2       4       2       4       3       5       5       2
       4       4       3       5       5       4       5       5       3       3
       5       5       5       3       5       5       5       5       1       2
       3       2       2       2       1       2       2       4       2       2
       2       2       3       4       2       2       4       4       3       5
       5       2       4       4       3       5       5       2       3       5
       5       2       2       3       5       5       2       4       2       4
       3       5       5       2       4       4       3       5       5       4
       5       5       3       3       5       5       5       3       5       5
       5       5       1       2       3       2       2       2       1       2
       2       4       2       2       2       2       3       4       2       2
       4       4       3       5       5       2       4       4       3       5
       5       2       3       5       5       2       2       3       5       5
       2       4       2       4       3       5       5       2       4       4
       3       5       5       4       5       5       3       3       5       5
       5       3       5       5       5       5       1       2       3       2
       2       2       1       2       2       4       2       2       2       2
       3       4       2       2       4       4       3       5       5       2
       4       4       3       5       5       2       3       5       5       2
       2       3       5       5       2       4       2       4       3       5
       5       2       4       4       3       5       5       4       5       5
       3       3       5       5       5       3       5       5       5       5
       1       2       3       2       2       2       1       2       2       4
       2       2       2       2       3       4       2       2       4       4
       3       5       5       2       4       4       3       5       5       2
       3       5       5       2       2       3       5       5       2       4
       2       4       3       5       5       2       4       4       3       5
       5       4       5       5       3       3       5       5       5       3
       5       5       5       5       1       2       3       2       2       2
       1       2       2       4       2       2       2       2       3       4
       2       2       4       4       3       5       5       2       4       4
       3       5       5       2       3       5       5       2       2       3
       5       5       2       4       2       4       3       5       5       2
       4       4       3       5       5       4       5       5       3       3
       5       5       5       3       5       5       5       5       1       2
       3       2       2       2       1       2       2       4       2       2
       2       2       3       4       2       2       4       4       3       5
       5       2       4       4       3       5       5       2       3       5
       5       2       2       3       5       5       2       4       2       4
       3       5       5       2       4       4       3       5       5       4
       5       5       3       3       5       5       5       3       5       5
       5       5       1       2       3       2       2       2       1       2
       2       4       2       2       2       2       3       4       2       2
       4       4       3       5       5       2       4       4       3       5
       5       2       3       5       5       2       2       3       5       5
       2       4       2       4       3       5       5       2       4       4
       3       5       5       4       5       5       3       3       5       5
       5       3       5       5       5       5       1       2       3       2
       2       2       1       2       2       4       2       2       2       2
       3       4       2       2       4       4       3       5       5       2
       4       4       3       5       5       2       3       5       5       2
       2       3       5       5       2       4       2       4       3       5
       5       2       4       4       3       5       5       4       5       5
       3       3       5       5       5       3       5       5       5       5
       1       2       3       2       2       2       1       2       2       4
       2       2       2       2       3       4       2       2       4       4
       3       5       5       2       4       4       3       5       5       2
       3       5       5       2       2       3       5       5       2       4
       2       4       3       5       5       2       4       4       3       5
       5       4       5       5       3       3       5       5       5       3
       5       5       5       5       1       2       3       2       2       2
       1       2       2       4       2       2       2       2       3       4
       2       2       4       4       3       5       5       2       4       4
       3       5       5       2       3       5       5       2       2       3
       5       5       2       4       2       4       3       5       5       2
       4       4       3       5       5       4       5       5       3       3
       5       5       5       3       5       5       5       5       1       2
       3       2       2       2       1       2       2       4       2       2
       2       2       3       4       2       2       4       4       3       5
       5       2       4       4       3       5       5       2       3       5
       5       2       2       3       5       5       2       4       2       4
       3       5       5       2       4       4       3       5       5       4
       5       5       3       3       5       5       5       3       5       5
       5       5       1       2       3       2       2       2       1       2
       2       4       2       2       2       2       3       4       2       2
       4       4       3       5       5       2       4       4       3       5
       5       2       3       5       5       2       2       3       5       5
       2       4       2       4       3       5       5       2       4       4
       3       5       5       4       5       5       3       3       5       5
       5       3       5       5       5       5       1       2       3       2
       2       2       1       2       2       4       2       2       2       2
       3       4       2       2       4       4       3       5       5       2
       4       4       3       5       5       2       3       5       5       2
       2       3       5       5       2       4       2       4       3       5
       5       2       4       4       3       5       5       4       5       5
       3       3       5       5       5       3       5       5       5       5
       1       2       3       2       2       2       1       2       2       4
       2       2       2       2       3       4       2       2       4       4
       3       5       5       2       4       4       3       5       5       2
       3       5       5       2       2       3       5       5       2       4
       2       4       3       5       5       2       4       4       3       5
       5       4       5       5       3       3       5       5       5       3
       5       5       5       5       1       2       3       2       2       2
       1       2       2       4       2       2       2       2       3       4
       2       2       4       4       3       5       5       2       4       4
       3       5       5       2       3       5       5       2       2       3
       5       5       2       4       2       4       3       5       5       2
       4       4       3       5       5       4       5       5       3       3
       5       5       5       3       5       5       5       5       1       2
       3       2       2       2       1       2       2       4       2       2
       2       2       3       4       2       2       4       4       3       5
       5       2       4       4       3       5       5       2       3       5
       5       2       2       3       5       5       2       4       2       4
       3       5       5       2       4       4       3       5       5       4
       5       5       3       3       5       5       5       3       5       5
       5       5       1       2       3       2       2       2       1       2
       2       4       2       2       2       2       3       4       2       2
       4       4       3       5       5       2       4       4       3       5
       5       2       3       5       5       2       2       3       5       5
       2       4       2       4       3       5       5       2       4       4
       3       5       5       4       5       5       3       3       5       5
       5       3       5       5       5       5       1       2       3       2
       2       2       1       2       2       4       2       2       2       2
       3       4       2       2       4       4       3       5       5       2
       4       4       3       5       5       2       3       5       5       2
       2       3       5       5       2       4       2       4       3       5
       5       2       4       4       3       5       5       4       5       5
       3       3       5       5       5       3       5       5       5       5
       1       2       3       2       2       2       1       2       2       4
       2       2       2       2       3       4       2       2       4       4
       3       5       5       2       4       4       3       5       5       2
       3       5       5       2       2       3       5       5       2       4
       2       4       3       5       5       2       4       4       3       5
       5       4       5       5       3       3       5       5       5       3
       5       5       5       5       1       2       3       2       2       2
       1       2       2       4       2       2       2       2       3       4
       2       2       4       4       3       5       5       2       4       4
       3       5       5       2       3       5       5       2       2       3
       5       5       2       4       2       4       3       5       5       2
       4       4       3       5       5       4       5       5       3       3
       5       5       5       3       5       5       5       5       1       2
       3       2       2       2       1       2       2       4       2       2
       2       2       3       4       2       2       4       4       3       5
       5       2       4       4       3       5       5       2       3       5
       5       2       2       3       5       5       2       4       2       4
       3       5       5       2       4       4       3       5       5       4
       5       5       3       3       5       5       5       3       5       5
       5       5       1       2       3       2       2       2       1       2
       2       4       2       2       2       2       3       4       2       2
       4       4       3       5       5       2       4       4       3       5
       5       2       3       5       5       2       2       3       5       5
       2       4       2       4       3       5       5       2       4       4
       3       5       5       4       5       5       3       3       5       5
       5       3       5       5       5       5       1       2       3       2
       2       2       1       2       2       4       2       2       2       2
       3       4       2       2       4       4       3       5       5       2
       4       4       3       5       5       2       3       5       5       2
       2       3       5       5       2       4       2       4       3       5
       5       2       4       4       3       5       5       4       5       5
       3       3       5       5       5       3       5       5       5       5
       1       2       3       2       2       2       1       2       2       4
       2       2       2       2       3       4       2       2       4       4
       3       5       5       2       4       4       3       5       5       2
       3       5       5       2       2       3       5       5       2       4
       2       4       3       5       5       2       4       4       3       5
       5       4       5       5       3       3       5       5       5       3
       5       5       5       5       1       2       3       2       2       2
       1       2       2       4       2       2       2       2       3       4
       2       2       4       4       3       5       5       2       4       4
       3       5       5       2       3       5       5       2       2       3
       5       5       2       4       2       4       3       5       5       2
       4       4       3       5       5       4       5       5       3       3
       5       5       5       3       5       5       5       5       1       2
       3       2       2       2       1       2       2       4       2       2
       2       2       3       4       2       2       4       4       3       5
       5       2       4       4       3       5       5       2       3       5
       5       2       2       3       5       5       2       4       2       4
       3       5       5       2       4       4       3       5       5       4
       5       5       3       3       5       5       5       3       5       5
       5       5       1       2       3       2       2       2       1       2
       2       4       2       2       2       2       3       4       2       2
       4       4       3       5       5       2       4       4       3       5
       5       2       3       5       5       2       2       3       5       5
       2       4       2       4       3       5       5       2       4       4
       3       5       5       4       5       5       3       3       5       5
       5       3       5       5       5       5       1       2       3       2
       2       2       1       2       2       4       2       2       2       2
       3       4       2       2       4       4       3       5       5       2
       4       4       3       5       5       2       3       5       5       2
       2       3       5       5       2       4       2       4       3       5
       5       2       4       4       3       5       5       4       5       5
       3       3       5       5       5       3       5       5       5       5
       1       2       3       2       2       2       1       2       2       4
       2       2       2       2       3       4       2       2       4       4
       3       5       5       2       4       4       3       5       5       2
       3       5       5       2       2       3       5       5       2       4
       2       4       3       5       5       2       4       4       3       5
       5       4       5       5       3       3       5       5       5       3
       5       5       5       5       1       2       3       2       2       2
       1       2       2       4       2       2       2       2       3       4
       2       2       4       4       3       5       5       2       4       4
       3       5       5       2       3       5       5       2       2       3
       5       5       2       4       2       4       3       5       5       2
       4       4       3       5       5       4       5       5       3       3
       5       5       5       3       5       5       5       5       1       2
       3       2       2       2       1       2       2       4       2       2
       2       2       3       4       2       2       4       4       3       5
       5       2       4       4       3       5       5       2       3       5
       5       2       2       3       5       5       2       4       2       4
       3       5       5       2       4       4       3       5       5       4
       5       5       3       3       5       5       5       3       5       5
       5       5       1       2       3       2       2       2       1       2
       2       4       2       2       2       2       3       4       2       2
       4       4       3       5       5       2       4       4       3       5
       5       2       3       5       5       2       2       3       5       5
       2       4       2       4       3       5       5       2       4       4
       3       5       5       4       5       5       3       3       5       5
       5       3       5       5       5       5       1       2       3       2
       2       2       1       2       2       4       2       2       2       2
       3       4       2       2       4       4       3       5       5       2
       4       4       3       5       5       2       3       5       5       2
       2       3       5       5       2       4       2       4       3       5
       5       2       4       4       3       5       5       4       5       5
       3       3       5       5       5       3       5       5       5       5
       1       2       3       2       2       2       1       2       2       4
       2       2       2       2       3       4       2       2       4       4
       3       5       5       2       4       4       3       5       5       2
       3       5       5       2       2       3       5       5       2       4
       2       4       3       5       5       2       4       4       3       5
       5       4       5       5       3       3       5       5       5       3
       5       5       5       5       1       2       3       2       2       2
       1       2       2       4       2       2       2       2       3       4
       2       2       4       4       3       5       5       2       4       4
       3       5       5       2       3       5       5       2       2       3
       5       5       2       4       2       4       3       5       5       2
       4       4       3       5       5       4       5       5       3       3
       5       5       5       3       5       5       5       5       1       2
       3       2       2       2       1       2       2       4       2       2
       2       2       3       4       2       2       4       4       3       5
       5       2       4       4       3       5       5       2       3       5
       5       2       2       3       5       5       2       4       2       4
       3       5       5       2       4       4       3       5       5       4
       5       5       3       3       5       5       5       3       5       5
       5       5       1       2       3       2       2       2       1       2
       2       4       2       2       2       2       3       4       2       2
       4       4       3       5       5       2       4       4       3       5
       5       2       3       5       5       2       2       3       5       5
       2       4       2       4       3       5       5       2       4       4
       3       5       5       4       5       5       3       3       5       5
       5       3       5       5       5       5       1       2       3       2
       2       2       1       2       2       4       2       2       2       2
       3       4       2       2       4       4       3       5       5       2
       4       4       3       5       5       2       3       5       5       2
       2       3       5       5       2       4       2       4       3       5
       5       2       4       4       3       5       5       4       5       5
       3       3       5       5       5       3       5       5       5       5
       1       2       3       2       2       2       1       2       2       4
       2       2       2       2       3       4       2       2       4       4
       3       5       5       2       4       4       3       5       5       2
       3       5       5       2       2       3       5       5       2       4
       2       4       3       5       5       2       4       4       3       5
       5       4       5       5       3       3       5       5       5       3
       5       5       5       5       1       2       3       2       2       2
       1       2       2       4       2       2       2       2       3       4
       2       2       4       4       3       5       5       2       4       4
       3       5       5       2       3       5       5       2       2       3
       5       5       2       4       2       4       3       5       5       2
       4       4       3       5       5       4       5       5       3       3
       5       5       5       3       5       5       5       5       1       2
       3       2       2       2       1       2       2       4       2       2
       2       2       3       4       2       2       4       4       3       5
       5       2       4       4       3       5       5       2       3       5
       5       2       2       3       5       5       2       4       2       4
       3       5       5       2       4       4       3       5       5       4
       5       5       3       3       5       5       5       3       5       5
       5       5       1       2       3       2       2       2       1       2
       2       4       2       2       2       2       3       4       2       2
       4       4       3       5       5       2       4       4       3       5
       5       2       3       5       5       2       2       3       5       5
       2       4       2       4       3       5       5       2       4       4
       3       5       5       4       5       5       3       3       5       5
       5       3       5       5       5       5       1       2       3       2
       2       2       1       2       2       4       2       2       2       2
       3       4       2       2       4       4       3       5       5       2
       4       4       3       5       5       2       3       5       5       2
       2       3       5       5       2       4       2       4       3       5
       5       2       4       4       3       5       5       4       5       5
       3       3       5       5       5       3       5       5       5       5
       1       2       3       2       2       2       1       2       2       4
       2       2       2       2       3       4       2       2       4       4
       3       5       5       2       4       4       3       5       5       2
       3       5       5       2       2       3       5       5       2       4
       2       4       3       5       5       2       4       4       3       5
       5       4       5       5       3       3       5       5       5       3
       5       5       5       5       1       2       3       2       2       2
       1       2       2       4       2       2       2       2       3       4
       2       2       4       4       3       5       5       2       4       4
       3       5       5       2       3       5       5       2       2       3
       5       5       2       4       2       4       3       5       5       2
       4       4       3       5       5       4       5       5       3       3
       5       5       5       3       5       5       5       5       1       2
       3       2       2       2       1       2       2       4       2       2
       2       2       3       4       2       2       4       4       3       5
       5       2       4       4       3       5       5       2       3       5
       5       2       2       3       5       5       2       4       2       4
       3       5       5       2       4       4       3       5       5       4
       5       5       3       3       5       5       5       3       5       5
       5       5       1       2       3       2       2       2       1       2
       2       4       2       2       2       2       3       4       2       2
       4       4       3       5       5       2       4       4       3       5
       5       2       3       5       5       2       2       3       5       5
       2       4       2       4       3       5       5       2       4       4
       3       5       5       4       5       5       3       3       5       5
       5       3       5       5       5       5       1       2       3       2
       2       2       1       2       2       4       2       2       2       2
       3       4       2       2       4       4       3       5       5       2
       4       4       3       5       5       2       3       5       5       2
       2       3       5       5       2       4       2       4       3       5
       5       2       4       4       3       5       5       4       5       5
       3       3       5       5       5       3       5       5       5       5
       1       2       3       2       2       2       1       2       2       4
       2       2       2       2       3       4       2       2       4       4
       3       5       5       2       4       4       3       5       5       2
       3       5       5       2       2       3       5       5       2       4
       2       4       3       5       5       2       4       4       3       5
       5       4       5       5       3       3       5       5       5       3
       5       5       5       5       1       2       3       2       2       2
       1       2       2       4       2       2       2       2       3       4
       2       2       4       4       3       5       5       2       4       4
       3       5       5       2       3       5       5       2       2       3
       5       5       2       4       2       4       3       5       5       2
       4       4       3       5       5       4       5       5       3       3
       5       5       5       3       5       5       5       5       1       2
       3       2       2       2       1       2       2       4       2       2
       2       2       3       4       2       2       4       4       3       5
       5       2       4       4       3       5       5       2       3       5
       5       2       2       3       5       5       2       4       2       4
       3       5       5       2       4       4       3       5       5       4
       5       5       3       3       5       5       5       3       5       5
       5       5       1       2       3       2       2       2       1       2
       2       4       2       2       2       2       3       4       2       2
       4       4       3       5       5       2       4       4       3       5
       5       2       3       5       5       2       2       3       5       5
       2       4       2       4       3       5       5       2       4       4
       3       5       5       4       5       5       3       3       5       5
       5       3       5       5       5       5       1       2       3       2
       2       2       1       2       2       4       2       2       2       2
       3       4       2       2       4       4       3       5       5       2
       4       4       3       5       5       2       3       5       5       2
       2       3       5       5       2       4       2       4       3       5
       5       2       4       4       3       5       5       4       5       5
       3       3       5       5       5       3       5       5       5       5
       1       2       3       2       2       2       1       2       2       4
       2       2       2       2       3       4       2       2       4       4
       3       5       5       2       4       4       3       5       5       2
       3       5       5       2       2       3       5       5       2       4
       2       4       3       5       5       2       4       4       3       5
       5       4       5       5       3       3       5       5       5       3
       5       5       5       5       1       2       3       2       2       2
       1       2       2       4       2       2       2       2       3       4
       2       2       4       4       3       5       5       2       4       4
       3       5       5       2       3       5       5       2       2       3
       5       5       2       4       2       4       3       5       5       2
       4       4       3       5       5       4       5       5       3       3
       5       5       5       3       5       5       5       5       1       2
       3       2       2       2       1       2       2       4       2       2
       2       2       3       4       2       2       4       4       3       5
       5       2       4       4       3       5       5       2       3       5
       5       2       2       3       5       5       2       4       2       4
       3       5       5       2       4       4       3       5       5       4
       5       5       3       3       5       5       5       3       5       5
       5       5       1       2       3       2       2       2       1       2
       2       4       2       2       2       2       3       4       2       2
       4       4       3       5       5       2       4       4       3       5
       5       2       3       5       5       2       2       3       5       5
       2       4       2       4       3       5       5       2       4       4
       3       5       5       4       5       5       3       3       5       5
       5       3       5       5       5       5       1       2       3       2
       2       2       1       2       2       4       2       2       2       2
       3       4       2       2       4       4       3       5       5       2
       4       4       3       5       5       2       3       5       5       2
       2       3       5       5       2       4       2       4       3       5
       5       2       4       4       3       5       5       4       5       5
       3       3       5       5       5       3       5       5       5       5
       1       2       3       2       2       2       1       2       2       4
       2       2       2       2       3       4       2       2       4       4
       3       5       5       2       4       4       3       5       5       2
       3       5       5       2       2       3       5       5       2       4
       2       4       3       5       5       2       4       4       3       5
       5       4       5       5       3       3       5       5       5       3
       5       5       5       5       1       2       3       2       2       2
       1       2       2       4       2       2       2       2       3       4
       2       2       4       4       3       5       5       2       4       4
       3       5       5       2       3       5       5       2       2       3
       5       5       2       4       2       4       3       5       5       2
       4       4       3       5       5       4       5       5       3       3
       5       5       5       3       5       5       5       5       1       2
       3       2       2       2       1       2       2       4       2       2
       2       2       3       4       2       2       4       4       3       5
       5       2       4       4       3       5       5       2       3       5
       5       2       2       3       5       5       2       4       2       4
       3       5       5       2       4       4       3       5       5       4
       5       5       3       3       5       5       5       3       5       5
       5       5       1       2       3       2       2       2       1       2
       2       4       2       2       2       2       3       4       2       2
       4       4       3       5       5       2       4       4       3       5
       5       2       3       5       5       2       2       3       5       5
       2       4       2       4       3       5       5       2       4       4
       3       5       5       4       5       5       3       3       5       5
       5       3       5       5       5       5       1       2       3       2
       2       2       1       2       2       4       2       2       2       2
       3       4       2       2       4       4       3       5       5       2
       4       4       3       5       5       2       3       5       5       2
       2       3       5       5       2       4       2       4       3       5
       5       2       4       4       3       5       5       4       5       5
       3       3       5       5       5       3       5       5       5       5
       1       2       3       2       2       2       1       2       2       4
       2       2       2       2       3       4       2       2       4       4
       3       5       5       2       4       4       3       5       5       2
       3       5       5       2       2       3       5       5       2       4
       2       4       3       5       5       2       4       4       3       5
       5       4       5       5       3       3       5       5       5       3
       5       5       5       5       1       2       3       2       2       2
       1       2       2       4       2       2       2       2       3       4
       2       2       4       4       3       5       5       2       4       4
       3       5       5       2       3       5       5       2       2       3
       5       5       2       4       2       4       3       5       5       2
       4       4       3       5       5       4       5       5       3       3
       5       5       5       3       5       5       5       5       1       2
       3       2       2       2       1       2       2       4       2       2
       2       2       3       4       2       2       4       4       3       5
       5       2       4       4       3       5       5       2       3       5
       5       2       2       3       5       5       2       4       2       4
       3       5       5       2       4       4       3       5       5       4
       5       5       3       3       5       5       5       3       5       5
       5       5       1       2       3       2       2       2       1       2
       2       4       2       2       2       2       3       4       2       2
       4       4       3       5       5       2       4       4       3       5
       5       2       3       5       5       2       2       3       5       5
       2       4       2       4       3       5       5       2       4       4
       3       5       5       4       5       5       3       3       5       5
       5       3       5       5       5       5       1       2       3       2
       2       2       1       2       2       4       2       2       2       2
       3       4       2       2       4       4       3       5       5       2
       4       4       3       5       5       2       3       5       5       2
       2       3       5       5       2       4       2       4       3       5
       5       2       4       4       3       5       5       4       5       5
       3       3       5       5       5       3       5       5       5       5
       1       2       3       2       2       2       1       2       2       4
       2       2       2       2       3       4       2       2       4       4
       3       5       5       2       4       4       3       5       5       2
       3       5       5       2       2       3       5       5       2       4
       2       4       3       5       5       2       4       4       3       5
       5       4       5       5       3       3       5       5       5       3
       5       5       5       5       1       2       3       2       2       2
       1       2       2       4       2       2       2       2       3       4
       2       2       4       4       3       5       5       2       4       4
       3       5       5       2       3       5       5       2       2       3
       5       5       2       4       2       4       3       5       5       2
       4       4       3       5       5       4       5       5       3       3
       5       5       5       3       5       5       5       5       1       2
       3       2       2       2       1       2       2       4       2       2
       2       2       3       4       2       2       4       4       3       5
       5       2       4       4       3       5       5       2       3       5
       5       2       2       3       5       5       2       4       2       4
       3       5       5       2       4       4       3       5       5       4
       5       5       3       3       5       5       5       3       5       5
       5       5       1       2       3       2       2       2       1       2
       2       4       2       2       2       2       3       4       2       2
       4       4       3       5       5       2       4       4       3       5
       5       2       3       5       5       2       2       3       5       5
       2       4       2       4       3       5       5       2       4       4
       3       5       5       4       5       5       3       3       5       5
       5       3       5       5       5       5       1       2       3       2
       2       2       1       2       2       4       2       2       2       2
       3       4       2       2       4       4       3       5       5       2
       4       4       3       5       5       2       3       5       5       2
       2       3       5       5       2       4       2       4       3       5
       5       2       4       4       3       5       5       4       5       5
       3       3       5       5       5       3       5       5       5       5
       1       2       3       2       2       2       1       2       2       4
       2       2       2       2       3       4       2       2       4       4
       3       5       5       2       4       4       3       5       5       2
       3       5       5       2       2       3       5       5       2       4
       2       4       3       5       5       2       4       4       3       5
       5       4       5       5       3       3       5       5       5       3
       5       5       5       5       1       2       3       2       2       2
       1       2       2       4       2       2       2       2       3       4
       2       2       4       4       3       5       5       2       4       4
       3       5       5       2       3       5       5       2       2       3
       5       5       2       4       2       4       3       5       5       2
       4       4       3       5       5       4       5       5       3       3
       5       5       5       3       5       5       5       5       1       2
       3       2       2       2       1       2       2       4       2       2
       2       2       3       4       2       2       4       4       3       5
       5       2       4       4       3       5       5       2       3       5
       5       2       2       3       5       5       2       4       2       4
       3       5       5       2       4       4       3       5       5       4
       5       5       3       3       5       5       5       3       5       5
       5       5       1       2       3       2       2       2       1       2
       2       4       2       2       2       2       3       4       2       2
       4       4       3       5       5       2       4       4       3       5
       5       2       3       5       5       2       2       3       5       5
       2       4       2       4       3       5       5       2       4       4
       3       5       5       4       5       5       3       3       5       5
       5       3       5       5       5       5       1       2       3       2
       2       2       1       2       2       4       2       2       2       2
       3       4       2       2       4       4       3       5       5       2
       4       4       3       5       5       2       3       5       5       2
       2       3       5       5       2       4       2       4       3       5
       5       2       4       4       3       5       5       4       5       5
       3       3       5       5       5       3       5       5       5       5
       1       2       3       2       2       2       1       2       2       4
       2       2       2       2       3       4       2       2       4       4
       3       5       5       2       4       4       3       5       5       2
       3       5       5       2       2       3       5       5       2       4
       2       4       3       5       5       2       4       4       3       5
       5       4       5       5       3       3       5       5       5       3
       5       5       5       5       1       2       3       2       2       2
       1       2       2       4       2       2       2       2       3       4
       2       2       4       4       3       5       5       2       4       4
       3       5       5       2       3       5       5       2       2       3
       5       5       2       4       2       4       3       5       5       2
       4       4       3       5       5       4       5       5       3       3
       5       5       5       3       5       5       5       5       1       2
       3       2       2       2       1       2       2       4       2       2
       2       2       3       4       2       2       4       4       3       5
       5       2       4       4       3       5       5       2       3       5
       5       2       2       3       5       5       2       4       2       4
       3       5       5       2       4       4       3       5       5       4
       5       5       3       3       5       5       5       3       5       5
       5       5       1       2       3       2       2       2       1       2
       2       4       2       2       2       2       3       4       2       2
       4       4       3       5       5       2       4       4       3       5
       5       2       3       5       5       2       2       3       5       5
       2       4       2       4       3       5       5       2       4       4
       3       5       5       4       5       5       3       3       5       5
       5       3       5       5       5       5       1       2       3       2
       2       2       1       2       2       4       2       2       2       2
       3       4       2       2       4       4       3       5       5       2
       4       4       3       5       5       2       3       5       5       2
       2       3       5       5       2       4       2       4       3       5
       5       2       4       4       3       5       5       4       5       5
       3       3       5       5       5       3       5       5       5       5
       1       2       3       2       2       2       1       2       2       4
       2       2       2       2       3       4       2       2       4       4
       3       5       5       2       4       4       3       5       5       2
       3       5       5       2       2       3       5       5       2       4
       2       4       3       5       5       2       4       4       3       5
       5       4       5       5       3       3       5       5       5       3
       5       5       5       5       1       2       3       2       2       2
       1       2       2       4       2       2       2       2       3       4
       2       2       4       4       3       5       5       2       4       4
       3       5       5       2       3       5       5       2       2       3
       5       5       2       4       2       4       3       5       5       2
       4       4       3       5       5       4       5       5       3       3
       5       5       5       3       5       5       5       5       1       2
       3       2       2       2       1       2       2       4       2       2
       2       2       3       4       2       2       4       4       3       5
       5       2       4       4       3       5       5       2       3       5
       5       2       2       3       5       5       2       4       2       4
       3       5       5       2       4       4       3       5       5       4
       5       5       3       3       5       5       5       3       5       5
       5       5       1       2       3       2       2       2       1       2
       2       4       2       2       2       2       3       4       2       2
       4       4       3       5       5       2       4       4       3       5
       5       2       3       5       5       2       2       3       5       5
       2       4       2       4       3       5       5       2       4       4
       3       5       5       4       5       5       3       3       5       5
       5       3       5       5       5       5       1       2       3       2
       2       2       1       2       2       4       2       2       2       2
       3       4       2       2       4       4       3       5       5       2
       4       4       3       5       5       2       3       5       5       2
       2       3       5       5       2       4       2       4       3       5
       5       2       4       4       3       5       5       4       5       5
       3       3       5       5       5       3       5       5       5       5
       1       2       3       2       2       2       1       2       2       4
       2       2       2       2       3       4       2       2       4       4
       3       5       5       2       4       4       3       5       5       2
       3       5       5       2       2       3       5       5       2       4
       2       4       3       5       5       2       4       4       3       5
       5       4       5       5       3       3       5       5       5       3
       5       5       5       5       1       2       3       2       2       2
       1       2       2       4       2       2       2       2       3       4
       2       2       4       4       3       5       5       2       4       4
       3       5       5       2       3       5       5       2       2       3
       5       5       2       4       2       4       3       5       5       2
       4       4       3       5       5       4       5       5       3       3
       5       5       5       3       5       5       5       5       1       2
       3       2       2       2       1       2       2       4       2       2
       2       2       3       4       2       2       4       4       3       5
       5       2       4       4       3       5       5       2       3       5
       5       2       2       3       5       5       2       4       2       4
       3       5       5       2       4       4       3       5       5       4
       5       5       3       3       5       5       5       3       5       5
       5       5       1       2       3       2       2       2       1       2
       2       4       2       2       2       2       3       4       2       2
       4       4       3       5       5       2       4       4       3       5
       5       2       3       5       5       2       2       3       5       5
       2       4       2       4       3       5       5       2       4       4
       3       5       5       4       5       5       3       3       5       5
       5       3       5       5       5       5       1       2       3       2
       2       2       1       2       2       4       2       2       2       2
       3       4       2       2       4       4       3       5       5       2
       4       4       3       5       5       2       3       5       5       2
       2       3       5       5       2       4       2       4       3       5
       5       2       4       4       3       5       5       4       5       5
       3       3       5       5       5       3       5       5       5       5
       1       2       3       2       2       2       1       2       2       4
       2       2       2       2       3       4       2       2       4       4
       3       5       5       2       4       4       3       5       5       2
       3       5       5       2       2       3       5       5       2       4
       2       4       3       5       5       2       4       4       3       5
       5       4       5       5       3       3       5       5       5       3
       5       5       5       5       1       2       3       2       2       2
       1       2       2       4       2       2       2       2       3       4
       2       2       4       4       3       5       5       2       4       4
       3       5       5       2       3       5       5       2       2       3
       5       5       2       4       2       4       3       5       5       2
       4       4       3       5       5       4       5       5       3       3
       5       5       5       3       5       5       5       5       1       2
       3       2       2       2       1       2       2       4       2       2
       2       2       3       4       2       2       4       4       3       5
       5       2       4       4       3       5       5       2       3       5
       5       2       2       3       5       5       2       4       2       4
       3       5       5       2       4       4       3       5       5       4
       5       5       3       3       5       5       5       3       5       5
       5       5       1       2       3       2       2       2       1       2
       2       4       2       2       2       2       3       4       2       2
       4       4       3       5       5       2       4       4       3       5
       5       2       3       5       5       2       2       3       5       5
       2       4       2       4       3       5       5       2       4       4
       3       5       5       4       5       5       3       3       5       5
       5       3       5       5       5       5       1       2       3       2
       2       2       1       2       2       4       2       2       2       2
       3       4       2       2       4       4       3       5       5       2
       4       4       3       5       5       2       3       5       5       2
       2       3       5       5       2       4       2       4       3       5
       5       2       4       4       3       5       5       4       5       5
       3       3       5       5       5       3       5       5       5       5
       1       2       3       2       2       2       1       2       2       4
       2       2       2       2       3       4       2       2       4       4
       3       5       5       2       4       4       3       5       5       2
       3       5       5       2       2       3       5       5       2       4
       2       4       3       5       5       2       4       4       3       5
       5       4       5       5       3       3       5       5       5       3
       5       5       5       5       1       2       3       2       2       2
       1       2       2       4       2       2       2       2       3       4
       2       2       4       4       3       5       5       2       4       4
       3       5       5       2       3       5       5       2       2       3
       5       5       2       4       2       4       3       5       5       2
       4       4       3       5       5       4       5       5       3       3
       5       5       5       3       5       5       5       5       1       2
       3       2       2       2       1       2       2       4       2       2
       2       2       3       4       2       2       4       4       3       5
       5       2       4       4       3       5       5       2       3       5
       5       2       2       3       5       5       2       4       2       4
       3       5       5       2       4       4       3       5       5       4
       5       5       3       3       5       5       5       3       5       5
       5       5       1       2       3       2       2       2       1       2
       2       4       2       2       2       2       3       4       2       2
       4       4       3       5       5       2       4       4       3       5
       5       2       3       5       5       2       2       3       5       5
       2       4       2       4       3       5       5       2       4       4
       3       5       5       4       5       5       3       3       5       5
       5       3       5       5       5       5       1       2       3       2
       2       2       1       2       2       4       2       2       2       2
       3       4       2       2       4       4       3       5       5       2
       4       4       3       5       5       2       3       5       5       2
       2       3       5       5       2       4       2       4       3       5
       5       2       4       4       3       5       5       4       5       5
       3       3       5       5       5       3       5       5       5       5
       1       2       3       2       2       2       1       2       2       4
       2       2       2       2       3       4       2       2       4       4
       3       5       5       2       4       4       3       5       5       2
       3       5       5       2       2       3       5       5       2       4
       2       4       3       5       5       2       4       4       3       5
       5       4       5       5       3       3       5       5       5       3
       5       5       5       5       1       2       3       2       2       2
       1       2       2       4       2       2       2       2       3       4
       2       2       4       4       3       5       5       2       4       4
       3       5       5       2       3       5       5       2       2       3
       5       5       2       4       2       4       3       5       5       2
       4       4       3       5       5       4       5       5       3       3
       5       5       5       3       5       5       5       5       1       2
       3       2       2       2       1       2       2       4       2       2
       2       2       3       4       2       2       4       4       3       5
       5       2       4       4       3       5       5       2       3       5
       5       2       2       3       5       5       2       4       2       4
       3       5       5       2       4       4       3       5       5       4
       5       5       3       3       5       5       5       3       5       5
       5       5       1       2       3       2       2       2       1       2
       2       4       2       2       2       2       3       4       2       2
       4       4       3       5       5       2       4       4       3       5
       5       2       3       5       5       2       2       3       5       5
       2       4       2       4       3       5       5       2       4       4
       3       5       5       4       5       5       3       3       5       5
       5       3       5       5       5       5       1       2       3       2
       2       2       1       2       2       4       2       2       2       2
       3       4       2       2       4       4       3       5       5       2
       4       4       3       5       5       2       3       5       5       2
       2       3       5       5       2       4       2       4       3       5
       5       2       4       4       3       5       5       4       5       5
       3       3       5       5       5       3       5       5       5       5
       1       2       3       2       2       2       1       2       2       4
       2       2       2       2       3       4       2       2       4       4
       3       5       5       2       4       4       3       5       5       2
       3       5       5       2       2       3       5       5       2       4
       2       4       3       5       5       2       4       4       3       5
       5       4       5       5       3       3       5       5       5       3
       5       5       5       5       1       2       3       2       2       2
       1       2       2       4       2       2       2       2       3       4
       2       2       4       4       3       5       5       2       4       4
       3       5       5       2       3       5       5       2       2       3
       5       5       2       4       2       4       3       5       5       2
       4       4       3       5       5       4       5       5       3       3
       5       5       5       3       5       5       5       5       1       2
       3       2       2       2       1       2       2       4       2       2
       2       2       3       4       2       2       4       4       3       5
       5       2       4       4       3       5       5       2       3       5
       5       2       2       3       5       5       2       4       2       4
       3       5       5       2       4       4       3       5       5       4
       5       5       3       3       5       5       5       3       5       5
       5       5       1       2       3       2       2       2       1       2
       2       4       2       2       2       2       3       4       2       2
       4       4       3       5       5       2       4       4       3       5
       5       2       3       5       5       2       2       3       5       5
       2       4       2       4       3       5       5       2       4       4
       3       5       5       4       5       5       3       3       5       5
       5       3       5       5       5       5       1       2       3       2
       2       2       1       2       2       4       2       2       2       2
       3       4       2       2       4       4       3       5       5       2
       4       4       3       5       5       2       3       5       5       2
       2       3       5       5       2       4       2       4       3       5
       5       2       4       4       3       5       5       4       5       5
       3       3       5       5       5       3       5       5       5       5
       1       2       3       2       2       2       1       2       2       4
       2       2       2       2       3       4       2       2       4       4
       3       5       5       2       4       4       3       5       5       2
       3       5       5       2       2       3       5       5       2       4
       2       4       3       5       5       2       4       4       3       5
       5       4       5       5       3       3       5       5       5       3
       5       5       5       5       1       2       3       2       2       2
       1       2       2       4       2       2       2       2       3       4
       2       2       4       4       3       5       5       2       4       4
       3       5       5       2       3       5       5       2       2       3
       5       5       2       4       2       4       3       5       5       2
       4       4       3       5       5       4       5       5       3       3
       5       5       5       3       5       5       5       5       1       2
       3       2       2       2       1       2       2       4       2       2
       2       2       3       4       2       2       4       4       3       5
       5       2       4       4       3       5       5       2       3       5
       5       2       2       3       5       5       2       4       2       4
       3       5       5       2       4       4       3       5       5       4
       5       5       3       3       5       5       5       3       5       5
       5       5       1       2       3       2       2       2       1       2
       2       4       2       2       2       2       3       4       2       2
       4       4       3       5       5       2       4       4       3       5
       5       2       3       5       5       2       2       3       5       5
       2       4       2       4       3       5       5       2       4       4
       3       5       5       4       5       5       3       3       5       5
       5       3       5       5       5       5       1       2       3       2
       2       2       1       2       2       4       2       2       2       2
       3       4       2       2       4       4       3       5       5       2
       4       4       3       5       5       2       3       5       5       2
       2       3       5       5       2       4       2       4       3       5
       5       2       4       4       3       5       5       4       5       5
       3       3       5       5       5       3       5       5       5       5
       1       2       3       2       2       2       1       2       2       4
       2       2       2       2       3       4       2       2       4       4
       3       5       5       2       4       4       3       5       5       2
       3       5       5       2       2       3       5       5       2       4
       2       4       3       5       5       2       4       4       3       5
       5       4       5       5       3       3       5       5       5       3
       5       5       5       5       1       2       3       2       2       2
       1       2       2       4       2       2       2       2       3       4
       2       2       4       4       3       5       5       2       4       4
       3       5       5       2       3       5       5       2       2       3
       5       5       2       4       2       4       3       5       5       2
       4       4       3       5       5       4       5       5       3       3
       5       5       5       3       5       5       5       5       1       2
       3       2       2       2       1       2       2       4       2       2
       2       2       3       4       2       2       4       4       3       5
       5       2       4       4       3       5       5       2       3       5
       5       2       2       3       5       5       2       4       2       4
       3       5       5       2       4       4       3       5       5       4
       5       5       3       3       5       5       5       3       5       5
       5       5       1       2       3       2       2       2       1       2
       2       4       2       2       2       2       3       4       2       2
       4       4       3       5       5       2       4       4       3       5
       5       2       3       5       5       2       2       3       5       5
       2       4       2       4       3       5       5       2       4       4
       3       5       5       4       5       5       3       3       5       5
       5       3       5       5       5       5       1       2       3       2
       2       2       1       2       2       4       2       2       2       2
       3       4       2       2       4       4       3       5       5       2
       4       4       3       5       5       2       3       5       5       2
       2       3       5       5       2       4       2       4       3       5
       5       2       4       4       3       5       5       4       5       5
       3       3       5       5       5       3       5       5       5       5
       1       2       3       2       2       2       1       2       2       4
       2       2       2       2       3       4       2       2       4       4
       3       5       5       2       4       4       3       5       5       2
       3       5       5       2       2       3       5       5       2       4
       2       4       3       5       5       2       4       4       3       5
       5       4       5       5       3       3       5       5       5       3
       5       5       5       5       1       2       3       2       2       2
       1       2       2       4       2       2       2       2       3       4
       2       2       4       4       3       5       5       2       4       4
       3       5       5       2       3       5       5       2       2       3
       5       5       2       4       2       4       3       5       5       2
       4       4       3       5       5       4       5       5       3       3
       5       5       5       3       5       5       5       5       1       2
       3       2       2       2       1       2       2       4       2       2
       2       2       3       4       2       2       4       4       3       5
       5       2       4       4       3       5       5       2       3       5
       5       2       2       3       5       5       2       4       2       4
       3       5       5       2       4       4       3       5       5       4
       5       5       3       3       5       5       5       3       5       5
       5       5       1       2       3       2       2       2       1       2
       2       4       2       2       2       2       3       4       2       2
       4       4       3       5       5       2       4       4       3       5
       5       2       3       5       5       2       2       3       5       5
       2       4       2       4       3       5       5       2       4       4
       3       5       5       4       5       5       3       3       5       5
       5       3       5       5       5       5       1       2       3       2
       2       2       1       2       2       4       2       2       2       2
       3       4       2       2       4       4       3       5       5       2
       4       4       3       5       5       2       3       5       5       2
       2       3       5       5       2       4       2       4       3       5
       5       2       4       4       3       5       5       4       5       5
       3       3       5       5       5       3       5       5       5       5
       1       2       3       2       2       2       1       2       2       4
       2       2       2       2       3       4       2       2       4       4
       3       5       5       2       4       4       3       5       5       2
       3       5       5       2       2       3       5       5       2       4
       2       4       3       5       5       2       4       4       3       5
       5       4       5       5       3       3       5       5       5       3
       5       5       5       5       1       2       3       2       2       2
       1       2       2       4       2       2       2       2       3       4
       2       2       4       4       3       5       5       2       4       4
       3       5       5       2       3       5       5       2       2       3
       5       5       2       4       2       4       3       5       5       2
       4       4       3       5       5       4       5       5       3       3
       5       5       5       3       5       5       5       5       1       2
       3       2       2       2       1       2       2       4       2       2
       2       2       3       4       2       2       4       4       3       5
       5       2       4       4       3       5       5       2       3       5
       5       2       2       3       5       5       2       4       2       4
       3       5       5       2       4       4       3       5       5       4
       5       5       3       3       5       5       5       3       5       5
       5       5       1       2       3       2       2       2       1       2
       2       4       2       2       2       2       3       4       2       2
       4       4       3       5       5       2       4       4       3       5
       5       2       3       5       5       2       2       3       5       5
       2       4       2       4       3       5       5       2       4       4
       3       5       5       4       5       5       3       3       5       5
       5       3       5       5       5       5       1       2       3       2
       2       2       1       2       2       4       2       2       2       2
       3       4       2       2       4       4       3       5       5       2
       4       4       3       5       5       2       3       5       5       2
       2       3       5       5       2       4       2       4       3       5
       5       2       4       4       3       5       5       4       5       5
       3       3       5       5       5       3       5       5       5       5
       1       2       3       2       2       2       1       2       2       4
       2       2       2       2       3       4       2       2       4       4
       3       5       5       2       4       4       3       5       5       2
       3       5       5       2       2       3       5       5       2       4
       2       4       3       5       5       2       4       4       3       5
       5       4       5       5       3       3       5       5       5       3
       5       5       5       5       1       2       3       2       2       2
       1       2       2       4       2       2       2       2       3       4
       2       2       4       4       3       5       5       2       4       4
       3       5       5       2       3       5       5       2       2       3
       5       5       2       4       2       4       3       5       5       2
       4       4       3       5       5       4       5       5       3       3
       5       5       5       3       5       5       5       5       1       2
       3       2       2       2       1       2       2       4       2       2
       2       2       3       4       2       2       4       4       3       5
       5       2       4       4       3       5       5       2       3       5
       5       2       2       3       5       5       2       4       2       4
       3       5       5       2       4       4       3       5       5       4
       5       5       3       3       5       5       5       3       5       5
       5       5       1       2       3       2       2       2       1       2
       2       4       2       2       2       2       3       4       2       2
       4       4       3       5       5       2       4       4       3       5
       5       2       3       5       5       2       2       3       5       5
       2       4       2       4       3       5       5       2       4       4
       3       5       5       4       5       5       3       3       5       5
       5       3       5       5       5       5       1       2       3       2
       2       2       1       2       2       4       2       2       2       2
       3       4       2       2       4       4       3       5       5       2
       4       4       3       5       5       2       3       5       5       2
       2       3       5       5       2       4       2       4       3       5
       5       2       4       4       3       5       5       4       5       5
       3       3       5       5       5       3       5       5       5       5
       1       2       3       2       2       2       1       2       2       4
       2       2       2       2       3       4       2       2       4       4
       3       5       5       2       4       4       3       5       5       2
       3       5       5       2       2       3       5       5       2       4
       2       4       3       5       5       2       4       4       3       5
       5       4       5       5       3       3       5       5       5       3
       5       5       5       5       1       2       3       2       2       2
       1       2       2       4       2       2       2       2       3       4
       2       2       4       4       3       5       5       2       4       4
       3       5       5       2       3       5       5       2       2       3
       5       5       2       4       2       4       3       5       5       2
       4       4       3       5       5       4       5       5       3       3
       5       5       5       3       5       5       5       5       1       2
       3       2       2       2       1       2       2       4       2       2
       2       2       3       4       2       2       4       4       3       5
       5       2       4       4       3       5       5       2       3       5
       5       2       2       3       5       5       2       4       2       4
       3       5       5       2       4       4       3       5       5       4
       5       5       3       3       5       5       5       3       5       5
       5       5       1       2       3       2       2       2       1       2
       2       4       2       2       2       2       3       4       2       2
       4       4       3       5       5       2       4       4       3       5
       5       2       3       5       5       2       2       3       5       5
       2       4       2       4       3       5       5       2       4       4
       3       5       5       4       5       5       3       3       5       5
       5       3       5       5       5       5       1       2       3       2
       2       2       1       2       2       4       2       2       2       2
       3       4       2       2       4       4       3       5       5       2
       4       4       3       5       5       2       3       5       5       2
       2       3       5       5       2       4       2       4       3       5
       5       2       4       4       3       5       5       4       5       5
       3       3       5       5       5       3       5       5       5       5
       1       2       3       2       2       2       1       2       2       4
       2       2       2       2       3       4       2       2       4       4
       3       5       5       2       4       4       3       5       5       2
       3       5       5       2       2       3       5       5       2       4
       2       4       3       5       5       2       4       4       3       5
       5       4       5       5       3       3       5       5       5       3
       5       5       5       5       1       2       3       2       2       2
       1       2       2       4       2       2       2       2       3       4
       2       2       4       4       3       5       5       2       4       4
       3       5       5       2       3       5       5       2       2       3
       5       5       2       4       2       4       3       5       5       2
       4       4       3       5       5       4       5       5       3       3
       5       5       5       3       5       5       5       5       1       2
       3       2       2       2       1       2       2       4       2       2
       2       2       3       4       2       2       4       4       3       5
       5       2       4       4       3       5       5       2       3       5
       5       2       2       3       5       5       2       4       2       4
       3       5       5       2       4       4       3       5       5       4
       5       5       3       3       5       5       5       3       5       5
       5       5       1       2       3       2       2       2       1       2
       2       4       2       2       2       2       3       4       2       2
       4       4       3       5       5       2       4       4       3       5
       5       2       3       5       5       2       2       3       5       5
       2       4       2       4       3       5       5       2       4       4
       3       5       5       4       5       5       3       3       5       5
       5       3       5       5       5       5       1       2       3       2
       2       2       1       2       2       4       2       2       2       2
       3       4       2       2       4       4       3       5       5       2
       4       4       3       5       5       2       3       5       5       2
       2       3       5       5       2       4       2       4       3       5
       5       2       4       4       3       5       5       4       5       5
       3       3       5       5       5       3       5       5       5       5
       1       2       3       2       2       2       1       2       2       4
       2       2       2       2       3       4       2       2       4       4
       3       5       5       2       4       4       3       5       5       2
       3       5       5       2       2       3       5       5       2       4
       2       4       3       5       5       2       4       4       3       5
       5       4       5       5       3       3       5       5       5       3
       5       5       5       5       1       2       3       2       2       2
       1       2       2       4       2       2       2       2       3       4
       2       2       4       4       3       5       5       2       4       4
       3       5       5       2       3       5       5       2       2       3
       5       5       2       4       2       4       3       5       5       2
       4       4       3       5       5       4       5       5       3       3
       5       5       5       3       5       5       5       5       1       2
       3       2       2       2       1       2       2       4       2       2
       2       2       3       4       2       2       4       4       3       5
       5       2       4       4       3       5       5       2       3       5
       5       2       2       3       5       5       2       4       2       4
       3       5       5       2       4       4       3       5       5       4
       5       5       3       3       5       5       5       3       5       5
       5       5       1       2       3       2       2       2       1       2
       2       4       2       2       2       2       3       4       2       2
       4       4       3       5       5       2       4       4       3       5
       5       2       3       5       5       2       2       3       5       5
       2       4       2       4       3       5       5       2       4       4
       3       5       5       4       5       5       3       3       5       5
       5       3       5       5       5       5       1       2       3       2
       2       2       1       2       2       4       2       2       2       2
       3       4       2       2       4       4       3       5       5       2
       4       4       3       5       5       2       3       5       5       2
       2       3       5       5       2       4       2       4       3       5
       5       2       4       4       3       5       5       4       5       5
       3       3       5       5       5       3       5       5       5       5
       1       2       3       2       2       2       1       2       2       4
       2       2       2       2       3       4       2       2       4       4
       3       5       5       2       4       4       3       5       5       2
       3       5       5       2       2       3       5       5       2       4
       2       4       3       5       5       2       4       4       3       5
       5       4       5       5       3       3       5       5       5       3
       5       5       5       5       1       2       3       2       2       2
       1       2       2       4       2       2       2       2       3       4
       2       2       4       4       3       5       5       2       4       4
       3       5       5       2       3       5       5       2       2       3
       5       5       2       4       2       4       3       5       5       2
       4       4       3       5       5       4       5       5       3       3
       5       5       5       3       5       5       5       5       1       2
       3       2       2       2       1       2       2       4       2       2
       2       2       3       4       2       2       4       4       3       5
       5       2       4       4       3       5       5       2       3       5
       5       2       2       3       5       5       2       4       2       4
       3       5       5       2       4       4       3       5       5       4
       5       5       3       3       5       5       5       3       5       5
       5       5       1       2       3       2       2       2       1       2
       2       4       2       2       2       2       3       4       2       2
       4       4       3       5       5       2       4       4       3       5
       5       2       3       5       5       2       2       3       5       5
       2       4       2       4       3       5       5       2       4       4
       3       5       5       4       5       5       3       3       5       5
       5       3       5       5       5       5       1       2       3       2
       2       2       1       2       2       4       2       2       2       2
       3       4       2       2       4       4       3       5       5       2
       4       4       3       5       5       2       3       5       5       2
       2       3       5       5       2       4       2       4       3       5
       5       2       4       4       3       5       5       4       5       5
       3       3       5       5       5       3       5       5       5       5
       1       2       3       2       2       2       1       2       2       4
       2       2       2       2       3       4       2       2       4       4
       3       5       5       2       4       4       3       5       5       2
       3       5       5       2       2       3       5       5       2       4
       2       4       3       5       5       2       4       4       3       5
       5       4       5       5       3       3       5       5       5       3
       5       5       5       5       1       2       3       2       2       2
       1       2       2       4       2       2       2       2       3       4
       2       2       4       4       3       5       5       2       4       4
       3       5       5       2       3       5       5       2       2       3
       5       5       2       4       2       4       3       5       5       2
       4       4       3       5       5       4       5       5       3       3
       5       5       5       3       5       5       5       5       1       2
       3       2       2       2       1       2       2       4       2       2
       2       2       3       4       2       2       4       4       3       5
       5       2       4       4       3       5       5       2       3       5
       5       2       2       3       5       5       2       4       2       4
       3       5       5       2       4       4       3       5       5       4
       5       5       3       3       5       5       5       3       5       5
       5       5       1       2       3       2       2       2       1       2
       2       4       2       2       2       2       3       4       2       2
       4       4       3       5       5       2       4       4       3       5
       5       2       3       5       5       2       2       3       5       5
       2       4       2       4       3       5       5       2       4       4
       3       5       5       4       5       5       3       3       5       5
       5       3       5       5       5       5       1       2       3       2
       2       2       1       2       2       4       2       2       2       2
       3       4       2       2       4       4       3       5       5       2
       4       4       3       5       5       2       3       5       5       2
       2       3       5       5       2       4       2       4       3       5
       5       2       4       4       3       5       5       4       5       5
       3       3       5       5       5       3       5       5       5       5
       1       2       3       2       2       2       1       2       2       4
       2       2       2       2       3       4       2       2       4       4
       3       5       5       2       4       4       3       5       5       2
       3       5       5       2       2       3       5       5       2       4
       2       4       3       5       5       2       4       4       3       5
       5       4       5       5       3       3       5       5       5       3
       5       5       5       5       1       2       3       2       2       2
       1       2       2       4       2       2       2       2       3       4
       2       2       4       4       3       5       5       2       4       4
       3       5       5       2       3       5       5       2       2       3
       5       5       2       4       2       4       3       5       5       2
       4       4       3       5       5       4       5       5       3       3
       5       5       5       3       5       5       5       5       1       2
       3       2       2       2       1       2       2       4       2       2
       2       2       3       4       2       2       4       4       3       5
       5       2       4       4       3       5       5       2       3       5
       5       2       2       3       5       5       2       4       2       4
       3       5       5       2       4       4       3       5       5       4
       5       5       3       3       5       5       5       3       5       5
       5       5       1       2       3       2       2       2       1       2
       2       4       2       2       2       2       3       4       2       2
       4       4       3       5       5       2       4       4       3       5
       5       2       3       5       5       2       2       3       5       5
       2       4       2       4       3       5       5       2       4       4
       3       5       5       4       5       5       3       3       5       5
       5       3       5       5       5       5       1       2       3       2
       2       2       1       2       2       4       2       2       2       2
       3       4       2       2       4       4       3       5       5       2
       4       4       3       5       5       2       3       5       5       2
       2       3       5       5       2       4       2       4       3       5
       5       2       4       4       3       5       5       4       5       5
       3       3       5       5       5       3       5       5       5       5
       1       2       3       2       2       2       1       2       2       4
       2       2       2       2       3       4       2       2       4       4
       3       5       5       2       4       4       3       5       5       2
       3       5       5       2       2       3       5       5       2       4
       2       4       3       5       5       2       4       4       3       5
       5       4       5       5       3       3       5       5       5       3
       5       5       5       5       1       2       3       2       2       2
       1       2       2       4       2       2       2       2       3       4
       2       2       4       4       3       5       5       2       4       4
       3       5       5       2       3       5       5       2       2       3
       5       5       2       4       2       4       3       5       5       2
       4       4       3       5       5       4       5       5       3       3
       5       5       5       3       5       5       5       5       1       2
       3       2       2       2       1       2       2       4       2       2
       2       2       3       4       2       2       4       4       3       5
       5       2       4       4       3       5       5       2       3       5
       5       2       2       3       5       5       2       4       2       4
       3       5       5       2       4       4       3       5       5       4
       5       5       3       3       5       5       5       3       5       5
       5       5       1       2       3       2       2       2       1       2
       2       4       2       2       2       2       3       4       2       2
       4       4       3       5       5       2       4       4       3       5
       5       2       3       5       5       2       2       3       5       5
       2       4       2       4       3       5       5       2       4       4
       3       5       5       4       5       5       3       3       5       5
       5       3       5       5       5       5       1       2       3       2
       2       2       1       2       2       4       2       2       2       2
       3       4       2       2       4       4       3       5       5       2
       4       4       3       5       5       2       3       5       5       2
       2       3       5       5       2       4       2       4       3       5
       5       2       4       4       3       5       5       4       5       5
       3       3       5       5       5       3       5       5       5       5
       1       2       3       2       2       2       1       2       2       4
       2       2       2       2       3       4       2       2       4       4
       3       5       5       2       4       4       3       5       5       2
       3       5       5       2       2       3       5       5       2       4
       2       4       3       5       5       2       4       4       3       5
       5       4       5       5       3       3       5       5       5       3
       5       5       5       5       1       2       3       2       2       2
       1       2       2       4       2       2       2       2       3       4
       2       2       4       4       3       5       5       2       4       4
       3       5       5       2       3       5       5       2       2       3
       5       5       2       4       2       4       3       5       5       2
       4       4       3       5       5       4       5       5       3       3
       5       5       5       3       5       5       5       5       1       2
       3       2       2       2       1       2       2       4       2       2
       2       2       3       4       2       2       4       4       3       5
       5       2       4       4       3       5       5       2       3       5
       5       2       2       3       5       5       2       4       2       4
       3       5       5       2       4       4       3       5       5       4
       5       5       3       3       5       5       5       3       5       5
       5       5       1       2       3       2       2       2       1       2
       2       4       2       2       2       2       3       4       2       2
       4       4       3       5       5       2       4       4       3       5
       5       2       3       5       5       2       2       3       5       5
       2       4       2       4       3       5       5       2       4       4
       3       5       5       4       5       5       3       3       5       5
       5       3       5       5       5       5       1       2       3       2
       2       2       1       2       2       4       2       2       2       2
       3       4       2       2       4       4       3       5       5       2
       4       4       3       5       5       2       3       5       5       2
       2       3       5       5       2       4       2       4       3       5
       5       2       4       4       3       5       5       4       5       5
       3       3       5       5       5       3       5       5       5       5
       1       2       3       2       2       2       1       2       2       4
       2       2       2       2       3       4       2       2       4       4
       3       5       5       2       4       4       3       5       5       2
       3       5       5       2       2       3       5       5       2       4
       2       4       3       5       5       2       4       4       3       5
       5       4       5       5       3       3       5       5       5       3
       5       5       5       5       1       2       3       2       2       2
       1       2       2       4       2       2       2       2       3       4
       2       2       4       4       3       5       5       2       4       4
       3       5       5       2       3       5       5       2       2       3
       5       5       2       4       2       4       3       5       5       2
       4       4       3       5       5       4       5       5       3       3
       5       5       5       3       5       5       5       5       1       2
       3       2       2       2       1       2       2       4       2       2
       2       2       3       4       2       2       4       4       3       5
       5       2       4       4       3       5       5       2       3       5
       5       2       2       3       5       5       2       4       2       4
       3       5       5       2       4       4       3       5       5       4
       5       5       3       3       5       5       5       3       5       5
       5       5       1       2       3       2       2       2       1       2
       2       4       2       2       2       2       3       4       2       2
       4       4       3       5       5       2       4       4       3       5
       5       2       3       5       5       2       2       3       5       5
       2       4       2       4       3       5       5       2       4       4
       3       5       5       4       5       5       3       3       5       5
       5       3       5       5       5       5       1       2       3       2
       2       2       1       2       2       4       2       2       2       2
       3       4       2       2       4       4       3       5       5       2
       4       4       3       5       5       2       3       5       5       2
       2       3       5       5       2       4       2       4       3       5
       5       2       4       4       3       5       5       4       5       5
       3       3       5       5       5       3       5       5       5       5
       1       2       3       2       2       2       1       2       2       4
       2       2       2       2       3       4       2       2       4       4
       3       5       5       2       4       4       3       5       5       2
       3       5       5       2       2       3       5       5       2       4
       2       4       3       5       5       2       4       4       3       5
       5       4       5       5       3       3       5       5       5       3
       5       5       5       5       1       2       3       2       2       2
       1       2       2       4       2       2       2       2       3       4
       2       2       4       4       3       5       5       2       4       4
       3       5       5       2       3       5       5       2       2       3
       5       5       2       4       2       4       3       5       5       2
       4       4       3       5       5       4       5       5       3       3
       5       5       5       3       5       5       5       5       1       2
       3       2       2       2       1       2       2       4       2       2
       2       2       3       4       2       2       4       4       3       5
       5       2       4       4       3       5       5       2       3       5
       5       2       2       3       5       5       2       4       2       4
       3       5       5       2       4       4       3       5       5       4
       5       5       3       3       5       5       5       3       5       5
       5       5       1       2       3       2       2       2       1       2
       2       4       2       2       2       2       3       4       2       2
       4       4       3       5       5       2       4       4       3       5
       5       2       3       5       5       2       2       3       5       5
       2       4       2       4       3       5       5       2       4       4
       3       5       5       4       5       5       3       3       5       5
       5       3       5       5       5       5       1       2       3       2
       2       2       1       2       2       4       2       2       2       2
       3       4       2       2       4       4       3       5       5       2
       4       4       3       5       5       2       3       5       5       2
       2       3       5       5       2       4       2       4       3       5
       5       2       4       4       3       5       5       4       5       5
       3       3       5       5       5       3       5       5       5       5
       1       2       3       2       2       2       1       2       2       4
       2       2       2       2       3       4       2       2       4       4
       3       5       5       2       4       4       3       5       5       2
       3       5       5       2       2       3       5       5       2       4
       2       4       3       5       5       2       4       4       3       5
       5       4       5       5       3       3       5       5       5       3
       5       5       5       5       1       2       3       2       2       2
       1       2       2       4       2       2       2       2       3       4
       2       2       4       4       3       5       5       2       4       4
       3       5       5       2       3       5       5       2       2       3
       5       5       2       4       2       4       3       5       5       2
       4       4       3       5       5       4       5       5       3       3
       5       5       5       3       5       5       5       5       1       2
       3       2       2       2       1       2       2       4       2       2
       2       2       3       4       2       2       4       4       3       5
       5       2       4       4       3       5       5       2       3       5
       5       2       2       3       5       5       2       4       2       4
       3       5       5       2       4       4       3       5       5       4
       5       5       3       3       5       5       5       3       5       5
       5       5       1       2       3       2       2       2       1       2
       2       4       2       2       2       2       3       4       2       2
       4       4       3       5       5       2       4       4       3       5
       5       2       3       5       5       2       2       3       5       5
       2       4       2       4       3       5       5       2       4       4
       3       5       5       4       5       5       3       3       5       5
       5       3       5       5       5       5       1       2       3       2
       2       2       1       2       2       4       2       2       2       2
       3       4       2       2       4       4       3       5       5       2
       4       4       3       5       5       2       3       5       5       2
       2       3       5       5       2       4       2       4       3       5
       5       2       4       4       3       5       5       4       5       5
       3       3       5       5       5       3       5       5       5       5
       1       2       3       2       2       2       1       2       2       4
       2       2       2       2       3       4       2       2       4       4
       3       5       5       2       4       4       3       5       5       2
       3       5       5       2       2       3       5       5       2       4
       2       4       3       5       5       2       4       4       3       5
       5       4       5       5       3       3       5       5       5       3
       5       5       5       5       1       2       3       2       2       2
       1       2       2       4       2       2       2       2       3       4
       2       2       4       4       3       5       5       2       4       4
       3       5       5       2       3       5       5       2       2       3
       5       5       2       4       2       4       3       5       5       2
       4       4       3       5       5       4       5       5       3       3
       5       5       5       3       5       5       5       5       1       2
       3       2       2       2       1       2       2       4       2       2
       2       2       3       4       2       2       4       4       3       5
       5       2       4       4       3       5       5       2       3       5
       5       2       2       3       5       5       2       4       2       4
       3       5       5       2       4       4       3       5       5       4
       5       5       3       3       5       5       5       3       5       5
       5       5
%FLAG NUMBER_EXCLUDED_ATOMS                                                     
%FORMAT(10I8)                                                                   
      12      12      11      10      10       9       7       8      12       2
       4       7       6       6      10       1       7       7       2       1
      11       4       3       9       1       1      11       4       3       9
      11       4       3       8       7      11       4       3       6       2
       5       2      11       4       3       3       1       1      11       4
       3       1       5       4       9       8       4       3       5       4
       3       2       1       1      12      12      11      10      10       9
       7       8      12       2       4       7       6       6      10       1
       7       7       2       1      11       4       3       9       1       1
      11       4       3       9      11       4       3       8       7      11
       4       3       6       2       5       2      11       4       3       3
       1       1      11       4       3       1       5       4       9       8
       4       3       5       4       3       2       1       1      12      12
      11      10      10       9       7       8      12       2       4       7
       6       6      10       1       7       7       2       1      11       4
       3       9       1       1      11       4       3       9      11       4
       3       8       7      11       4       3       6       2       5       2
      11       4       3       3       1       1      11       4       3       1
       5       4       9       8       4       3       5       4       3       2
       1       1      12      12      11      10      10       9       7       8
      12       2       4       7       6       6      10       1       7       7
       2       1      11       4       3       9       1       1      11       4
       3       9      11       4       3       8       7      11       4       3
       6       2       5       2      11       4       3       3       1       1
      11       4       3       1       5       4       9       8       4       3
       5       4       3       2       1       1      12      12      11      10
      10       9       7       8      12       2       4       7       6       6
      10       1       7       7       2       1      11       4       3       9
       1       1      11       4       3       9      11       4       3       8
       7      11       4       3       6       2       5       2      11       4
       3       3       1       1      11       4       3       1       5       4
       9       8       4       3       5       4       3       2       1       1
      12      12      11      10      10       9       7       8      12       2
       4       7       6       6      10       1       7       7       2       1
      11       4       3       9       1       1      11       4       3       9
      11       4       3       8       7      11       4       3       6       2
       5       2      11       4       3       3       1       1      11       4
       3       1       5       4       9       8       4       3       5       4
       3       2       1       1      12      12      11      10      10       9
       7       8      12       2       4       7       6       6      10       1
       7       7       2       1      11       4       3       9       1       1
      11       4       3       9      11       4       3       8       7      11
       4       3       6       2       5       2      11       4       3       3
       1       1      11       4       3       1       5       4       9       8
       4       3       5       4       3       2       1       1      12      12
      11      10      10       9       7       8      12       2       4       7
       6       6      10       1       7       7       2       1      11       4
       3       9       1       1      11       4       3       9      11       4
       3       8       7      11       4       3       6       2       5       2
      11       4       3       3       1       1      11       4       3       1
       5       4       9       8       4       3       5       4       3       2
       1       1      12      12      11      10      10       9       7       8
      12       2       4       7       6       6      10       1       7       7
       2       1      11       4       3       9       1       1      11       4
       3       9      11       4       3       8       7      11       4       3
       6       2       5       2      11       4       3       3       1       1
      11       4       3       1       5       4       9       8       4       3
       5       4       3       2       1       1      12      12      11      10
      10       9       7       8      12       2       4       7       6       6
      10       1       7       7       2       1      11       4       3       9
       1       1      11       4       3       9      11       4       3       8
       7      11       4       3       6       2       5       2      11       4
       3       3       1       1      11       4       3       1       5       4
       9       8       4       3       5       4       3       2       1       1
      12      12      11      10      10       9       7       8      12       2
       4       7       6       6      10       1       7       7       2       1
      11       4       3       9       1       1      11       4       3       9
      11       4       3       8       7      11       4       3       6       2
       5       2      11       4       3       3       1       1      11       4
       3       1       5       4       9       8       4       3       5       4
       3       2       1       1      12      12      11      10      10       9
       7       8      12       2       4       7       6       6      10       1
       7       7       2       1      11       4       3       9       1       1
      11       4       3       9      11       4       3       8       7      11
       4       3       6       2       5       2      11       4       3       3
       1       1      11       4       3       1       5       4       9       8
       4       3       5       4       3       2       1       1      12      12
      11      10      10       9       7       8      12       2       4       7
       6       6      10       1       7       7       2       1      11       4
       3       9       1       1      11       4       3       9      11       4
       3       8       7      11       4       3       6       2       5       2
      11       4       3       3       1       1      11       4       3       1
       5       4       9       8       4       3       5       4       3       2
       1       1      12      12      11      10      10       9       7       8
      12       2       4       7       6       6      10       1       7       7
       2       1      11       4       3       9       1       1      11       4
       3       9      11       4       3       8       7      11       4       3
       6       2       5       2      11       4       3       3       1       1
      11       4       3       1       5       4       9       8       4       3
       5       4       3       2       1       1      12      12      11      10
      10       9       7       8      12       2       4       7       6       6
      10       1       7       7       2       1      11       4       3       9
       1       1      11       4       3       9      11       4       3       8
       7      11       4       3       6       2       5       2      11       4
       3       3       1       1      11       4       3       1       5       4
       9       8       4       3       5       4       3       2       1       1
      12      12      11      10      10       9       7       8      12       2
       4       7       6       6      10       1       7       7       2       1
      11       4       3       9       1       1      11       4       3       9
      11       4       3       8       7      11       4       3       6       2
       5       2      11       4       3       3       1       1      11       4
       3       1       5       4       9       8       4       3       5       4
       3       2       1       1      12      12      11      10      10       9
       7       8      12       2       4       7       6       6      10       1
       7       7       2       1      11       4       3       9       1       1
      11       4       3       9      11       4       3       8       7      11
       4       3       6       2       5       2      11       4       3       3
       1       1      11       4       3       1       5       4       9       8
       4       3       5       4       3       2       1       1      12      12
      11      10      10       9       7       8      12       2       4       7
       6       6      10       1       7       7       2       1      11       4
       3       9       1       1      11       4       3       9      11       4
       3       8       7      11       4       3       6       2       5       2
      11       4       3       3       1       1      11       4       3       1
       5       4       9       8       4       3       5       4       3       2
       1       1      12      12      11      10      10       9       7       8
      12       2       4       7       6       6      10       1       7       7
       2       1      11       4       3       9       1       1      11       4
       3       9      11       4       3       8       7      11       4       3
       6       2       5       2      11       4       3       3       1       1
      11       4       3       1       5       4       9       8       4       3
       5       4       3       2       1       1      12      12      11      10
      10       9       7       8      12       2       4       7       6       6
      10       1       7       7       2       1      11       4       3       9
       1       1      11       4       3       9      11       4       3       8
       7      11       4       3       6       2       5       2      11       4
       3       3       1       1      11       4       3       1       5       4
       9       8       4       3       5       4       3       2       1       1
      12      12      11      10      10       9       7       8      12       2
       4       7       6       6      10       1       7       7       2       1
      11       4       3       9       1       1      11       4       3       9
      11       4       3       8       7      11       4       3       6       2
       5       2      11       4       3       3       1       1      11       4
       3       1       5       4       9       8       4       3       5       4
       3       2       1       1      12      12      11      10      10       9
       7       8      12       2       4       7       6       6      10       1
       7       7       2       1      11       4       3       9       1       1
      11       4       3       9      11       4       3       8       7      11
       4       3       6       2       5       2      11       4       3       3
       1       1      11       4       3       1       5       4       9       8
       4       3       5       4       3       2       1       1      12      12
      11      10      10       9       7       8      12       2       4       7
       6       6      10       1       7       7       2       1      11       4
       3       9       1       1      11       4       3       9      11       4
       3       8       7      11       4       3       6       2       5       2
      11       4       3       3       1       1      11       4       3       1
       5       4       9       8       4       3       5       4       3       2
       1       1      12      12      11      10      10       9       7       8
      12       2       4       7       6       6      10       1       7       7
       2       1      11       4       3       9       1       1      11       4
       3       9      11       4       3       8       7      11       4       3
       6       2       5       2      11       4       3       3       1       1
      11       4       3       1       5       4       9       8       4       3
       5       4       3       2       1       1      12      12      11      10
      10       9       7       8      12       2       4       7       6       6
      10       1       7       7       2       1      11       4       3       9
       1       1      11       4       3       9      11       4       3       8
       7      11       4       3       6       2       5       2      11       4
       3       3       1       1      11       4       3       1       5       4
       9       8       4       3       5       4       3       2       1       1
      12      12      11      10      10       9       7       8      12       2
       4       7       6       6      10       1       7       7       2       1
      11       4       3       9       1       1      11       4       3       9
      11       4       3       8       7      11       4       3       6       2
       5       2      11       4       3       3       1       1      11       4
       3       1       5       4       9       8       4       3       5       4
       3       2       1       1      12      12      11      10      10       9
       7       8      12       2       4       7       6       6      10       1
       7       7       2       1      11       4       3       9       1       1
      11       4       3       9      11       4       3       8       7      11
       4       3       6       2       5       2      11       4       3       3
       1       1      11       4       3       1       5       4       9       8
       4       3       5       4       3       2       1       1      12      12
      11      10      10       9       7       8      12       2       4       7
       6       6      10       1       7       7       2       1      11       4
       3       9       1       1      11       4       3       9      11       4
       3       8       7      11       4       3       6       2       5       2
      11       4       3       3       1       1      11       4       3       1
       5       4       9       8       4       3       5       4       3       2
       1       1      12      12      11      10      10       9       7       8
      12       2       4       7       6       6      10       1       7       7
       2       1      11       4       3       9       1       1      11       4
       3       9      11       4       3       8       7      11       4       3
       6       2       5       2      11       4       3       3       1       1
      11       4       3       1       5       4       9       8       4       3
       5       4       3       2       1       1      12      12      11      10
      10       9       7       8      12       2       4       7       6       6
      10       1       7       7       2       1      11       4       3       9
       1       1      11       4       3       9      11       4       3       8
       7      11       4       3       6       2       5       2      11       4
       3       3       1       1      11       4       3       1       5       4
       9       8       4       3       5       4       3       2       1       1
      12      12      11      10      10       9       7       8      12       2
       4       7       6       6      10       1       7       7       2       1
      11       4       3       9       1       1      11       4       3       9
      11       4       3       8       7      11       4       3       6       2
       5       2      11       4       3       3       1       1      11       4
       3       1       5       4       9       8       4       3       5       4
       3       2       1       1      12      12      11      10      10       9
       7       8      12       2       4       7       6       6      10       1
       7       7       2       1      11       4       3       9       1       1
      11       4       3       9      11       4       3       8       7      11
       4       3       6       2       5       2      11       4       3       3
       1       1      11       4       3       1       5       4       9       8
       4       3       5       4       3       2       1       1      12      12
      11      10      10       9       7       8      12       2       4       7
       6       6      10       1       7       7       2       1      11       4
       3       9       1       1      11       4       3       9      11       4
       3       8       7      11       4       3       6       2       5       2
      11       4       3       3       1       1      11       4       3       1
       5       4       9       8       4       3       5       4       3       2
       1       1      12      12      11      10      10       9       7       8
      12       2       4       7       6       6      10       1       7       7
       2       1      11       4       3       9       1       1      11       4
       3       9      11       4       3       8       7      11       4       3
       6       2       5       2      11       4       3       3       1       1
      11       4       3       1       5       4       9       8       4       3
       5       4       3       2       1       1      12      12      11      10
      10       9       7       8      12       2       4       7       6       6
      10       1       7       7       2       1      11       4       3       9
       1       1      11       4       3       9      11       4       3       8
       7      11       4       3       6       2       5       2      11       4
       3       3       1       1      11       4       3       1       5       4
       9       8       4       3       5       4       3       2       1       1
      12      12      11      10      10       9       7       8      12       2
       4       7       6       6      10       1       7       7       2       1
      11       4       3       9       1       1      11       4       3       9
      11       4       3       8       7      11       4       3       6       2
       5       2      11       4       3       3       1       1      11       4
       3       1       5       4       9       8       4       3       5       4
       3       2       1       1      12      12      11      10      10       9
       7       8      12       2       4       7       6       6      10       1
       7       7       2       1      11       4       3       9       1       1
      11       4       3       9      11       4       3       8       7      11
       4       3       6       2       5       2      11       4       3       3
       1       1      11       4       3       1       5       4       9       8
       4       3       5       4       3       2       1       1      12      12
      11      10      10       9       7       8      12       2       4       7
       6       6      10       1       7       7       2       1      11       4
       3       9       1       1      11       4       3       9      11       4
       3       8       7      11       4       3       6       2       5       2
      11       4       3       3       1       1      11       4       3       1
       5       4       9       8       4       3       5       4       3       2
       1       1      12      12      11      10      10       9       7       8
      12       2       4       7       6       6      10       1       7       7
       2       1      11       4       3       9       1       1      11       4
       3       9      11       4       3       8       7      11       4       3
       6       2       5       2      11       4       3       3       1       1
      11       4       3       1       5       4       9       8       4       3
       5       4       3       2       1       1      12      12      11      10
      10       9       7       8      12       2       4       7       6       6
      10       1       7       7       2       1      11       4       3       9
       1       1      11       4       3       9      11       4       3       8
       7      11       4       3       6       2       5       2      11       4
       3       3       1       1      11       4       3       1       5       4
       9       8       4       3       5       4       3       2       1       1
      12      12      11      10      10       9       7       8      12       2
       4       7       6       6      10       1       7       7       2       1
      11       4       3       9       1       1      11       4       3       9
      11       4       3       8       7      11       4       3       6       2
       5       2      11       4       3       3       1       1      11       4
       3       1       5       4       9       8       4       3       5       4
       3       2       1       1      12      12      11      10      10       9
       7       8      12       2       4       7       6       6      10       1
       7       7       2       1      11       4       3       9       1       1
      11       4       3       9      11       4       3       8       7      11
       4       3       6       2       5       2      11       4       3       3
       1       1      11       4       3       1       5       4       9       8
       4       3       5       4       3       2       1       1      12      12
      11      10      10       9       7       8      12       2       4       7
       6       6      10       1       7       7       2       1      11       4
       3       9       1       1      11       4       3       9      11       4
       3       8       7      11       4       3       6       2       5       2
      11       4       3       3       1       1      11       4       3       1
       5       4       9       8       4       3       5       4       3       2
       1       1      12      12      11      10      10       9       7       8
      12       2       4       7       6       6      10       1       7       7
       2       1      11       4       3       9       1       1      11       4
       3       9      11       4       3       8       7      11       4       3
       6       2       5       2      11       4       3       3       1       1
      11       4       3       1       5       4       9       8       4       3
       5       4       3       2       1       1      12      12      11      10
      10       9       7       8      12       2       4       7       6       6
      10       1       7       7       2       1      11       4       3       9
       1       1      11       4       3       9      11       4       3       8
       7      11       4       3       6       2       5       2      11       4
       3       3       1       1      11       4       3       1       5       4
       9       8       4       3       5       4       3       2       1       1
      12      12      11      10      10       9       7       8      12       2
       4       7       6       6      10       1       7       7       2       1
      11       4       3       9       1       1      11       4       3       9
      11       4       3       8       7      11       4       3       6       2
       5       2      11       4       3       3       1       1      11       4
       3       1       5       4       9       8       4       3       5       4
       3       2       1       1      12      12      11      10      10       9
       7       8      12       2       4       7       6       6      10       1
       7       7       2       1      11       4       3       9       1       1
      11       4       3       9      11       4       3       8       7      11
       4       3       6       2       5       2      11       4       3       3
       1       1      11       4       3       1       5       4       9       8
       4       3       5       4       3       2       1       1      12      12
      11      10      10       9       7       8      12       2       4       7
       6       6      10       1       7       7       2       1      11       4
       3       9       1       1      11       4       3       9      11       4
       3       8       7      11       4       3       6       2       5       2
      11       4       3       3       1       1      11       4       3       1
       5       4       9       8       4       3       5       4       3       2
       1       1      12      12      11      10      10       9       7       8
      12       2       4       7       6       6      10       1       7       7
       2       1      11       4       3       9       1       1      11       4
       3       9      11       4       3       8       7      11       4       3
       6       2       5       2      11       4       3       3       1       1
      11       4       3       1       5       4       9       8       4       3
       5       4       3       2       1       1      12      12      11      10
      10       9       7       8      12       2       4       7       6       6
      10       1       7       7       2       1      11       4       3       9
       1       1      11       4       3       9      11       4       3       8
       7      11       4       3       6       2       5       2      11       4
       3       3       1       1      11       4       3       1       5       4
       9       8       4       3       5       4       3       2       1       1
      12      12      11      10      10       9       7       8      12       2
       4       7       6       6      10       1       7       7       2       1
      11       4       3       9       1       1      11       4       3       9
      11       4       3       8       7      11       4       3       6       2
       5       2      11       4       3       3       1       1      11       4
       3       1       5       4       9       8       4       3       5       4
       3       2       1       1      12      12      11      10      10       9
       7       8      12       2       4       7       6       6      10       1
       7       7       2       1      11       4       3       9       1       1
      11       4       3       9      11       4       3       8       7      11
       4       3       6       2       5       2      11       4       3       3
       1       1      11       4       3       1       5       4       9       8
       4       3       5       4       3       2       1       1      12      12
      11      10      10       9       7       8      12       2       4       7
       6       6      10       1       7       7       2       1      11       4
       3       9       1       1      11       4       3       9      11       4
       3       8       7      11       4       3       6       2       5       2
      11       4       3       3       1       1      11       4       3       1
       5       4       9       8       4       3       5       4       3       2
       1       1      12      12      11      10      10       9       7       8
      12       2       4       7       6       6      10       1       7       7
       2       1      11       4       3       9       1       1      11       4
       3       9      11       4       3       8       7      11       4       3
       6       2       5       2      11       4       3       3       1       1
      11       4       3       1       5       4       9       8       4       3
       5       4       3       2       1       1      12      12      11      10
      10       9       7       8      12       2       4       7       6       6
      10       1       7       7       2       1      11       4       3       9
       1       1      11       4       3       9      11       4       3       8
       7      11       4       3       6       2       5       2      11       4
       3       3       1       1      11       4       3       1       5       4
       9       8       4       3       5       4       3       2       1       1
      12      12      11      10      10       9       7       8      12       2
       4       7       6       6      10       1       7       7       2       1
      11       4       3       9       1       1      11       4       3       9
      11       4       3       8       7      11       4       3       6       2
       5       2      11       4       3       3       1       1      11       4
       3       1       5       4       9       8       4       3       5       4
       3       2       1       1      12      12      11      10      10       9
       7       8      12       2       4       7       6       6      10       1
       7       7       2       1      11       4       3       9       1       1
      11       4       3       9      11       4       3       8       7      11
       4       3       6       2       5       2      11       4       3       3
       1       1      11       4       3       1       5       4       9       8
       4       3       5       4       3       2       1       1      12      12
      11      10      10       9       7       8      12       2       4       7
       6       6      10       1       7       7       2       1      11       4
       3       9       1       1      11       4       3       9      11       4
       3       8       7      11       4       3       6       2       5       2
      11       4       3       3       1       1      11       4       3       1
       5       4       9       8       4       3       5       4       3       2
       1       1      12      12      11      10      10       9       7       8
      12       2       4       7       6       6      10       1       7       7
       2       1      11       4       3       9       1       1      11       4
       3       9      11       4       3       8       7      11       4       3
       6       2       5       2      11       4       3       3       1       1
      11       4       3       1       5       4       9       8       4       3
       5       4       3       2       1       1      12      12      11      10
      10       9       7       8      12       2       4       7       6       6
      10       1       7       7       2       1      11       4       3       9
       1       1      11       4       3       9      11       4       3       8
       7      11       4       3       6       2       5       2      11       4
       3       3       1       1      11       4       3       1       5       4
       9       8       4       3       5       4       3       2       1       1
      12      12      11      10      10       9       7       8      12       2
       4       7       6       6      10       1       7       7       2       1
      11       4       3       9       1       1      11       4       3       9
      11       4       3       8       7      11       4       3       6       2
       5       2      11       4       3       3       1       1      11       4
       3       1       5       4       9       8       4       3       5       4
       3       2       1       1      12      12      11      10      10       9
       7       8      12       2       4       7       6       6      10       1
       7       7       2       1      11       4       3       9       1       1
      11       4       3       9      11       4       3       8       7      11
       4       3       6       2       5       2      11       4       3       3
       1       1      11       4       3       1       5       4       9       8
       4       3       5       4       3       2       1       1      12      12
      11      10      10       9       7       8      12       2       4       7
       6       6      10       1       7       7       2       1      11       4
       3       9       1       1      11       4       3       9      11       4
       3       8       7      11       4       3       6       2       5       2
      11       4       3       3       1       1      11       4       3       1
       5       4       9       8       4       3       5       4       3       2
       1       1      12      12      11      10      10       9       7       8
      12       2       4       7       6       6      10       1       7       7
       2       1      11       4       3       9       1       1      11       4
       3       9      11       4       3       8       7      11       4       3
       6       2       5       2      11       4       3       3       1       1
      11       4       3       1       5       4       9       8       4       3
       5       4       3       2       1       1      12      12      11      10
      10       9       7       8      12       2       4       7       6       6
      10       1       7       7       2       1      11       4       3       9
       1       1      11       4       3       9      11       4       3       8
       7      11       4       3       6       2       5       2      11       4
       3       3       1       1      11       4       3       1       5       4
       9       8       4       3       5       4       3       2       1       1
      12      12      11      10      10       9       7       8      12       2
       4       7       6       6      10       1       7       7       2       1
      11       4       3       9       1       1      11       4       3       9
      11       4       3       8       7      11       4       3       6       2
       5       2      11       4       3       3       1       1      11       4
       3       1       5       4       9       8       4       3       5       4
       3       2       1       1      12      12      11      10      10       9
       7       8      12       2       4       7       6       6      10       1
       7       7       2       1      11       4       3       9       1       1
      11       4       3       9      11       4       3       8       7      11
       4       3       6       2       5       2      11       4       3       3
       1       1      11       4       3       1       5       4       9       8
       4       3       5       4       3       2       1       1      12      12
      11      10      10       9       7       8      12       2       4       7
       6       6      10       1       7       7       2       1      11       4
       3       9       1       1      11       4       3       9      11       4
       3       8       7      11       4       3       6       2       5       2
      11       4       3       3       1       1      11       4       3       1
       5       4       9       8       4       3       5       4       3       2
       1       1      12      12      11      10      10       9       7       8
      12       2       4       7       6       6      10       1       7       7
       2       1      11       4       3       9       1       1      11       4
       3       9      11       4       3       8       7      11       4       3
       6       2       5       2      11       4       3       3       1       1
      11       4       3       1       5       4       9       8       4       3
       5       4       3       2       1       1      12      12      11      10
      10       9       7       8      12       2       4       7       6       6
      10       1       7       7       2       1      11       4       3       9
       1       1      11       4       3       9      11       4       3       8
       7      11       4       3       6       2       5       2      11       4
       3       3       1       1      11       4       3       1       5       4
       9       8       4       3       5       4       3       2       1       1
      12      12      11      10      10       9       7       8      12       2
       4       7       6       6      10       1       7       7       2       1
      11       4       3       9       1       1      11       4       3       9
      11       4       3       8       7      11       4       3       6       2
       5       2      11       4       3       3       1       1      11       4
       3       1       5       4       9       8       4       3       5       4
       3       2       1       1      12      12      11      10      10       9
       7       8      12       2       4       7       6       6      10       1
       7       7       2       1      11       4       3       9       1       1
      11       4       3       9      11       4       3       8       7      11
       4       3       6       2       5       2      11       4       3       3
       1       1      11       4       3       1       5       4       9       8
       4       3       5       4       3       2       1       1      12      12
      11      10      10       9       7       8      12       2       4       7
       6       6      10       1       7       7       2       1      11       4
       3       9       1       1      11       4       3       9      11       4
       3       8       7      11       4       3       6       2       5       2
      11       4       3       3       1       1      11       4       3       1
       5       4       9       8       4       3       5       4       3       2
       1       1      12      12      11      10      10       9       7       8
      12       2       4       7       6       6      10       1       7       7
       2       1      11       4       3       9       1       1      11       4
       3       9      11       4       3       8       7      11       4       3
       6       2       5       2      11       4       3       3       1       1
      11       4       3       1       5       4       9       8       4       3
       5       4       3       2       1       1      12      12      11      10
      10       9       7       8      12       2       4       7       6       6
      10       1       7       7       2       1      11       4       3       9
       1       1      11       4       3       9      11       4       3       8
       7      11       4       3       6       2       5       2      11       4
       3       3       1       1      11       4       3       1       5       4
       9       8       4       3       5       4       3       2       1       1
      12      12      11      10      10       9       7       8      12       2
       4       7       6       6      10       1       7       7       2       1
      11       4       3       9       1       1      11       4       3       9
      11       4       3       8       7      11       4       3       6       2
       5       2      11       4       3       3       1       1      11       4
       3       1       5       4       9       8       4       3       5       4
       3       2       1       1      12      12      11      10      10       9
       7       8      12       2       4       7       6       6      10       1
       7       7       2       1      11       4       3       9       1       1
      11       4       3       9      11       4       3       8       7      11
       4       3       6       2       5       2      11       4       3       3
       1       1      11       4       3       1       5       4       9       8
       4       3       5       4       3       2       1       1      12      12
      11      10      10       9       7       8      12       2       4       7
       6       6      10       1       7       7       2       1      11       4
       3       9       1       1      11       4       3       9      11       4
       3       8       7      11       4       3       6       2       5       2
      11       4       3       3       1       1      11       4       3       1
       5       4       9       8       4       3       5       4       3       2
       1       1      12      12      11      10      10       9       7       8
      12       2       4       7       6       6      10       1       7       7
       2       1      11       4       3       9       1       1      11       4
       3       9      11       4       3       8       7      11       4       3
       6       2       5       2      11       4       3       3       1       1
      11       4       3       1       5       4       9       8       4       3
       5       4       3       2       1       1      12      12      11      10
      10       9       7       8      12       2       4       7       6       6
      10       1       7       7       2       1      11       4       3       9
       1       1      11       4       3       9      11       4       3       8
       7      11       4       3       6       2       5       2      11       4
       3       3       1       1      11       4       3       1       5       4
       9       8       4       3       5       4       3       2       1       1
      12      12      11      10      10       9       7       8      12       2
       4       7       6       6      10       1       7       7       2       1
      11       4       3       9       1       1      11       4       3       9
      11       4       3       8       7      11       4       3       6       2
       5       2      11       4       3       3       1       1      11       4
       3       1       5       4       9       8       4       3       5       4
       3       2       1       1      12      12      11      10      10       9
       7       8      12       2       4       7       6       6      10       1
       7       7       2       1      11       4       3       9       1       1
      11       4       3       9      11       4       3       8       7      11
       4       3       6       2       5       2      11       4       3       3
       1       1      11       4       3       1       5       4       9       8
       4       3       5       4       3       2       1       1      12      12
      11      10      10       9       7       8      12       2       4       7
       6       6      10       1       7       7       2       1      11       4
       3       9       1       1      11       4       3       9      11       4
       3       8       7      11       4       3       6       2       5       2
      11       4       3       3       1       1      11       4       3       1
       5       4       9       8       4       3       5       4       3       2
       1       1      12      12      11      10      10       9       7       8
      12       2       4       7       6       6      10       1       7       7
       2       1      11       4       3       9       1       1      11       4
       3       9      11       4       3       8       7      11       4       3
       6       2       5       2      11       4       3       3       1       1
      11       4       3       1       5       4       9       8       4       3
       5       4       3       2       1       1      12      12      11      10
      10       9       7       8      12       2       4       7       6       6
      10       1       7       7       2       1      11       4       3       9
       1       1      11       4       3       9      11       4       3       8
       7      11       4       3       6       2       5       2      11       4
       3       3       1       1      11       4       3       1       5       4
       9       8       4       3       5       4       3       2       1       1
      12      12      11      10      10       9       7       8      12       2
       4       7       6       6      10       1       7       7       2       1
      11       4       3       9       1       1      11       4       3       9
      11       4       3       8       7      11       4       3       6       2
       5       2      11       4       3       3       1       1      11       4
       3       1       5       4       9       8       4       3       5       4
       3       2       1       1      12      12      11      10      10       9
       7       8      12       2       4       7       6       6      10       1
       7       7       2       1      11       4       3       9       1       1
      11       4       3       9      11       4       3       8       7      11
       4       3       6       2       5       2      11       4       3       3
       1       1      11       4       3       1       5       4       9       8
       4       3       5       4       3       2       1       1      12      12
      11      10      10       9       7       8      12       2       4       7
       6       6      10       1       7       7       2       1      11       4
       3       9       1       1      11       4       3       9      11       4
       3       8       7      11       4       3       6       2       5       2
      11       4       3       3       1       1      11       4       3       1
       5       4       9       8       4       3       5       4       3       2
       1       1      12      12      11      10      10       9       7       8
      12       2       4       7       6       6      10       1       7       7
       2       1      11       4       3       9       1       1      11       4
       3       9      11       4       3       8       7      11       4       3
       6       2       5       2      11       4       3       3       1       1
      11       4       3       1       5       4       9       8       4       3
       5       4       3       2       1       1      12      12      11      10
      10       9       7       8      12       2       4       7       6       6
      10       1       7       7       2       1      11       4       3       9
       1       1      11       4       3       9      11       4       3       8
       7      11       4       3       6       2       5       2      11       4
       3       3       1       1      11       4       3       1       5       4
       9       8       4       3       5       4       3       2       1       1
      12      12      11      10      10       9       7       8      12       2
       4       7       6       6      10       1       7       7       2       1
      11       4       3       9       1       1      11       4       3       9
      11       4       3       8       7      11       4       3       6       2
       5       2      11       4       3       3       1       1      11       4
       3       1       5       4       9       8       4       3       5       4
       3       2       1       1      12      12      11      10      10       9
       7       8      12       2       4       7       6       6      10       1
       7       7       2       1      11       4       3       9       1       1
      11       4       3       9      11       4       3       8       7      11
       4       3       6       2       5       2      11       4       3       3
       1       1      11       4       3       1       5       4       9       8
       4       3       5       4       3       2       1       1      12      12
      11      10      10       9       7       8      12       2       4       7
       6       6      10       1       7       7       2       1      11       4
       3       9       1       1      11       4       3       9      11       4
       3       8       7      11       4       3       6       2       5       2
      11       4       3       3       1       1      11       4       3       1
       5       4       9       8       4       3       5       4       3       2
       1       1      12      12      11      10      10       9       7       8
      12       2       4       7       6       6      10       1       7       7
       2       1      11       4       3       9       1       1      11       4
       3       9      11       4       3       8       7      11       4       3
       6       2       5       2      11       4       3       3       1       1
      11       4       3       1       5       4       9       8       4       3
       5       4       3       2       1       1      12      12      11      10
      10       9       7       8      12       2       4       7       6       6
      10       1       7       7       2       1      11       4       3       9
       1       1      11       4       3       9      11       4       3       8
       7      11       4       3       6       2       5       2      11       4
       3       3       1       1      11       4       3       1       5       4
       9       8       4       3       5       4       3       2       1       1
      12      12      11      10      10       9       7       8      12       2
       4       7       6       6      10       1       7       7       2       1
      11       4       3       9       1       1      11       4       3       9
      11       4       3       8       7      11       4       3       6       2
       5       2      11       4       3       3       1       1      11       4
       3       1       5       4       9       8       4       3       5       4
       3       2       1       1      12      12      11      10      10       9
       7       8      12       2       4       7       6       6      10       1
       7       7       2       1      11       4       3       9       1       1
      11       4       3       9      11       4       3       8       7      11
       4       3       6       2       5       2      11       4       3       3
       1       1      11       4       3       1       5       4       9       8
       4       3       5       4       3       2       1       1      12      12
      11      10      10       9       7       8      12       2       4       7
       6       6      10       1       7       7       2       1      11       4
       3       9       1       1      11       4       3       9      11       4
       3       8       7      11       4       3       6       2       5       2
      11       4       3       3       1       1      11       4       3       1
       5       4       9       8       4       3       5       4       3       2
       1       1      12      12      11      10      10       9       7       8
      12       2       4       7       6       6      10       1       7       7
       2       1      11       4       3       9       1       1      11       4
       3       9      11       4       3       8       7      11       4       3
       6       2       5       2      11       4       3       3       1       1
      11       4       3       1       5       4       9       8       4       3
       5       4       3       2       1       1      12      12      11      10
      10       9       7       8      12       2       4       7       6       6
      10       1       7       7       2       1      11       4       3       9
       1       1      11       4       3       9      11       4       3       8
       7      11       4       3       6       2       5       2      11       4
       3       3       1       1      11       4       3       1       5       4
       9       8       4       3       5       4       3       2       1       1
      12      12      11      10      10       9       7       8      12       2
       4       7       6       6      10       1       7       7       2       1
      11       4       3       9       1       1      11       4       3       9
      11       4       3       8       7      11       4       3       6       2
       5       2      11       4       3       3       1       1      11       4
       3       1       5       4       9       8       4       3       5       4
       3       2       1       1      12      12      11      10      10       9
       7       8      12       2       4       7       6       6      10       1
       7       7       2       1      11       4       3       9       1       1
      11       4       3       9      11       4       3       8       7      11
       4       3       6       2       5       2      11       4       3       3
       1       1      11       4       3       1       5       4       9       8
       4       3       5       4       3       2       1       1      12      12
      11      10      10       9       7       8      12       2       4       7
       6       6      10       1       7       7       2       1      11       4
       3       9       1       1      11       4       3       9      11       4
       3       8       7      11       4       3       6       2       5       2
      11       4       3       3       1       1      11       4       3       1
       5       4       9       8       4       3       5       4       3       2
       1       1      12      12      11      10      10       9       7       8
      12       2       4       7       6       6      10       1       7       7
       2       1      11       4       3       9       1       1      11       4
       3       9      11       4       3       8       7      11       4       3
       6       2       5       2      11       4       3       3       1       1
      11       4       3       1       5       4       9       8       4       3
       5       4       3       2       1       1      12      12      11      10
      10       9       7       8      12       2       4       7       6       6
      10       1       7       7       2       1      11       4       3       9
       1       1      11       4       3       9      11       4       3       8
       7      11       4       3       6       2       5       2      11       4
       3       3       1       1      11       4       3       1       5       4
       9       8       4       3       5       4       3       2       1       1
      12      12      11      10      10       9       7       8      12       2
       4       7       6       6      10       1       7       7       2       1
      11       4       3       9       1       1      11       4       3       9
      11       4       3       8       7      11       4       3       6       2
       5       2      11       4       3       3       1       1      11       4
       3       1       5       4       9       8       4       3       5       4
       3       2       1       1      12      12      11      10      10       9
       7       8      12       2       4       7       6       6      10       1
       7       7       2       1      11       4       3       9       1       1
      11       4       3       9      11       4       3       8       7      11
       4       3       6       2       5       2      11       4       3       3
       1       1      11       4       3       1       5       4       9       8
       4       3       5       4       3       2       1       1      12      12
      11      10      10       9       7       8      12       2       4       7
       6       6      10       1       7       7       2       1      11       4
       3       9       1       1      11       4       3       9      11       4
       3       8       7      11       4       3       6       2       5       2
      11       4       3       3       1       1      11       4       3       1
       5       4       9       8       4       3       5       4       3       2
       1       1      12      12      11      10      10       9       7       8
      12       2       4       7       6       6      10       1       7       7
       2       1      11       4       3       9       1       1      11       4
       3       9      11       4       3       8       7      11       4       3
       6       2       5       2      11       4       3       3       1       1
      11       4       3       1       5       4       9       8       4       3
       5       4       3       2       1       1      12      12      11      10
      10       9       7       8      12       2       4       7       6       6
      10       1       7       7       2       1      11       4       3       9
       1       1      11       4       3       9      11       4       3       8
       7      11       4       3       6       2       5       2      11       4
       3       3       1       1      11       4       3       1       5       4
       9       8       4       3       5       4       3       2       1       1
      12      12      11      10      10       9       7       8      12       2
       4       7       6       6      10       1       7       7       2       1
      11       4       3       9       1       1      11       4       3       9
      11       4       3       8       7      11       4       3       6       2
       5       2      11       4       3       3       1       1      11       4
       3       1       5       4       9       8       4       3       5       4
       3       2       1       1      12      12      11      10      10       9
       7       8      12       2       4       7       6       6      10       1
       7       7       2       1      11       4       3       9       1       1
      11       4       3       9      11       4       3       8       7      11
       4       3       6       2       5       2      11       4       3       3
       1       1      11       4       3       1       5       4       9       8
       4       3       5       4       3       2       1       1      12      12
      11      10      10       9       7       8      12       2       4       7
       6       6      10       1       7       7       2       1      11       4
       3       9       1       1      11       4       3       9      11       4
       3       8       7      11       4       3       6       2       5       2
      11       4       3       3       1       1      11       4       3       1
       5       4       9       8       4       3       5       4       3       2
       1       1      12      12      11      10      10       9       7       8
      12       2       4       7       6       6      10       1       7       7
       2       1      11       4       3       9       1       1      11       4
       3       9      11       4       3       8       7      11       4       3
       6       2       5       2      11       4       3       3       1       1
      11       4       3       1       5       4       9       8       4       3
       5       4       3       2       1       1      12      12      11      10
      10       9       7       8      12       2       4       7       6       6
      10       1       7       7       2       1      11       4       3       9
       1       1      11       4       3       9      11       4       3       8
       7      11       4       3       6       2       5       2      11       4
       3       3       1       1      11       4       3       1       5       4
       9       8       4       3       5       4       3       2       1       1
      12      12      11      10      10       9       7       8      12       2
       4       7       6       6      10       1       7       7       2       1
      11       4       3       9       1       1      11       4       3       9
      11       4       3       8       7      11       4       3       6       2
       5       2      11       4       3       3       1       1      11       4
       3       1       5       4       9       8       4       3       5       4
       3       2       1       1      12      12      11      10      10       9
       7       8      12       2       4       7       6       6      10       1
       7       7       2       1      11       4       3       9       1       1
      11       4       3       9      11       4       3       8       7      11
       4       3       6       2       5       2      11       4       3       3
       1       1      11       4       3       1       5       4       9       8
       4       3       5       4       3       2       1       1      12      12
      11      10      10       9       7       8      12       2       4       7
       6       6      10       1       7       7       2       1      11       4
       3       9       1       1      11       4       3       9      11       4
       3       8       7      11       4       3       6       2       5       2
      11       4       3       3       1       1      11       4       3       1
       5       4       9       8       4       3       5       4       3       2
       1       1      12      12      11      10      10       9       7       8
      12       2       4       7       6       6      10       1       7       7
       2       1      11       4       3       9       1       1      11       4
       3       9      11       4       3       8       7      11       4       3
       6       2       5       2      11       4       3       3       1       1
      11       4       3       1       5       4       9       8       4       3
       5       4       3       2       1       1      12      12      11      10
      10       9       7       8      12       2       4       7       6       6
      10       1       7       7       2       1      11       4       3       9
       1       1      11       4       3       9      11       4       3       8
       7      11       4       3       6       2       5       2      11       4
       3       3       1       1      11       4       3       1       5       4
       9       8       4       3       5       4       3       2       1       1
      12      12      11      10      10       9       7       8      12       2
       4       7       6       6      10       1       7       7       2       1
      11       4       3       9       1       1      11       4       3       9
      11       4       3       8       7      11       4       3       6       2
       5       2      11       4       3       3       1       1      11       4
       3       1       5       4       9       8       4       3       5       4
       3       2       1       1      12      12      11      10      10       9
       7       8      12       2       4       7       6       6      10       1
       7       7       2       1      11       4       3       9       1       1
      11       4       3       9      11       4       3       8       7      11
       4       3       6       2       5       2      11       4       3       3
       1       1      11       4       3       1       5       4       9       8
       4       3       5       4       3       2       1       1      12      12
      11      10      10       9       7       8      12       2       4       7
       6       6      10       1       7       7       2       1      11       4
       3       9       1       1      11       4       3       9      11       4
       3       8       7      11       4       3       6       2       5       2
      11       4       3       3       1       1      11       4       3       1
       5       4       9       8       4       3       5       4       3       2
       1       1      12      12      11      10      10       9       7       8
      12       2       4       7       6       6      10       1       7       7
       2       1      11       4       3       9       1       1      11       4
       3       9      11       4       3       8       7      11       4       3
       6       2       5       2      11       4       3       3       1       1
      11       4       3       1       5       4       9       8       4       3
       5       4       3       2       1       1      12      12      11      10
      10       9       7       8      12       2       4       7       6       6
      10       1       7       7       2       1      11       4       3       9
       1       1      11       4       3       9      11       4       3       8
       7      11       4       3       6       2       5       2      11       4
       3       3       1       1      11       4       3       1       5       4
       9       8       4       3       5       4       3       2       1       1
      12      12      11      10      10       9       7       8      12       2
       4       7       6       6      10       1       7       7       2       1
      11       4       3       9       1       1      11       4       3       9
      11       4       3       8       7      11       4       3       6       2
       5       2      11       4       3       3       1       1      11       4
       3       1       5       4       9       8       4       3       5       4
       3       2       1       1      12      12      11      10      10       9
       7       8      12       2       4       7       6       6      10       1
       7       7       2       1      11       4       3       9       1       1
      11       4       3       9      11       4       3       8       7      11
       4       3       6       2       5       2      11       4       3       3
       1       1      11       4       3       1       5       4       9       8
       4       3       5       4       3       2       1       1      12      12
      11      10      10       9       7       8      12       2       4       7
       6       6      10       1       7       7       2       1      11       4
       3       9       1       1      11       4       3       9      11       4
       3       8       7      11       4       3       6       2       5       2
      11       4       3       3       1       1      11       4       3       1
       5       4       9       8       4       3       5       4       3       2
       1       1      12      12      11      10      10       9       7       8
      12       2       4       7       6       6      10       1       7       7
       2       1      11       4       3       9       1       1      11       4
       3       9      11       4       3       8       7      11       4       3
       6       2       5       2      11       4       3       3       1       1
      11       4       3       1       5       4       9       8       4       3
       5       4       3       2       1       1      12      12      11      10
      10       9       7       8      12       2       4       7       6       6
      10       1       7       7       2       1      11       4       3       9
       1       1      11       4       3       9      11       4       3       8
       7      11       4       3       6       2       5       2      11       4
       3       3       1       1      11       4       3       1       5       4
       9       8       4       3       5       4       3       2       1       1
      12      12      11      10      10       9       7       8      12       2
       4       7       6       6      10       1       7       7       2       1
      11       4       3       9       1       1      11       4       3       9
      11       4       3       8       7      11       4       3       6       2
       5       2      11       4       3       3       1       1      11       4
       3       1       5       4       9       8       4       3       5       4
       3       2       1       1      12      12      11      10      10       9
       7       8      12       2       4       7       6       6      10       1
       7       7       2       1      11       4       3       9       1       1
      11       4       3       9      11       4       3       8       7      11
       4       3       6       2       5       2      11       4       3       3
       1       1      11       4       3       1       5       4       9       8
       4       3       5       4       3       2       1       1      12      12
      11      10      10       9       7       8      12       2       4       7
       6       6      10       1       7       7       2       1      11       4
       3       9       1       1      11       4       3       9      11       4
       3       8       7      11       4       3       6       2       5       2
      11       4       3       3       1       1      11       4       3       1
       5       4       9       8       4       3       5       4       3       2
       1       1      12      12      11      10      10       9       7       8
      12       2       4       7       6       6      10       1       7       7
       2       1      11       4       3       9       1       1      11       4
       3       9      11       4       3       8       7      11       4       3
       6       2       5       2      11       4       3       3       1       1
      11       4       3       1       5       4       9       8       4       3
       5       4       3       2       1       1      12      12      11      10
      10       9       7       8      12       2       4       7       6       6
      10       1       7       7       2       1      11       4       3       9
       1       1      11       4       3       9      11       4       3       8
       7      11       4       3       6       2       5       2      11       4
       3       3       1       1      11       4       3       1       5       4
       9       8       4       3       5       4       3       2       1       1
      12      12      11      10      10       9       7       8      12       2
       4       7       6       6      10       1       7       7       2       1
      11       4       3       9       1       1      11       4       3       9
      11       4       3       8       7      11       4       3       6       2
       5       2      11       4       3       3       1       1      11       4
       3       1       5       4       9       8       4       3       5       4
       3       2       1       1      12      12      11      10      10       9
       7       8      12       2       4       7       6       6      10       1
       7       7       2       1      11       4       3       9       1       1
      11       4       3       9      11       4       3       8       7      11
       4       3       6       2       5       2      11       4       3       3
       1       1      11       4       3       1       5       4       9       8
       4       3       5       4       3       2       1       1      12      12
      11      10      10       9       7       8      12       2       4       7
       6       6      10       1       7       7       2       1      11       4
       3       9       1       1      11       4       3       9      11       4
       3       8       7      11       4       3       6       2       5       2
      11       4       3       3       1       1      11       4       3       1
       5       4       9       8       4       3       5       4       3       2
       1       1      12      12      11      10      10       9       7       8
      12       2       4       7       6       6      10       1       7       7
       2       1      11       4       3       9       1       1      11       4
       3       9      11       4       3       8       7      11       4       3
       6       2       5       2      11       4       3       3       1       1
      11       4       3       1       5       4       9       8       4       3
       5       4       3       2       1       1      12      12      11      10
      10       9       7       8      12       2       4       7       6       6
      10       1       7       7       2       1      11       4       3       9
       1       1      11       4       3       9      11       4       3       8
       7      11       4       3       6       2       5       2      11       4
       3       3       1       1      11       4       3       1       5       4
       9       8       4       3       5       4       3       2       1       1
      12      12      11      10      10       9       7       8      12       2
       4       7       6       6      10       1       7       7       2       1
      11       4       3       9       1       1      11       4       3       9
      11       4       3       8       7      11       4       3       6       2
       5       2      11       4       3       3       1       1      11       4
       3       1       5       4       9       8       4       3       5       4
       3       2       1       1      12      12      11      10      10       9
       7       8      12       2       4       7       6       6      10       1
       7       7       2       1      11       4       3       9       1       1
      11       4       3       9      11       4       3       8       7      11
       4       3       6       2       5       2      11       4       3       3
       1       1      11       4       3       1       5       4       9       8
       4       3       5       4       3       2       1       1      12      12
      11      10      10       9       7       8      12       2       4       7
       6       6      10       1       7       7       2       1      11       4
       3       9       1       1      11       4       3       9      11       4
       3       8       7      11       4       3       6       2       5       2
      11       4       3       3       1       1      11       4       3       1
       5       4       9       8       4       3       5       4       3       2
       1       1      12      12      11      10      10       9       7       8
      12       2       4       7       6       6      10       1       7       7
       2       1      11       4       3       9       1       1      11       4
       3       9      11       4       3       8       7      11       4       3
       6       2       5       2      11       4       3       3       1       1
      11       4       3       1       5       4       9       8       4       3
       5       4       3       2       1       1      12      12      11      10
      10       9       7       8      12       2       4       7       6       6
      10       1       7       7       2       1      11       4       3       9
       1       1      11       4       3       9      11       4       3       8
       7      11       4       3       6       2       5       2      11       4
       3       3       1       1      11       4       3       1       5       4
       9       8       4       3       5       4       3       2       1       1
      12      12      11      10      10       9       7       8      12       2
       4       7       6       6      10       1       7       7       2       1
      11       4       3       9       1       1      11       4       3       9
      11       4       3       8       7      11       4       3       6       2
       5       2      11       4       3       3       1       1      11       4
       3       1       5       4       9       8       4       3       5       4
       3       2       1       1      12      12      11      10      10       9
       7       8      12       2       4       7       6       6      10       1
       7       7       2       1      11       4       3       9       1       1
      11       4       3       9      11       4       3       8       7      11
       4       3       6       2       5       2      11       4       3       3
       1       1      11       4       3       1       5       4       9       8
       4       3       5       4       3       2       1       1      12      12
      11      10      10       9       7       8      12       2       4       7
       6       6      10       1       7       7       2       1      11       4
       3       9       1       1      11       4       3       9      11       4
       3       8       7      11       4       3       6       2       5       2
      11       4       3       3       1       1      11       4       3       1
       5       4       9       8       4       3       5       4       3       2
       1       1      12      12      11      10      10       9       7       8
      12       2       4       7       6       6      10       1       7       7
       2       1      11       4       3       9       1       1      11       4
       3       9      11       4       3       8       7      11       4       3
       6       2       5       2      11       4       3       3       1       1
      11       4       3       1       5       4       9       8       4       3
       5       4       3       2       1       1      12      12      11      10
      10       9       7       8      12       2       4       7       6       6
      10       1       7       7       2       1      11       4       3       9
       1       1      11       4       3       9      11       4       3       8
       7      11       4       3       6       2       5       2      11       4
       3       3       1       1      11       4       3       1       5       4
       9       8       4       3       5       4       3       2       1       1
      12      12      11      10      10       9       7       8      12       2
       4       7       6       6      10       1       7       7       2       1
      11       4       3       9       1       1      11       4       3       9
      11       4       3       8       7      11       4       3       6       2
       5       2      11       4       3       3       1       1      11       4
       3       1       5       4       9       8       4       3       5       4
       3       2       1       1      12      12      11      10      10       9
       7       8      12       2       4       7       6       6      10       1
       7       7       2       1      11       4       3       9       1       1
      11       4       3       9      11       4       3       8       7      11
       4       3       6       2       5       2      11       4       3       3
       1       1      11       4       3       1       5       4       9       8
       4       3       5       4       3       2       1       1      12      12
      11      10      10       9       7       8      12       2       4       7
       6       6      10       1       7       7       2       1      11       4
       3       9       1       1      11       4       3       9      11       4
       3       8       7      11       4       3       6       2       5       2
      11       4       3       3       1       1      11       4       3       1
       5       4       9       8       4       3       5       4       3       2
       1       1      12      12      11      10      10       9       7       8
      12       2       4       7       6       6      10       1       7       7
       2       1      11       4       3       9       1       1      11       4
       3       9      11       4       3       8       7      11       4       3
       6       2       5       2      11       4       3       3       1       1
      11       4       3       1       5       4       9       8       4       3
       5       4       3       2       1       1      12      12      11      10
      10       9       7       8      12       2       4       7       6       6
      10       1       7       7       2       1      11       4       3       9
       1       1      11       4       3       9      11       4       3       8
       7      11       4       3       6       2       5       2      11       4
       3       3       1       1      11       4       3       1       5       4
       9       8       4       3       5       4       3       2       1       1
      12      12      11      10      10       9       7       8      12       2
       4       7       6       6      10       1       7       7       2       1
      11       4       3       9       1       1      11       4       3       9
      11       4       3       8       7      11       4       3       6       2
       5       2      11       4       3       3       1       1      11       4
       3       1       5       4       9       8       4       3       5       4
       3       2       1       1      12      12      11      10      10       9
       7       8      12       2       4       7       6       6      10       1
       7       7       2       1      11       4       3       9       1       1
      11       4       3       9      11       4       3       8       7      11
       4       3       6       2       5       2      11       4       3       3
       1       1      11       4       3       1       5       4       9       8
       4       3       5       4       3       2       1       1      12      12
      11      10      10       9       7       8      12       2       4       7
       6       6      10       1       7       7       2       1      11       4
       3       9       1       1      11       4       3       9      11       4
       3       8       7      11       4       3       6       2       5       2
      11       4       3       3       1       1      11       4       3       1
       5       4       9       8       4       3       5       4       3       2
       1       1      12      12      11      10      10       9       7       8
      12       2       4       7       6       6      10       1       7       7
       2       1      11       4       3       9       1       1      11       4
       3       9      11       4       3       8       7      11       4       3
       6       2       5       2      11       4       3       3       1       1
      11       4       3       1       5       4       9       8       4       3
       5       4       3       2       1       1      12      12      11      10
      10       9       7       8      12       2       4       7       6       6
      10       1       7       7       2       1      11       4       3       9
       1       1      11       4       3       9      11       4       3       8
       7      11       4       3       6       2       5       2      11       4
       3       3       1       1      11       4       3       1       5       4
       9       8       4       3       5       4       3       2       1       1
      12      12      11      10      10       9       7       8      12       2
       4       7       6       6      10       1       7       7       2       1
      11       4       3       9       1       1      11       4       3       9
      11       4       3       8       7      11       4       3       6       2
       5       2      11       4       3       3       1       1      11       4
       3       1       5       4       9       8       4       3       5       4
       3       2       1       1      12      12      11      10      10       9
       7       8      12       2       4       7       6       6      10       1
       7       7       2       1      11       4       3       9       1       1
      11       4       3       9      11       4       3       8       7      11
       4       3       6       2       5       2      11       4       3       3
       1       1      11       4       3       1       5       4       9       8
       4       3       5       4       3       2       1       1      12      12
      11      10      10       9       7       8      12       2       4       7
       6       6      10       1       7       7       2       1      11       4
       3       9       1       1      11       4       3       9      11       4
       3       8       7      11       4       3       6       2       5       2
      11       4       3       3       1       1      11       4       3       1
       5       4       9       8       4       3       5       4       3       2
       1       1      12      12      11      10      10       9       7       8
      12       2       4       7       6       6      10       1       7       7
       2       1      11       4       3       9       1       1      11       4
       3       9      11       4       3       8       7      11       4       3
       6       2       5       2      11       4       3       3       1       1
      11       4       3       1       5       4       9       8       4       3
       5       4       3       2       1       1      12      12      11      10
      10       9       7       8      12       2       4       7       6       6
      10       1       7       7       2       1      11       4       3       9
       1       1      11       4       3       9      11       4       3       8
       7      11       4       3       6       2       5       2      11       4
       3       3       1       1      11       4       3       1       5       4
       9       8       4       3       5       4       3       2       1       1
      12      12      11      10      10       9       7       8      12       2
       4       7       6       6      10       1       7       7       2       1
      11       4       3       9       1       1      11       4       3       9
      11       4       3       8       7      11       4       3       6       2
       5       2      11       4       3       3       1       1      11       4
       3       1       5       4       9       8       4       3       5       4
       3       2       1       1      12      12      11      10      10       9
       7       8      12       2       4       7       6       6      10       1
       7       7       2       1      11       4       3       9       1       1
      11       4       3       9      11       4       3       8       7      11
       4       3       6       2       5       2      11       4       3       3
       1       1      11       4       3       1       5       4       9       8
       4       3       5       4       3       2       1       1      12      12
      11      10      10       9       7       8      12       2       4       7
       6       6      10       1       7       7       2       1      11       4
       3       9       1       1      11       4       3       9      11       4
       3       8       7      11       4       3       6       2       5       2
      11       4       3       3       1       1      11       4       3       1
       5       4       9       8       4       3       5       4       3       2
       1       1      12      12      11      10      10       9       7       8
      12       2       4       7       6       6      10       1       7       7
       2       1      11       4       3       9       1       1      11       4
       3       9      11       4       3       8       7      11       4       3
       6       2       5       2      11       4       3       3       1       1
      11       4       3       1       5       4       9       8       4       3
       5       4       3       2       1       1      12      12      11      10
      10       9       7       8      12       2       4       7       6       6
      10       1       7       7       2       1      11       4       3       9
       1       1      11       4       3       9      11       4       3       8
       7      11       4       3       6       2       5       2      11       4
       3       3       1       1      11       4       3       1       5       4
       9       8       4       3       5       4       3       2       1       1
      12      12      11      10      10       9       7       8      12       2
       4       7       6       6      10       1       7       7       2       1
      11       4       3       9       1       1      11       4       3       9
      11       4       3       8       7      11       4       3       6       2
       5       2      11       4       3       3       1       1      11       4
       3       1       5       4       9       8       4       3       5       4
       3       2       1       1      12      12      11      10      10       9
       7       8      12       2       4       7       6       6      10       1
       7       7       2       1      11       4       3       9       1       1
      11       4       3       9      11       4       3       8       7      11
       4       3       6       2       5       2      11       4       3       3
       1       1      11       4       3       1       5       4       9       8
       4       3       5       4       3       2       1       1      12      12
      11      10      10       9       7       8      12       2       4       7
       6       6      10       1       7       7       2       1      11       4
       3       9       1       1      11       4       3       9      11       4
       3       8       7      11       4       3       6       2       5       2
      11       4       3       3       1       1      11       4       3       1
       5       4       9       8       4       3       5       4       3       2
       1       1      12      12      11      10      10       9       7       8
      12       2       4       7       6       6      10       1       7       7
       2       1      11       4       3       9       1       1      11       4
       3       9      11       4       3       8       7      11       4       3
       6       2       5       2      11       4       3       3       1       1
      11       4       3       1       5       4       9       8       4       3
       5       4       3       2       1       1      12      12      11      10
      10       9       7       8      12       2       4       7       6       6
      10       1       7       7       2       1      11       4       3       9
       1       1      11       4       3       9      11       4       3       8
       7      11       4       3       6       2       5       2      11       4
       3       3       1       1      11       4       3       1       5       4
       9       8       4       3       5       4       3       2       1       1
      12      12      11      10      10       9       7       8      12       2
       4       7       6       6      10       1       7       7       2       1
      11       4       3       9       1       1      11       4       3       9
      11       4       3       8       7      11       4       3       6       2
       5       2      11       4       3       3       1       1      11       4
       3       1       5       4       9       8       4       3       5       4
       3       2       1       1      12      12      11      10      10       9
       7       8      12       2       4       7       6       6      10       1
       7       7       2       1      11       4       3       9       1       1
      11       4       3       9      11       4       3       8       7      11
       4       3       6       2       5       2      11       4       3       3
       1       1      11       4       3       1       5       4       9       8
       4       3       5       4       3       2       1       1      12      12
      11      10      10       9       7       8      12       2       4       7
       6       6      10       1       7       7       2       1      11       4
       3       9       1       1      11       4       3       9      11       4
       3       8       7      11       4       3       6       2       5       2
      11       4       3       3       1       1      11       4       3       1
       5       4       9       8       4       3       5       4       3       2
       1       1      12      12      11      10      10       9       7       8
      12       2       4       7       6       6      10       1       7       7
       2       1      11       4       3       9       1       1      11       4
       3       9      11       4       3       8       7      11       4       3
       6       2       5       2      11       4       3       3       1       1
      11       4       3       1       5       4       9       8       4       3
       5       4       3       2       1       1      12      12      11      10
      10       9       7       8      12       2       4       7       6       6
      10       1       7       7       2       1      11       4       3       9
       1       1      11       4       3       9      11       4       3       8
       7      11       4       3       6       2       5       2      11       4
       3       3       1       1      11       4       3       1       5       4
       9       8       4       3       5       4       3       2       1       1
      12      12      11      10      10       9       7       8      12       2
       4       7       6       6      10       1       7       7       2       1
      11       4       3       9       1       1      11       4       3       9
      11       4       3       8       7      11       4       3       6       2
       5       2      11       4       3       3       1       1      11       4
       3       1       5       4       9       8       4       3       5       4
       3       2       1       1      12      12      11      10      10       9
       7       8      12       2       4       7       6       6      10       1
       7       7       2       1      11       4       3       9       1       1
      11       4       3       9      11       4       3       8       7      11
       4       3       6       2       5       2      11       4       3       3
       1       1      11       4       3       1       5       4       9       8
       4       3       5       4       3       2       1       1      12      12
      11      10      10       9       7       8      12       2       4       7
       6       6      10       1       7       7       2       1      11       4
       3       9       1       1      11       4       3       9      11       4
       3       8       7      11       4       3       6       2       5       2
      11       4       3       3       1       1      11       4       3       1
       5       4       9       8       4       3       5       4       3       2
       1       1      12      12      11      10      10       9       7       8
      12       2       4       7       6       6      10       1       7       7
       2       1      11       4       3       9       1       1      11       4
       3       9      11       4       3       8       7      11       4       3
       6       2       5       2      11       4       3       3       1       1
      11       4       3       1       5       4       9       8       4       3
       5       4       3       2       1       1      12      12      11      10
      10       9       7       8      12       2       4       7       6       6
      10       1       7       7       2       1      11       4       3       9
       1       1      11       4       3       9      11       4       3       8
       7      11       4       3       6       2       5       2      11       4
       3       3       1       1      11       4       3       1       5       4
       9       8       4       3       5       4       3       2       1       1
      12      12      11      10      10       9       7       8      12       2
       4       7       6       6      10       1       7       7       2       1
      11       4       3       9       1       1      11       4       3       9
      11       4       3       8       7      11       4       3       6       2
       5       2      11       4       3       3       1       1      11       4
       3       1       5       4       9       8       4       3       5       4
       3       2       1       1      12      12      11      10      10       9
       7       8      12       2       4       7       6       6      10       1
       7       7       2       1      11       4       3       9       1       1
      11       4       3       9      11       4       3       8       7      11
       4       3       6       2       5       2      11       4       3       3
       1       1      11       4       3       1       5       4       9       8
       4       3       5       4       3       2       1       1      12      12
      11      10      10       9       7       8      12       2       4       7
       6       6      10       1       7       7       2       1      11       4
       3       9       1       1      11       4       3       9      11       4
       3       8       7      11       4       3       6       2       5       2
      11       4       3       3       1       1      11       4       3       1
       5       4       9       8       4       3       5       4       3       2
       1       1      12      12      11      10      10       9       7       8
      12       2       4       7       6       6      10       1       7       7
       2       1      11       4       3       9       1       1      11       4
       3       9      11       4       3       8       7      11       4       3
       6       2       5       2      11       4       3       3       1       1
      11       4       3       1       5       4       9       8       4       3
       5       4       3       2       1       1      12      12      11      10
      10       9       7       8      12       2       4       7       6       6
      10       1       7       7       2       1      11       4       3       9
       1       1      11       4       3       9      11       4       3       8
       7      11       4       3       6       2       5       2      11       4
       3       3       1       1      11       4       3       1       5       4
       9       8       4       3       5       4       3       2       1       1
      12      12      11      10      10       9       7       8      12       2
       4       7       6       6      10       1       7       7       2       1
      11       4       3       9       1       1      11       4       3       9
      11       4       3       8       7      11       4       3       6       2
       5       2      11       4       3       3       1       1      11       4
       3       1       5       4       9       8       4       3       5       4
       3       2       1       1      12      12      11      10      10       9
       7       8      12       2       4       7       6       6      10       1
       7       7       2       1      11       4       3       9       1       1
      11       4       3       9      11       4       3       8       7      11
       4       3       6       2       5       2      11       4       3       3
       1       1      11       4       3       1       5       4       9       8
       4       3       5       4       3       2       1       1      12      12
      11      10      10       9       7       8      12       2       4       7
       6       6      10       1       7       7       2       1      11       4
       3       9       1       1      11       4       3       9      11       4
       3       8       7      11       4       3       6       2       5       2
      11       4       3       3       1       1      11       4       3       1
       5       4       9       8       4       3       5       4       3       2
       1       1      12      12      11      10      10       9       7       8
      12       2       4       7       6       6      10       1       7       7
       2       1      11       4       3       9       1       1      11       4
       3       9      11       4       3       8       7      11       4       3
       6       2       5       2      11       4       3       3       1       1
      11       4       3       1       5       4       9       8       4       3
       5       4       3       2       1       1      12      12      11      10
      10       9       7       8      12       2       4       7       6       6
      10       1       7       7       2       1      11       4       3       9
       1       1      11       4       3       9      11       4       3       8
       7      11       4       3       6       2       5       2      11       4
       3       3       1       1      11       4       3       1       5       4
       9       8       4       3       5       4       3       2       1       1
      12      12      11      10      10       9       7       8      12       2
       4       7       6       6      10       1       7       7       2       1
      11       4       3       9       1       1      11       4       3       9
      11       4       3       8       7      11       4       3       6       2
       5       2      11       4       3       3       1       1      11       4
       3       1       5       4       9       8       4       3       5       4
       3       2       1       1      12      12      11      10      10       9
       7       8      12       2       4       7       6       6      10       1
       7       7       2       1      11       4       3       9       1       1
      11       4       3       9      11       4       3       8       7      11
       4       3       6       2       5       2      11       4       3       3
       1       1      11       4       3       1       5       4       9       8
       4       3       5       4       3       2       1       1      12      12
      11      10      10       9       7       8      12       2       4       7
       6       6      10       1       7       7       2       1      11       4
       3       9       1       1      11       4       3       9      11       4
       3       8       7      11       4       3       6       2       5       2
      11       4       3       3       1       1      11       4       3       1
       5       4       9       8       4       3       5       4       3       2
       1       1      12      12      11      10      10       9       7       8
      12       2       4       7       6       6      10       1       7       7
       2       1      11       4       3       9       1       1      11       4
       3       9      11       4       3       8       7      11       4       3
       6       2       5       2      11       4       3       3       1       1
      11       4       3       1       5       4       9       8       4       3
       5       4       3       2       1       1      12      12      11      10
      10       9       7       8      12       2       4       7       6       6
      10       1       7       7       2       1      11       4       3       9
       1       1      11       4       3       9      11       4       3       8
       7      11       4       3       6       2       5       2      11       4
       3       3       1       1      11       4       3       1       5       4
       9       8       4       3       5       4       3       2       1       1
      12      12      11      10      10       9       7       8      12       2
       4       7       6       6      10       1       7       7       2       1
      11       4       3       9       1       1      11       4       3       9
      11       4       3       8       7      11       4       3       6       2
       5       2      11       4       3       3       1       1      11       4
       3       1       5       4       9       8       4       3       5       4
       3       2       1       1      12      12      11      10      10       9
       7       8      12       2       4       7       6       6      10       1
       7       7       2       1      11       4       3       9       1       1
      11       4       3       9      11       4       3       8       7      11
       4       3       6       2       5       2      11       4       3       3
       1       1      11       4       3       1       5       4       9       8
       4       3       5       4       3       2       1       1      12      12
      11      10      10       9       7       8      12       2       4       7
       6       6      10       1       7       7       2       1      11       4
       3       9       1       1      11       4       3       9      11       4
       3       8       7      11       4       3       6       2       5       2
      11       4       3       3       1       1      11       4       3       1
       5       4       9       8       4       3       5       4       3       2
       1       1      12      12      11      10      10       9       7       8
      12       2       4       7       6       6      10       1       7       7
       2       1      11       4       3       9       1       1      11       4
       3       9      11       4       3       8       7      11       4       3
       6       2       5       2      11       4       3       3       1       1
      11       4       3       1       5       4       9       8       4       3
       5       4       3       2       1       1      12      12      11      10
      10       9       7       8      12       2       4       7       6       6
      10       1       7       7       2       1      11       4       3       9
       1       1      11       4       3       9      11       4       3       8
       7      11       4       3       6       2       5       2      11       4
       3       3       1       1      11       4       3       1       5       4
       9       8       4       3       5       4       3       2       1       1
      12      12      11      10      10       9       7       8      12       2
       4       7       6       6      10       1       7       7       2       1
      11       4       3       9       1       1      11       4       3       9
      11       4       3       8       7      11       4       3       6       2
       5       2      11       4       3       3       1       1      11       4
       3       1       5       4       9       8       4       3       5       4
       3       2       1       1      12      12      11      10      10       9
       7       8      12       2       4       7       6       6      10       1
       7       7       2       1      11       4       3       9       1       1
      11       4       3       9      11       4       3       8       7      11
       4       3       6       2       5       2      11       4       3       3
       1       1      11       4       3       1       5       4       9       8
       4       3       5       4       3       2       1       1      12      12
      11      10      10       9       7       8      12       2       4       7
       6       6      10       1       7       7       2       1      11       4
       3       9       1       1      11       4       3       9      11       4
       3       8       7      11       4       3       6       2       5       2
      11       4       3       3       1       1      11       4       3       1
       5       4       9       8       4       3       5       4       3       2
       1       1      12      12      11      10      10       9       7       8
      12       2       4       7       6       6      10       1       7       7
       2       1      11       4       3       9       1       1      11       4
       3       9      11       4       3       8       7      11       4       3
       6       2       5       2      11       4       3       3       1       1
      11       4       3       1       5       4       9       8       4       3
       5       4       3       2       1       1      12      12      11      10
      10       9       7       8      12       2       4       7       6       6
      10       1       7       7       2       1      11       4       3       9
       1       1      11       4       3       9      11       4       3       8
       7      11       4       3       6       2       5       2      11       4
       3       3       1       1      11       4       3       1       5       4
       9       8       4       3       5       4       3       2       1       1
      12      12      11      10      10       9       7       8      12       2
       4       7       6       6      10       1       7       7       2       1
      11       4       3       9       1       1      11       4       3       9
      11       4       3       8       7      11       4       3       6       2
       5       2      11       4       3       3       1       1      11       4
       3       1       5       4       9       8       4       3       5       4
       3       2       1       1      12      12      11      10      10       9
       7       8      12       2       4       7       6       6      10       1
       7       7       2       1      11       4       3       9       1       1
      11       4       3       9      11       4       3       8       7      11
       4       3       6       2       5       2      11       4       3       3
       1       1      11       4       3       1       5       4       9       8
       4       3       5       4       3       2       1       1      12      12
      11      10      10       9       7       8      12       2       4       7
       6       6      10       1       7       7       2       1      11       4
       3       9       1       1      11       4       3       9      11       4
       3       8       7      11       4       3       6       2       5       2
      11       4       3       3       1       1      11       4       3       1
       5       4       9       8       4       3       5       4       3       2
       1       1      12      12      11      10      10       9       7       8
      12       2       4       7       6       6      10       1       7       7
       2       1      11       4       3       9       1       1      11       4
       3       9      11       4       3       8       7      11       4       3
       6       2       5       2      11       4       3       3       1       1
      11       4       3       1       5       4       9       8       4       3
       5       4       3       2       1       1      12      12      11      10
      10       9       7       8      12       2       4       7       6       6
      10       1       7       7       2       1      11       4       3       9
       1       1      11       4       3       9      11       4       3       8
       7      11       4       3       6       2       5       2      11       4
       3       3       1       1      11       4       3       1       5       4
       9       8       4       3       5       4       3       2       1       1
      12      12      11      10      10       9       7       8      12       2
       4       7       6       6      10       1       7       7       2       1
      11       4       3       9       1       1      11       4       3       9
      11       4       3       8       7      11       4       3       6       2
       5       2      11       4       3       3       1       1      11       4
       3       1       5       4       9       8       4       3       5       4
       3       2       1       1      12      12      11      10      10       9
       7       8      12       2       4       7       6       6      10       1
       7       7       2       1      11       4       3       9       1       1
      11       4       3       9      11       4       3       8       7      11
       4       3       6       2       5       2      11       4       3       3
       1       1      11       4       3       1       5       4       9       8
       4       3       5       4       3       2       1       1      12      12
      11      10      10       9       7       8      12       2       4       7
       6       6      10       1       7       7       2       1      11       4
       3       9       1       1      11       4       3       9      11       4
       3       8       7      11       4       3       6       2       5       2
      11       4       3       3       1       1      11       4       3       1
       5       4       9       8       4       3       5       4       3       2
       1       1      12      12      11      10      10       9       7       8
      12       2       4       7       6       6      10       1       7       7
       2       1      11       4       3       9       1       1      11       4
       3       9      11       4       3       8       7      11       4       3
       6       2       5       2      11       4       3       3       1       1
      11       4       3       1       5       4       9       8       4       3
       5       4       3       2       1       1      12      12      11      10
      10       9       7       8      12       2       4       7       6       6
      10       1       7       7       2       1      11       4       3       9
       1       1      11       4       3       9      11       4       3       8
       7      11       4       3       6       2       5       2      11       4
       3       3       1       1      11       4       3       1       5       4
       9       8       4       3       5       4       3       2       1       1
      12      12      11      10      10       9       7       8      12       2
       4       7       6       6      10       1       7       7       2       1
      11       4       3       9       1       1      11       4       3       9
      11       4       3       8       7      11       4       3       6       2
       5       2      11       4       3       3       1       1      11       4
       3       1       5       4       9       8       4       3       5       4
       3       2       1       1      12      12      11      10      10       9
       7       8      12       2       4       7       6       6      10       1
       7       7       2       1      11       4       3       9       1       1
      11       4       3       9      11       4       3       8       7      11
       4       3       6       2       5       2      11       4       3       3
       1       1      11       4       3       1       5       4       9       8
       4       3       5       4       3       2       1       1      12      12
      11      10      10       9       7       8      12       2       4       7
       6       6      10       1       7       7       2       1      11       4
       3       9       1       1      11       4       3       9      11       4
       3       8       7      11       4       3       6       2       5       2
      11       4       3       3       1       1      11       4       3       1
       5       4       9       8       4       3       5       4       3       2
       1       1      12      12      11      10      10       9       7       8
      12       2       4       7       6       6      10       1       7       7
       2       1      11       4       3       9       1       1      11       4
       3       9      11       4       3       8       7      11       4       3
       6       2       5       2      11       4       3       3       1       1
      11       4       3       1       5       4       9       8       4       3
       5       4       3       2       1       1      12      12      11      10
      10       9       7       8      12       2       4       7       6       6
      10       1       7       7       2       1      11       4       3       9
       1       1      11       4       3       9      11       4       3       8
       7      11       4       3       6       2       5       2      11       4
       3       3       1       1      11       4       3       1       5       4
       9       8       4       3       5       4       3       2       1       1
      12      12      11      10      10       9       7       8      12       2
       4       7       6       6      10       1       7       7       2       1
      11       4       3       9       1       1      11       4       3       9
      11       4       3       8       7      11       4       3       6       2
       5       2      11       4       3       3       1       1      11       4
       3       1       5       4       9       8       4       3       5       4
       3       2       1       1      12      12      11      10      10       9
       7       8      12       2       4       7       6       6      10       1
       7       7       2       1      11       4       3       9       1       1
      11       4       3       9      11       4       3       8       7      11
       4       3       6       2       5       2      11       4       3       3
       1       1      11       4       3       1       5       4       9       8
       4       3       5       4       3       2       1       1      12      12
      11      10      10       9       7       8      12       2       4       7
       6       6      10       1       7       7       2       1      11       4
       3       9       1       1      11       4       3       9      11       4
       3       8       7      11       4       3       6       2       5       2
      11       4       3       3       1       1      11       4       3       1
       5       4       9       8       4       3       5       4       3       2
       1       1      12      12      11      10      10       9       7       8
      12       2       4       7       6       6      10       1       7       7
       2       1      11       4       3       9       1       1      11       4
       3       9      11       4       3       8       7      11       4       3
       6       2       5       2      11       4       3       3       1       1
      11       4       3       1       5       4       9       8       4       3
       5       4       3       2       1       1      12      12      11      10
      10       9       7       8      12       2       4       7       6       6
      10       1       7       7       2       1      11       4       3       9
       1       1      11       4       3       9      11       4       3       8
       7      11       4       3       6       2       5       2      11       4
       3       3       1       1      11       4       3       1       5       4
       9       8       4       3       5       4       3       2       1       1
      12      12      11      10      10       9       7       8      12       2
       4       7       6       6      10       1       7       7       2       1
      11       4       3       9       1       1      11       4       3       9
      11       4       3       8       7      11       4       3       6       2
       5       2      11       4       3       3       1       1      11       4
       3       1       5       4       9       8       4       3       5       4
       3       2       1       1      12      12      11      10      10       9
       7       8      12       2       4       7       6       6      10       1
       7       7       2       1      11       4       3       9       1       1
      11       4       3       9      11       4       3       8       7      11
       4       3       6       2       5       2      11       4       3       3
       1       1      11       4       3       1       5       4       9       8
       4       3       5       4       3       2       1       1      12      12
      11      10      10       9       7       8      12       2       4       7
       6       6      10       1       7       7       2       1      11       4
       3       9       1       1      11       4       3       9      11       4
       3       8       7      11       4       3       6       2       5       2
      11       4       3       3       1       1      11       4       3       1
       5       4       9       8       4       3       5       4       3       2
       1       1      12      12      11      10      10       9       7       8
      12       2       4       7       6       6      10       1       7       7
       2       1      11       4       3       9       1       1      11       4
       3       9      11       4       3       8       7      11       4       3
       6       2       5       2      11       4       3       3       1       1
      11       4       3       1       5       4       9       8       4       3
       5       4       3       2       1       1      12      12      11      10
      10       9       7       8      12       2       4       7       6       6
      10       1       7       7       2       1      11       4       3       9
       1       1      11       4       3       9      11       4       3       8
       7      11       4       3       6       2       5       2      11       4
       3       3       1       1      11       4       3       1       5       4
       9       8       4       3       5       4       3       2       1       1
      12      12      11      10      10       9       7       8      12       2
       4       7       6       6      10       1       7       7       2       1
      11       4       3       9       1       1      11       4       3       9
      11       4       3       8       7      11       4       3       6       2
       5       2      11       4       3       3       1       1      11       4
       3       1       5       4       9       8       4       3       5       4
       3       2       1       1      12      12      11      10      10       9
       7       8      12       2       4       7       6       6      10       1
       7       7       2       1      11       4       3       9       1       1
      11       4       3       9      11       4       3       8       7      11
       4       3       6       2       5       2      11       4       3       3
       1       1      11       4       3       1       5       4       9       8
       4       3       5       4       3       2       1       1      12      12
      11      10      10       9       7       8      12       2       4       7
       6       6      10       1       7       7       2       1      11       4
       3       9       1       1      11       4       3       9      11       4
       3       8       7      11       4       3       6       2       5       2
      11       4       3       3       1       1      11       4       3       1
       5       4       9       8       4       3       5       4       3       2
       1       1      12      12      11      10      10       9       7       8
      12       2       4       7       6       6      10       1       7       7
       2       1      11       4       3       9       1       1      11       4
       3       9      11       4       3       8       7      11       4       3
       6       2       5       2      11       4       3       3       1       1
      11       4       3       1       5       4       9       8       4       3
       5       4       3       2       1       1      12      12      11      10
      10       9       7       8      12       2       4       7       6       6
      10       1       7       7       2       1      11       4       3       9
       1       1      11       4       3       9      11       4       3       8
       7      11       4       3       6       2       5       2      11       4
       3       3       1       1      11       4       3       1       5       4
       9       8       4       3       5       4       3       2       1       1
      12      12      11      10      10       9       7       8      12       2
       4       7       6       6      10       1       7       7       2       1
      11       4       3       9       1       1      11       4       3       9
      11       4       3       8       7      11       4       3       6       2
       5       2      11       4       3       3       1       1      11       4
       3       1       5       4       9       8       4       3       5       4
       3       2       1       1      12      12      11      10      10       9
       7       8      12       2       4       7       6       6      10       1
       7       7       2       1      11       4       3       9       1       1
      11       4       3       9      11       4       3       8       7      11
       4       3       6       2       5       2      11       4       3       3
       1       1      11       4       3       1       5       4       9       8
       4       3       5       4       3       2       1       1      12      12
      11      10      10       9       7       8      12       2       4       7
       6       6      10       1       7       7       2       1      11       4
       3       9       1       1      11       4       3       9      11       4
       3       8       7      11       4       3       6       2       5       2
      11       4       3       3       1       1      11       4       3       1
       5       4       9       8       4       3       5       4       3       2
       1       1      12      12      11      10      10       9       7       8
      12       2       4       7       6       6      10       1       7       7
       2       1      11       4       3       9       1       1      11       4
       3       9      11       4       3       8       7      11       4       3
       6       2       5       2      11       4       3       3       1       1
      11       4       3       1       5       4       9       8       4       3
       5       4       3       2       1       1      12      12      11      10
      10       9       7       8      12       2       4       7       6       6
      10       1       7       7       2       1      11       4       3       9
       1       1      11       4       3       9      11       4       3       8
       7      11       4       3       6       2       5       2      11       4
       3       3       1       1      11       4       3       1       5       4
       9       8       4       3       5       4       3       2       1       1
      12      12      11      10      10       9       7       8      12       2
       4       7       6       6      10       1       7       7       2       1
      11       4       3       9       1       1      11       4       3       9
      11       4       3       8       7      11       4       3       6       2
       5       2      11       4       3       3       1       1      11       4
       3       1       5       4       9       8       4       3       5       4
       3       2       1       1      12      12      11      10      10       9
       7       8      12       2       4       7       6       6      10       1
       7       7       2       1      11       4       3       9       1       1
      11       4       3       9      11       4       3       8       7      11
       4       3       6       2       5       2      11       4       3       3
       1       1      11       4       3       1       5       4       9       8
       4       3       5       4       3       2       1       1      12      12
      11      10      10       9       7       8      12       2       4       7
       6       6      10       1       7       7       2       1      11       4
       3       9       1       1      11       4       3       9      11       4
       3       8       7      11       4       3       6       2       5       2
      11       4       3       3       1       1      11       4       3       1
       5       4       9       8       4       3       5       4       3       2
       1       1      12      12      11      10      10       9       7       8
      12       2       4       7       6       6      10       1       7       7
       2       1      11       4       3       9       1       1      11       4
       3       9      11       4       3       8       7      11       4       3
       6       2       5       2      11       4       3       3       1       1
      11       4       3       1       5       4       9       8       4       3
       5       4       3       2       1       1      12      12      11      10
      10       9       7       8      12       2       4       7       6       6
      10       1       7       7       2       1      11       4       3       9
       1       1      11       4       3       9      11       4       3       8
       7      11       4       3       6       2       5       2      11       4
       3       3       1       1      11       4       3       1       5       4
       9       8       4       3       5       4       3       2       1       1
      12      12      11      10      10       9       7       8      12       2
       4       7       6       6      10       1       7       7       2       1
      11       4       3       9       1       1      11       4       3       9
      11       4       3       8       7      11       4       3       6       2
       5       2      11       4       3       3       1       1      11       4
       3       1       5       4       9       8       4       3       5       4
       3       2       1       1      12      12      11      10      10       9
       7       8      12       2       4       7       6       6      10       1
       7       7       2       1      11       4       3       9       1       1
      11       4       3       9      11       4       3       8       7      11
       4       3       6       2       5       2      11       4       3       3
       1       1      11       4       3       1       5       4       9       8
       4       3       5       4       3       2       1       1      12      12
      11      10      10       9       7       8      12       2       4       7
       6       6      10       1       7       7       2       1      11       4
       3       9       1       1      11       4       3       9      11       4
       3       8       7      11       4       3       6       2       5       2
      11       4       3       3       1       1      11       4       3       1
       5       4       9       8       4       3       5       4       3       2
       1       1      12      12      11      10      10       9       7       8
      12       2       4       7       6       6      10       1       7       7
       2       1      11       4       3       9       1       1      11       4
       3       9      11       4       3       8       7      11       4       3
       6       2       5       2      11       4       3       3       1       1
      11       4       3       1       5       4       9       8       4       3
       5       4       3       2       1       1      12      12      11      10
      10       9       7       8      12       2       4       7       6       6
      10       1       7       7       2       1      11       4       3       9
       1       1      11       4       3       9      11       4       3       8
       7      11       4       3       6       2       5       2      11       4
       3       3       1       1      11       4       3       1       5       4
       9       8       4       3       5       4       3       2       1       1
      12      12      11      10      10       9       7       8      12       2
       4       7       6       6      10       1       7       7       2       1
      11       4       3       9       1       1      11       4       3       9
      11       4       3       8       7      11       4       3       6       2
       5       2      11       4       3       3       1       1      11       4
       3       1       5       4       9       8       4       3       5       4
       3       2       1       1      12      12      11      10      10       9
       7       8      12       2       4       7       6       6      10       1
       7       7       2       1      11       4       3       9       1       1
      11       4       3       9      11       4       3       8       7      11
       4       3       6       2       5       2      11       4       3       3
       1       1      11       4       3       1       5       4       9       8
       4       3       5       4       3       2       1       1      12      12
      11      10      10       9       7       8      12       2       4       7
       6       6      10       1       7       7       2       1      11       4
       3       9       1       1      11       4       3       9      11       4
       3       8       7      11       4       3       6       2       5       2
      11       4       3       3       1       1      11       4       3       1
       5       4       9       8       4       3       5       4       3       2
       1       1      12      12      11      10      10       9       7       8
      12       2       4       7       6       6      10       1       7       7
       2       1      11       4       3       9       1       1      11       4
       3       9      11       4       3       8       7      11       4       3
       6       2       5       2      11       4       3       3       1       1
      11       4       3       1       5       4       9       8       4       3
       5       4       3       2       1       1      12      12      11      10
      10       9       7       8      12       2       4       7       6       6
      10       1       7       7       2       1      11       4       3       9
       1       1      11       4       3       9      11       4       3       8
       7      11       4       3       6       2       5       2      11       4
       3       3       1       1      11       4       3       1       5       4
       9       8       4       3       5       4       3       2       1       1
      12      12      11      10      10       9       7       8      12       2
       4       7       6       6      10       1       7       7       2       1
      11       4       3       9       1       1      11       4       3       9
      11       4       3       8       7      11       4       3       6       2
       5       2      11       4       3       3       1       1      11       4
       3       1       5       4       9       8       4       3       5       4
       3       2       1       1      12      12      11      10      10       9
       7       8      12       2       4       7       6       6      10       1
       7       7       2       1      11       4       3       9       1       1
      11       4       3       9      11       4       3       8       7      11
       4       3       6       2       5       2      11       4       3       3
       1       1      11       4       3       1       5       4       9       8
       4       3       5       4       3       2       1       1      12      12
      11      10      10       9       7       8      12       2       4       7
       6       6      10       1       7       7       2       1      11       4
       3       9       1       1      11       4       3       9      11       4
       3       8       7      11       4       3       6       2       5       2
      11       4       3       3       1       1      11       4       3       1
       5       4       9       8       4       3       5       4       3       2
       1       1      12      12      11      10      10       9       7       8
      12       2       4       7       6       6      10       1       7       7
       2       1      11       4       3       9       1       1      11       4
       3       9      11       4       3       8       7      11       4       3
       6       2       5       2      11       4       3       3       1       1
      11       4       3       1       5       4       9       8       4       3
       5       4       3       2       1       1      12      12      11      10
      10       9       7       8      12       2       4       7       6       6
      10       1       7       7       2       1      11       4       3       9
       1       1      11       4       3       9      11       4       3       8
       7      11       4       3       6       2       5       2      11       4
       3       3       1       1      11       4       3       1       5       4
       9       8       4       3       5       4       3       2       1       1
      12      12      11      10      10       9       7       8      12       2
       4       7       6       6      10       1       7       7       2       1
      11       4       3       9       1       1      11       4       3       9
      11       4       3       8       7      11       4       3       6       2
       5       2      11       4       3       3       1       1      11       4
       3       1       5       4       9       8       4       3       5       4
       3       2       1       1      12      12      11      10      10       9
       7       8      12       2       4       7       6       6      10       1
       7       7       2       1      11       4       3       9       1       1
      11       4       3       9      11       4       3       8       7      11
       4       3       6       2       5       2      11       4       3       3
       1       1      11       4       3       1       5       4       9       8
       4       3       5       4       3       2       1       1      12      12
      11      10      10       9       7       8      12       2       4       7
       6       6      10       1       7       7       2       1      11       4
       3       9       1       1      11       4       3       9      11       4
       3       8       7      11       4       3       6       2       5       2
      11       4       3       3       1       1      11       4       3       1
       5       4       9       8       4       3       5       4       3       2
       1       1      12      12      11      10      10       9       7       8
      12       2       4       7       6       6      10       1       7       7
       2       1      11       4       3       9       1       1      11       4
       3       9      11       4       3       8       7      11       4       3
       6       2       5       2      11       4       3       3       1       1
      11       4       3       1       5       4       9       8       4       3
       5       4       3       2       1       1      12      12      11      10
      10       9       7       8      12       2       4       7       6       6
      10       1       7       7       2       1      11       4       3       9
       1       1      11       4       3       9      11       4       3       8
       7      11       4       3       6       2       5       2      11       4
       3       3       1       1      11       4       3       1       5       4
       9       8       4       3       5       4       3       2       1       1
      12      12      11      10      10       9       7       8      12       2
       4       7       6       6      10       1       7       7       2       1
      11       4       3       9       1       1      11       4       3       9
      11       4       3       8       7      11       4       3       6       2
       5       2      11       4       3       3       1       1      11       4
       3       1       5       4       9       8       4       3       5       4
       3       2       1       1      12      12      11      10      10       9
       7       8      12       2       4       7       6       6      10       1
       7       7       2       1      11       4       3       9       1       1
      11       4       3       9      11       4       3       8       7      11
       4       3       6       2       5       2      11       4       3       3
       1       1      11       4       3       1       5       4       9       8
       4       3       5       4       3       2       1       1      12      12
      11      10      10       9       7       8      12       2       4       7
       6       6      10       1       7       7       2       1      11       4
       3       9       1       1      11       4       3       9      11       4
       3       8       7      11       4       3       6       2       5       2
      11       4       3       3       1       1      11       4       3       1
       5       4       9       8       4       3       5       4       3       2
       1       1      12      12      11      10      10       9       7       8
      12       2       4       7       6       6      10       1       7       7
       2       1      11       4       3       9       1       1      11       4
       3       9      11       4       3       8       7      11       4       3
       6       2       5       2      11       4       3       3       1       1
      11       4       3       1       5       4       9       8       4       3
       5       4       3       2       1       1      12      12      11      10
      10       9       7       8      12       2       4       7       6       6
      10       1       7       7       2       1      11       4       3       9
       1       1      11       4       3       9      11       4       3       8
       7      11       4       3       6       2       5       2      11       4
       3       3       1       1      11       4       3       1       5       4
       9       8       4       3       5       4       3       2       1       1
      12      12      11      10      10       9       7       8      12       2
       4       7       6       6      10       1       7       7       2       1
      11       4       3       9       1       1      11       4       3       9
      11       4       3       8       7      11       4       3       6       2
       5       2      11       4       3       3       1       1      11       4
       3       1       5       4       9       8       4       3       5       4
       3       2       1       1      12      12      11      10      10       9
       7       8      12       2       4       7       6       6      10       1
       7       7       2       1      11       4       3       9       1       1
      11       4       3       9      11       4       3       8       7      11
       4       3       6       2       5       2      11       4       3       3
       1       1      11       4       3       1       5       4       9       8
       4       3       5       4       3       2       1       1      12      12
      11      10      10       9       7       8      12       2       4       7
       6       6      10       1       7       7       2       1      11       4
       3       9       1       1      11       4       3       9      11       4
       3       8       7      11       4       3       6       2       5       2
      11       4       3       3       1       1      11       4       3       1
       5       4       9       8       4       3       5       4       3       2
       1       1      12      12      11      10      10       9       7       8
      12       2       4       7       6       6      10       1       7       7
       2       1      11       4       3       9       1       1      11       4
       3       9      11       4       3       8       7      11       4       3
       6       2       5       2      11       4       3       3       1       1
      11       4       3       1       5       4       9       8       4       3
       5       4       3       2       1       1      12      12      11      10
      10       9       7       8      12       2       4       7       6       6
      10       1       7       7       2       1      11       4       3       9
       1       1      11       4       3       9      11       4       3       8
       7      11       4       3       6       2       5       2      11       4
       3       3       1       1      11       4       3       1       5       4
       9       8       4       3       5       4       3       2       1       1
      12      12      11      10      10       9       7       8      12       2
       4       7       6       6      10       1       7       7       2       1
      11       4       3       9       1       1      11       4       3       9
      11       4       3       8       7      11       4       3       6       2
       5       2      11       4       3       3       1       1      11       4
       3       1       5       4       9       8       4       3       5       4
       3       2       1       1      12      12      11      10      10       9
       7       8      12       2       4       7       6       6      10       1
       7       7       2       1      11       4       3       9       1       1
      11       4       3       9      11       4       3       8       7      11
       4       3       6       2       5       2      11       4       3       3
       1       1      11       4       3       1       5       4       9       8
       4       3       5       4       3       2       1       1      12      12
      11      10      10       9       7       8      12       2       4       7
       6       6      10       1       7       7       2       1      11       4
       3       9       1       1      11       4       3       9      11       4
       3       8       7      11       4       3       6       2       5       2
      11       4       3       3       1       1      11       4       3       1
       5       4       9       8       4       3       5       4       3       2
       1       1      12      12      11      10      10       9       7       8
      12       2       4       7       6       6      10       1       7       7
       2       1      11       4       3       9       1       1      11       4
       3       9      11       4       3       8       7      11       4       3
       6       2       5       2      11       4       3       3       1       1
      11       4       3       1       5       4       9       8       4       3
       5       4       3       2       1       1      12      12      11      10
      10       9       7       8      12       2       4       7       6       6
      10       1       7       7       2       1      11       4       3       9
       1       1      11       4       3       9      11       4       3       8
       7      11       4       3       6       2       5       2      11       4
       3       3       1       1      11       4       3       1       5       4
       9       8       4       3       5       4       3       2       1       1
      12      12      11      10      10       9       7       8      12       2
       4       7       6       6      10       1       7       7       2       1
      11       4       3       9       1       1      11       4       3       9
      11       4       3       8       7      11       4       3       6       2
       5       2      11       4       3       3       1       1      11       4
       3       1       5       4       9       8       4       3       5       4
       3       2       1       1      12      12      11      10      10       9
       7       8      12       2       4       7       6       6      10       1
       7       7       2       1      11       4       3       9       1       1
      11       4       3       9      11       4       3       8       7      11
       4       3       6       2       5       2      11       4       3       3
       1       1      11       4       3       1       5       4       9       8
       4       3       5       4       3       2       1       1      12      12
      11      10      10       9       7       8      12       2       4       7
       6       6      10       1       7       7       2       1      11       4
       3       9       1       1      11       4       3       9      11       4
       3       8       7      11       4       3       6       2       5       2
      11       4       3       3       1       1      11       4       3       1
       5       4       9       8       4       3       5       4       3       2
       1       1
%FLAG NONBONDED_PARM_INDEX                                                      
%FORMAT(10I8)                                                                   
       1       2       4       7      11       2       3       5       8      12
       4       5       6       9      13       7       8       9      10      14
      11      12      13      14      15
%FLAG RESIDUE_LABEL                                                             
%FORMAT(20a4)                                                                   
BTB BTB BTB BTB BTB BTB BTB BTB BTB BTB BTB BTB BTB BTB BTB BTB BTB BTB BTB BTB 
BTB BTB BTB BTB BTB BTB BTB BTB BTB BTB BTB BTB BTB BTB BTB BTB BTB BTB BTB BTB 
BTB BTB BTB BTB BTB BTB BTB BTB BTB BTB BTB BTB BTB BTB BTB BTB BTB BTB BTB BTB 
BTB BTB BTB BTB BTB BTB BTB BTB BTB BTB BTB BTB BTB BTB BTB BTB BTB BTB BTB BTB 
BTB BTB BTB BTB BTB BTB BTB BTB BTB BTB BTB BTB BTB BTB BTB BTB BTB BTB BTB BTB 
BTB BTB BTB BTB BTB BTB BTB BTB BTB BTB BTB BTB BTB BTB BTB BTB BTB BTB BTB BTB 
BTB BTB BTB BTB BTB BTB BTB BTB BTB BTB BTB BTB BTB BTB BTB BTB BTB BTB BTB BTB 
BTB BTB BTB BTB BTB BTB BTB BTB BTB BTB BTB BTB BTB BTB BTB BTB BTB BTB BTB BTB 
BTB BTB BTB BTB BTB BTB BTB BTB BTB BTB BTB BTB BTB BTB BTB BTB BTB BTB BTB BTB 
BTB BTB BTB BTB BTB BTB BTB BTB BTB BTB BTB BTB BTB BTB BTB BTB BTB BTB BTB BTB 
BTB BTB BTB BTB BTB BTB BTB BTB BTB BTB BTB BTB BTB BTB BTB BTB BTB BTB BTB BTB 
BTB BTB BTB BTB BTB BTB BTB BTB BTB BTB BTB BTB BTB BTB BTB BTB BTB BTB BTB BTB 
BTB BTB BTB BTB BTB BTB BTB BTB BTB BTB BTB BTB BTB BTB BTB BTB BTB BTB BTB BTB 
BTB BTB BTB BTB BTB BTB BTB BTB BTB BTB BTB BTB BTB BTB BTB BTB BTB BTB BTB BTB 
BTB BTB BTB BTB BTB BTB BTB BTB 
%FLAG RESIDUE_POINTER                                                           
%FORMAT(10I8)                                                                   
       1      65     129     193     257     321     385     449     513     577
     641     705     769     833     897     961    1025    1089    1153    1217
    1281    1345    1409    1473    1537    1601    1665    1729    1793    1857
    1921    1985    2049    2113    2177    2241    2305    2369    2433    2497
    2561    2625    2689    2753    2817    2881    2945    3009    3073    3137
    3201    3265    3329    3393    3457    3521    3585    3649    3713    3777
    3841    3905    3969    4033    4097    4161    4225    4289    4353    4417
    4481    4545    4609    4673    4737    4801    4865    4929    4993    5057
    5121    5185    5249    5313    5377    5441    5505    5569    5633    5697
    5761    5825    5889    5953    6017    6081    6145    6209    6273    6337
    6401    6465    6529    6593    6657    6721    6785    6849    6913    6977
    7041    7105    7169    7233    7297    7361    7425    7489    7553    7617
    7681    7745    7809    7873    7937    8001    8065    8129    8193    8257
    8321    8385    8449    8513    8577    8641    8705    8769    8833    8897
    8961    9025    9089    9153    9217    9281    9345    9409    9473    9537
    9601    9665    9729    9793    9857    9921    9985   10049   10113   10177
   10241   10305   10369   10433   10497   10561   10625   10689   10753   10817
   10881   10945   11009   11073   11137   11201   11265   11329   11393   11457
   11521   11585   11649   11713   11777   11841   11905   11969   12033   12097
   12161   12225   12289   12353   12417   12481   12545   12609   12673   12737
   12801   12865   12929   12993   13057   13121   13185   13249   13313   13377
   13441   13505   13569   13633   13697   13761   13825   13889   13953   14017
   14081   14145   14209   14273   14337   14401   14465   14529   14593   14657
   14721   14785   14849   14913   14977   15041   15105   15169   15233   15297
   15361   15425   15489   15553   15617   15681   15745   15809   15873   15937
   16001   16065   16129   16193   16257   16321   16385   16449   16513   16577
   16641   16705   16769   16833   16897   16961   17025   17089   17153   17217
   17281   17345   17409   17473   17537   17601   17665   17729   17793   17857
   17921   17985   18049   18113   18177   18241   18305   18369
%FLAG BOND_FORCE_CONSTANT                                                       
%FORMAT(5E16.8)                                                                 
  3.45250000E+02  2.28890000E+02  3.60690000E+02  3.54250000E+02  3.46070000E+02
  2.69370000E+02  2.43910000E+02  2.13480000E+02  2.71850000E+02  2.53080000E+02
  2.58910000E+02  1.86770000E+02  1.92290000E+02  1.77540000E+02  1.95180000E+02
%FLAG BOND_EQUIL_VALUE                                                          
%FORMAT(5E16.8)                                                                 
  1.09620000E+00  1.53540000E+00  1.08600000E+00  1.39860000E+00  1.40560000E+00
  1.48290000E+00  1.51470000E+00  1.78470000E+00  1.48000000E+00  1.50280000E+00
  1.49550000E+00  1.83640000E+00  1.82500000E+00  1.85600000E+00  1.81920000E+00
%FLAG ANGLE_FORCE_CONSTANT                                                      
%FORMAT(5E16.8)                                                                 
  3.58000000E+01  4.32700000E+01  5.98700000E+01  4.49000000E+01  6.36700000E+01
  6.37900000E+01  6.33300000E+01  4.47300000E+01  6.13000000E+01  6.07400000E+01
  6.03300000E+01  4.36100000E+01  6.30900000E+01  6.26700000E+01  6.15490000E+01
  6.28280000E+01  6.15800000E+01  9.47700000E+01  5.48700000E+01  6.11700000E+01
  9.27200000E+01  9.40500000E+01  9.61700000E+01  6.21600000E+01  6.16560000E+01
  6.15050000E+01  6.65130000E+01  6.23400000E+01  6.31300000E+01
%FLAG ANGLE_EQUIL_VALUE                                                         
%FORMAT(5E16.8)                                                                 
  1.88024401E+00  1.91427794E+00  1.96576518E+00  2.09230160E+00  2.09474507E+00
  2.06664525E+00  2.10713691E+00  2.09125441E+00  2.11359463E+00  2.10888224E+00
  1.96209999E+00  1.93085858E+00  2.09544320E+00  1.95241340E+00  1.95119167E+00
  1.94508302E+00  2.10818411E+00  1.66766282E+00  2.48046300E+00  2.11097664E+00
  1.78948685E+00  1.68790864E+00  1.64811512E+00  2.08182962E+00  2.01402355E+00
  2.02135394E+00  2.01358722E+00  2.00992203E+00  1.99857738E+00
%FLAG DIHEDRAL_FORCE_CONSTANT                                                   
%FORMAT(5E16.8)                                                                 
  1.20000000E-01  1.30000000E-01  5.20000000E-01  3.62500000E+00  7.65000000E-01
  2.40000000E-01  0.00000000E+00  1.55555556E-01  0.00000000E+00  0.00000000E+00
  3.30000000E-01  3.33333333E-01  1.99800000E+01  6.47500000E-01  1.50000000E+00
  2.00000000E-01  0.00000000E+00  3.00000000E-01  6.00000000E-01  6.00000000E-01
  4.00000000E-01  7.00000000E-01  1.10000000E+00
%FLAG DIHEDRAL_PERIODICITY                                                      
%FORMAT(5E16.8)                                                                 
  3.00000000E+00  3.00000000E+00  3.00000000E+00  2.00000000E+00  2.00000000E+00
  2.00000000E+00  1.00000000E+00  3.00000000E+00  3.00000000E+00  2.00000000E+00
  1.00000000E+00  3.00000000E+00  1.00000000E+00  2.00000000E+00  3.00000000E+00
  3.00000000E+00  2.00000000E+00  2.00000000E+00  2.00000000E+00  2.00000000E+00
  2.00000000E+00  2.00000000E+00  2.00000000E+00
%FLAG DIHEDRAL_PHASE                                                            
%FORMAT(5E16.8)                                                                 
  0.00000000E+00  0.00000000E+00  0.00000000E+00  3.14159400E+00  3.14159400E+00
  3.14159400E+00  0.00000000E+00  0.00000000E+00  0.00000000E+00  0.00000000E+00
  3.14159400E+00  0.00000000E+00  3.14159400E+00  0.00000000E+00  0.00000000E+00
  0.00000000E+00  3.14159400E+00  0.00000000E+00  0.00000000E+00  3.14159400E+00
  3.14159400E+00  3.14159400E+00  3.14159400E+00
%FLAG SCEE_SCALE_FACTOR                                                         
%FORMAT(5E16.8)                                                                 
  1.20000000E+00  1.20000000E+00  1.20000000E+00  1.20000000E+00  1.20000000E+00
  1.20000000E+00  1.20000000E+00  1.20000000E+00  1.20000000E+00  1.20000000E+00
  1.20000000E+00  1.20000000E+00  1.20000000E+00  1.20000000E+00  1.20000000E+00
  1.20000000E+00  1.20000000E+00  1.20000000E+00  1.20000000E+00  1.20000000E+00
  1.20000000E+00  1.20000000E+00  0.00000000E+00
%FLAG SCNB_SCALE_FACTOR                                                         
%FORMAT(5E16.8)                                                                 
  2.00000000E+00  2.00000000E+00  2.00000000E+00  2.00000000E+00  2.00000000E+00
  2.00000000E+00  2.00000000E+00  2.00000000E+00  2.00000000E+00  2.00000000E+00
  2.00000000E+00  2.00000000E+00  2.00000000E+00  2.00000000E+00  2.00000000E+00
  2.00000000E+00  2.00000000E+00  2.00000000E+00  2.00000000E+00  2.00000000E+00
  2.00000000E+00  2.00000000E+00  0.00000000E+00
%FLAG SOLTY                                                                     
%FORMAT(5E16.8)                                                                 
  0.00000000E+00  0.00000000E+00  0.00000000E+00  0.00000000E+00  0.00000000E+00
  0.00000000E+00  0.00000000E+00  0.00000000E+00  0.00000000E+00
%FLAG LENNARD_JONES_ACOEF                                                       
%FORMAT(5E16.8)                                                                 
  4.26366419E+06  1.73376823E+06  6.96551276E+05  2.09089895E+06  8.43969952E+05
  1.02073671E+06  1.95762765E+05  7.52549148E+04  9.27554496E+04  6.90855956E+03
  2.11783234E+05  8.12662403E+04  1.00235148E+05  7.41026906E+03  7.94617769E+03
%FLAG LENNARD_JONES_BCOEF                                                       
%FORMAT(5E16.8)                                                                 
  2.19459223E+03  1.07629402E+03  5.24668528E+02  1.20800124E+03  5.90251928E+02
  6.63431737E+02  2.29782888E+02  1.09570372E+02  1.24325688E+02  2.10929191E+01
  2.54804909E+02  1.21392023E+02  1.37787728E+02  2.32899892E+01  2.57122925E+01
%FLAG BONDS_INC_HYDROGEN                                                        
%FORMAT(10I8)                                                                   
     177     183       1     177     186       1     177     189       1     165
     174       1     165     180       1     162     168       1     162     171
       1     144     156       1     144     159       1     135     153       3
     126     147       1     126     150       1     120     141       3     114
     138       3     105     129       1     105     132       1     102     123
       3      99     117       3      90     108       1      90     111       1
      78      93       1      78      96       1      60      81       1      60
      84       1      51      75       3      48      72       3      42      63
       1      42      66       1      39      57       3      36      54       3
      30      45       3      12      27       3     369     375       1     369
     378       1     369     381       1     357     366       1     357     372
       1     354     360       1     354     363       1     336     348       1
     336     351       1     327     345       3     318     339       1     318
     342       1     312     333       3     306     330       3     297     321
       1     297     324       1     294     315       3     291     309       3
     282     300       1     282     303       1     270     285       1     270
     288       1     252     273       1     252     276       1     243     267
       3     240     264       3     234     255       1     234     258       1
     231     249       3     228     246       3     222     237       3     204
     219       3     561     567       1     561     570       1     561     573
       1     549     558       1     549     564       1     546     552       1
     546     555       1     528     540       1     528     543       1     519
     537       3     510     531       1     510     534       1     504     525
       3     498     522       3     489     513       1     489     516       1
     486     507       3     483     501       3     474     492       1     474
     495       1     462     477       1     462     480       1     444     465
       1     444     468       1     435     459       3     432     456       3
     426     447       1     426     450       1     423     441       3     420
     438       3     414     429       3     396     411       3     753     759
       1     753     762       1     753     765       1     741     750       1
     741     756       1     738     744       1     738     747       1     720
     732       1     720     735       1     711     729       3     702     723
       1     702     726       1     696     717       3     690     714       3
     681     705       1     681     708       1     678     699       3     675
     693       3     666     684       1     666     687       1     654     669
       1     654     672       1     636     657       1     636     660       1
     627     651       3     624     648       3     618     639       1     618
     642       1     615     633       3     612     630       3     606     621
       3     588     603       3     945     951       1     945     954       1
     945     957       1     933     942       1     933     948       1     930
     936       1     930     939       1     912     924       1     912     927
       1     903     921       3     894     915       1     894     918       1
     888     909       3     882     906       3     873     897       1     873
     900       1     870     891       3     867     885       3     858     876
       1     858     879       1     846     861       1     846     864       1
     828     849       1     828     852       1     819     843       3     816
     840       3     810     831       1     810     834       1     807     825
       3     804     822       3     798     813       3     780     795       3
    1137    1143       1    1137    1146       1    1137    1149       1    1125
    1134       1    1125    1140       1    1122    1128       1    1122    1131
       1    1104    1116       1    1104    1119       1    1095    1113       3
    1086    1107       1    1086    1110       1    1080    1101       3    1074
    1098       3    1065    1089       1    1065    1092       1    1062    1083
       3    1059    1077       3    1050    1068       1    1050    1071       1
    1038    1053       1    1038    1056       1    1020    1041       1    1020
    1044       1    1011    1035       3    1008    1032       3    1002    1023
       1    1002    1026       1     999    1017       3     996    1014       3
     990    1005       3     972     987       3    1329    1335       1    1329
    1338       1    1329    1341       1    1317    1326       1    1317    1332
       1    1314    1320       1    1314    1323       1    1296    1308       1
    1296    1311       1    1287    1305       3    1278    1299       1    1278
    1302       1    1272    1293       3    1266    1290       3    1257    1281
       1    1257    1284       1    1254    1275       3    1251    1269       3
    1242    1260       1    1242    1263       1    1230    1245       1    1230
    1248       1    1212    1233       1    1212    1236       1    1203    1227
       3    1200    1224       3    1194    1215       1    1194    1218       1
    1191    1209       3    1188    1206       3    1182    1197       3    1164
    1179       3    1521    1527       1    1521    1530       1    1521    1533
       1    1509    1518       1    1509    1524       1    1506    1512       1
    1506    1515       1    1488    1500       1    1488    1503       1    1479
    1497       3    1470    1491       1    1470    1494       1    1464    1485
       3    1458    1482       3    1449    1473       1    1449    1476       1
    1446    1467       3    1443    1461       3    1434    1452       1    1434
    1455       1    1422    1437       1    1422    1440       1    1404    1425
       1    1404    1428       1    1395    1419       3    1392    1416       3
    1386    1407       1    1386    1410       1    1383    1401       3    1380
    1398       3    1374    1389       3    1356    1371       3    1713    1719
       1    1713    1722       1    1713    1725       1    1701    1710       1
    1701    1716       1    1698    1704       1    1698    1707       1    1680
    1692       1    1680    1695       1    1671    1689       3    1662    1683
       1    1662    1686       1    1656    1677       3    1650    1674       3
    1641    1665       1    1641    1668       1    1638    1659       3    1635
    1653       3    1626    1644       1    1626    1647       1    1614    1629
       1    1614    1632       1    1596    1617       1    1596    1620       1
    1587    1611       3    1584    1608       3    1578    1599       1    1578
    1602       1    1575    1593       3    1572    1590       3    1566    1581
       3    1548    1563       3    1905    1911       1    1905    1914       1
    1905    1917       1    1893    1902       1    1893    1908       1    1890
    1896       1    1890    1899       1    1872    1884       1    1872    1887
       1    1863    1881       3    1854    1875       1    1854    1878       1
    1848    1869       3    1842    1866       3    1833    1857       1    1833
    1860       1    1830    1851       3    1827    1845       3    1818    1836
       1    1818    1839       1    1806    1821       1    1806    1824       1
    1788    1809       1    1788    1812       1    1779    1803       3    1776
    1800       3    1770    1791       1    1770    1794       1    1767    1785
       3    1764    1782       3    1758    1773       3    1740    1755       3
    2097    2103       1    2097    2106       1    2097    2109       1    2085
    2094       1    2085    2100       1    2082    2088       1    2082    2091
       1    2064    2076       1    2064    2079       1    2055    2073       3
    2046    2067       1    2046    2070       1    2040    2061       3    2034
    2058       3    2025    2049       1    2025    2052       1    2022    2043
       3    2019    2037       3    2010    2028       1    2010    2031       1
    1998    2013       1    1998    2016       1    1980    2001       1    1980
    2004       1    1971    1995       3    1968    1992       3    1962    1983
       1    1962    1986       1    1959    1977       3    1956    1974       3
    1950    1965       3    1932    1947       3    2289    2295       1    2289
    2298       1    2289    2301       1    2277    2286       1    2277    2292
       1    2274    2280       1    2274    2283       1    2256    2268       1
    2256    2271       1    2247    2265       3    2238    2259       1    2238
    2262       1    2232    2253       3    2226    2250       3    2217    2241
       1    2217    2244       1    2214    2235       3    2211    2229       3
    2202    2220       1    2202    2223       1    2190    2205       1    2190
    2208       1    2172    2193       1    2172    2196       1    2163    2187
       3    2160    2184       3    2154    2175       1    2154    2178       1
    2151    2169       3    2148    2166       3    2142    2157       3    2124
    2139       3    2481    2487       1    2481    2490       1    2481    2493
       1    2469    2478       1    2469    2484       1    2466    2472       1
    2466    2475       1    2448    2460       1    2448    2463       1    2439
    2457       3    2430    2451       1    2430    2454       1    2424    2445
       3    2418    2442       3    2409    2433       1    2409    2436       1
    2406    2427       3    2403    2421       3    2394    2412       1    2394
    2415       1    2382    2397       1    2382    2400       1    2364    2385
       1    2364    2388       1    2355    2379       3    2352    2376       3
    2346    2367       1    2346    2370       1    2343    2361       3    2340
    2358       3    2334    2349       3    2316    2331       3    2673    2679
       1    2673    2682       1    2673    2685       1    2661    2670       1
    2661    2676       1    2658    2664       1    2658    2667       1    2640
    2652       1    2640    2655       1    2631    2649       3    2622    2643
       1    2622    2646       1    2616    2637       3    2610    2634       3
    2601    2625       1    2601    2628       1    2598    2619       3    2595
    2613       3    2586    2604       1    2586    2607       1    2574    2589
       1    2574    2592       1    2556    2577       1    2556    2580       1
    2547    2571       3    2544    2568       3    2538    2559       1    2538
    2562       1    2535    2553       3    2532    2550       3    2526    2541
       3    2508    2523       3    2865    2871       1    2865    2874       1
    2865    2877       1    2853    2862       1    2853    2868       1    2850
    2856       1    2850    2859       1    2832    2844       1    2832    2847
       1    2823    2841       3    2814    2835       1    2814    2838       1
    2808    2829       3    2802    2826       3    2793    2817       1    2793
    2820       1    2790    2811       3    2787    2805       3    2778    2796
       1    2778    2799       1    2766    2781       1    2766    2784       1
    2748    2769       1    2748    2772       1    2739    2763       3    2736
    2760       3    2730    2751       1    2730    2754       1    2727    2745
       3    2724    2742       3    2718    2733       3    2700    2715       3
    3057    3063       1    3057    3066       1    3057    3069       1    3045
    3054       1    3045    3060       1    3042    3048       1    3042    3051
       1    3024    3036       1    3024    3039       1    3015    3033       3
    3006    3027       1    3006    3030       1    3000    3021       3    2994
    3018       3    2985    3009       1    2985    3012       1    2982    3003
       3    2979    2997       3    2970    2988       1    2970    2991       1
    2958    2973       1    2958    2976       1    2940    2961       1    2940
    2964       1    2931    2955       3    2928    2952       3    2922    2943
       1    2922    2946       1    2919    2937       3    2916    2934       3
    2910    2925       3    2892    2907       3    3249    3255       1    3249
    3258       1    3249    3261       1    3237    3246       1    3237    3252
       1    3234    3240       1    3234    3243       1    3216    3228       1
    3216    3231       1    3207    3225       3    3198    3219       1    3198
    3222       1    3192    3213       3    3186    3210       3    3177    3201
       1    3177    3204       1    3174    3195       3    3171    3189       3
    3162    3180       1    3162    3183       1    3150    3165       1    3150
    3168       1    3132    3153       1    3132    3156       1    3123    3147
       3    3120    3144       3    3114    3135       1    3114    3138       1
    3111    3129       3    3108    3126       3    3102    3117       3    3084
    3099       3    3441    3447       1    3441    3450       1    3441    3453
       1    3429    3438       1    3429    3444       1    3426    3432       1
    3426    3435       1    3408    3420       1    3408    3423       1    3399
    3417       3    3390    3411       1    3390    3414       1    3384    3405
       3    3378    3402       3    3369    3393       1    3369    3396       1
    3366    3387       3    3363    3381       3    3354    3372       1    3354
    3375       1    3342    3357       1    3342    3360       1    3324    3345
       1    3324    3348       1    3315    3339       3    3312    3336       3
    3306    3327       1    3306    3330       1    3303    3321       3    3300
    3318       3    3294    3309       3    3276    3291       3    3633    3639
       1    3633    3642       1    3633    3645       1    3621    3630       1
    3621    3636       1    3618    3624       1    3618    3627       1    3600
    3612       1    3600    3615       1    3591    3609       3    3582    3603
       1    3582    3606       1    3576    3597       3    3570    3594       3
    3561    3585       1    3561    3588       1    3558    3579       3    3555
    3573       3    3546    3564       1    3546    3567       1    3534    3549
       1    3534    3552       1    3516    3537       1    3516    3540       1
    3507    3531       3    3504    3528       3    3498    3519       1    3498
    3522       1    3495    3513       3    3492    3510       3    3486    3501
       3    3468    3483       3    3825    3831       1    3825    3834       1
    3825    3837       1    3813    3822       1    3813    3828       1    3810
    3816       1    3810    3819       1    3792    3804       1    3792    3807
       1    3783    3801       3    3774    3795       1    3774    3798       1
    3768    3789       3    3762    3786       3    3753    3777       1    3753
    3780       1    3750    3771       3    3747    3765       3    3738    3756
       1    3738    3759       1    3726    3741       1    3726    3744       1
    3708    3729       1    3708    3732       1    3699    3723       3    3696
    3720       3    3690    3711       1    3690    3714       1    3687    3705
       3    3684    3702       3    3678    3693       3    3660    3675       3
    4017    4023       1    4017    4026       1    4017    4029       1    4005
    4014       1    4005    4020       1    4002    4008       1    4002    4011
       1    3984    3996       1    3984    3999       1    3975    3993       3
    3966    3987       1    3966    3990       1    3960    3981       3    3954
    3978       3    3945    3969       1    3945    3972       1    3942    3963
       3    3939    3957       3    3930    3948       1    3930    3951       1
    3918    3933       1    3918    3936       1    3900    3921       1    3900
    3924       1    3891    3915       3    3888    3912       3    3882    3903
       1    3882    3906       1    3879    3897       3    3876    3894       3
    3870    3885       3    3852    3867       3    4209    4215       1    4209
    4218       1    4209    4221       1    4197    4206       1    4197    4212
       1    4194    4200       1    4194    4203       1    4176    4188       1
    4176    4191       1    4167    4185       3    4158    4179       1    4158
    4182       1    4152    4173       3    4146    4170       3    4137    4161
       1    4137    4164       1    4134    4155       3    4131    4149       3
    4122    4140       1    4122    4143       1    4110    4125       1    4110
    4128       1    4092    4113       1    4092    4116       1    4083    4107
       3    4080    4104       3    4074    4095       1    4074    4098       1
    4071    4089       3    4068    4086       3    4062    4077       3    4044
    4059       3    4401    4407       1    4401    4410       1    4401    4413
       1    4389    4398       1    4389    4404       1    4386    4392       1
    4386    4395       1    4368    4380       1    4368    4383       1    4359
    4377       3    4350    4371       1    4350    4374       1    4344    4365
       3    4338    4362       3    4329    4353       1    4329    4356       1
    4326    4347       3    4323    4341       3    4314    4332       1    4314
    4335       1    4302    4317       1    4302    4320       1    4284    4305
       1    4284    4308       1    4275    4299       3    4272    4296       3
    4266    4287       1    4266    4290       1    4263    4281       3    4260
    4278       3    4254    4269       3    4236    4251       3    4593    4599
       1    4593    4602       1    4593    4605       1    4581    4590       1
    4581    4596       1    4578    4584       1    4578    4587       1    4560
    4572       1    4560    4575       1    4551    4569       3    4542    4563
       1    4542    4566       1    4536    4557       3    4530    4554       3
    4521    4545       1    4521    4548       1    4518    4539       3    4515
    4533       3    4506    4524       1    4506    4527       1    4494    4509
       1    4494    4512       1    4476    4497       1    4476    4500       1
    4467    4491       3    4464    4488       3    4458    4479       1    4458
    4482       1    4455    4473       3    4452    4470       3    4446    4461
       3    4428    4443       3    4785    4791       1    4785    4794       1
    4785    4797       1    4773    4782       1    4773    4788       1    4770
    4776       1    4770    4779       1    4752    4764       1    4752    4767
       1    4743    4761       3    4734    4755       1    4734    4758       1
    4728    4749       3    4722    4746       3    4713    4737       1    4713
    4740       1    4710    4731       3    4707    4725       3    4698    4716
       1    4698    4719       1    4686    4701       1    4686    4704       1
    4668    4689       1    4668    4692       1    4659    4683       3    4656
    4680       3    4650    4671       1    4650    4674       1    4647    4665
       3    4644    4662       3    4638    4653       3    4620    4635       3
    4977    4983       1    4977    4986       1    4977    4989       1    4965
    4974       1    4965    4980       1    4962    4968       1    4962    4971
       1    4944    4956       1    4944    4959       1    4935    4953       3
    4926    4947       1    4926    4950       1    4920    4941       3    4914
    4938       3    4905    4929       1    4905    4932       1    4902    4923
       3    4899    4917       3    4890    4908       1    4890    4911       1
    4878    4893       1    4878    4896       1    4860    4881       1    4860
    4884       1    4851    4875       3    4848    4872       3    4842    4863
       1    4842    4866       1    4839    4857       3    4836    4854       3
    4830    4845       3    4812    4827       3    5169    5175       1    5169
    5178       1    5169    5181       1    5157    5166       1    5157    5172
       1    5154    5160       1    5154    5163       1    5136    5148       1
    5136    5151       1    5127    5145       3    5118    5139       1    5118
    5142       1    5112    5133       3    5106    5130       3    5097    5121
       1    5097    5124       1    5094    5115       3    5091    5109       3
    5082    5100       1    5082    5103       1    5070    5085       1    5070
    5088       1    5052    5073       1    5052    5076       1    5043    5067
       3    5040    5064       3    5034    5055       1    5034    5058       1
    5031    5049       3    5028    5046       3    5022    5037       3    5004
    5019       3    5361    5367       1    5361    5370       1    5361    5373
       1    5349    5358       1    5349    5364       1    5346    5352       1
    5346    5355       1    5328    5340       1    5328    5343       1    5319
    5337       3    5310    5331       1    5310    5334       1    5304    5325
       3    5298    5322       3    5289    5313       1    5289    5316       1
    5286    5307       3    5283    5301       3    5274    5292       1    5274
    5295       1    5262    5277       1    5262    5280       1    5244    5265
       1    5244    5268       1    5235    5259       3    5232    5256       3
    5226    5247       1    5226    5250       1    5223    5241       3    5220
    5238       3    5214    5229       3    5196    5211       3    5553    5559
       1    5553    5562       1    5553    5565       1    5541    5550       1
    5541    5556       1    5538    5544       1    5538    5547       1    5520
    5532       1    5520    5535       1    5511    5529       3    5502    5523
       1    5502    5526       1    5496    5517       3    5490    5514       3
    5481    5505       1    5481    5508       1    5478    5499       3    5475
    5493       3    5466    5484       1    5466    5487       1    5454    5469
       1    5454    5472       1    5436    5457       1    5436    5460       1
    5427    5451       3    5424    5448       3    5418    5439       1    5418
    5442       1    5415    5433       3    5412    5430       3    5406    5421
       3    5388    5403       3    5745    5751       1    5745    5754       1
    5745    5757       1    5733    5742       1    5733    5748       1    5730
    5736       1    5730    5739       1    5712    5724       1    5712    5727
       1    5703    5721       3    5694    5715       1    5694    5718       1
    5688    5709       3    5682    5706       3    5673    5697       1    5673
    5700       1    5670    5691       3    5667    5685       3    5658    5676
       1    5658    5679       1    5646    5661       1    5646    5664       1
    5628    5649       1    5628    5652       1    5619    5643       3    5616
    5640       3    5610    5631       1    5610    5634       1    5607    5625
       3    5604    5622       3    5598    5613       3    5580    5595       3
    5937    5943       1    5937    5946       1    5937    5949       1    5925
    5934       1    5925    5940       1    5922    5928       1    5922    5931
       1    5904    5916       1    5904    5919       1    5895    5913       3
    5886    5907       1    5886    5910       1    5880    5901       3    5874
    5898       3    5865    5889       1    5865    5892       1    5862    5883
       3    5859    5877       3    5850    5868       1    5850    5871       1
    5838    5853       1    5838    5856       1    5820    5841       1    5820
    5844       1    5811    5835       3    5808    5832       3    5802    5823
       1    5802    5826       1    5799    5817       3    5796    5814       3
    5790    5805       3    5772    5787       3    6129    6135       1    6129
    6138       1    6129    6141       1    6117    6126       1    6117    6132
       1    6114    6120       1    6114    6123       1    6096    6108       1
    6096    6111       1    6087    6105       3    6078    6099       1    6078
    6102       1    6072    6093       3    6066    6090       3    6057    6081
       1    6057    6084       1    6054    6075       3    6051    6069       3
    6042    6060       1    6042    6063       1    6030    6045       1    6030
    6048       1    6012    6033       1    6012    6036       1    6003    6027
       3    6000    6024       3    5994    6015       1    5994    6018       1
    5991    6009       3    5988    6006       3    5982    5997       3    5964
    5979       3    6321    6327       1    6321    6330       1    6321    6333
       1    6309    6318       1    6309    6324       1    6306    6312       1
    6306    6315       1    6288    6300       1    6288    6303       1    6279
    6297       3    6270    6291       1    6270    6294       1    6264    6285
       3    6258    6282       3    6249    6273       1    6249    6276       1
    6246    6267       3    6243    6261       3    6234    6252       1    6234
    6255       1    6222    6237       1    6222    6240       1    6204    6225
       1    6204    6228       1    6195    6219       3    6192    6216       3
    6186    6207       1    6186    6210       1    6183    6201       3    6180
    6198       3    6174    6189       3    6156    6171       3    6513    6519
       1    6513    6522       1    6513    6525       1    6501    6510       1
    6501    6516       1    6498    6504       1    6498    6507       1    6480
    6492       1    6480    6495       1    6471    6489       3    6462    6483
       1    6462    6486       1    6456    6477       3    6450    6474       3
    6441    6465       1    6441    6468       1    6438    6459       3    6435
    6453       3    6426    6444       1    6426    6447       1    6414    6429
       1    6414    6432       1    6396    6417       1    6396    6420       1
    6387    6411       3    6384    6408       3    6378    6399       1    6378
    6402       1    6375    6393       3    6372    6390       3    6366    6381
       3    6348    6363       3    6705    6711       1    6705    6714       1
    6705    6717       1    6693    6702       1    6693    6708       1    6690
    6696       1    6690    6699       1    6672    6684       1    6672    6687
       1    6663    6681       3    6654    6675       1    6654    6678       1
    6648    6669       3    6642    6666       3    6633    6657       1    6633
    6660       1    6630    6651       3    6627    6645       3    6618    6636
       1    6618    6639       1    6606    6621       1    6606    6624       1
    6588    6609       1    6588    6612       1    6579    6603       3    6576
    6600       3    6570    6591       1    6570    6594       1    6567    6585
       3    6564    6582       3    6558    6573       3    6540    6555       3
    6897    6903       1    6897    6906       1    6897    6909       1    6885
    6894       1    6885    6900       1    6882    6888       1    6882    6891
       1    6864    6876       1    6864    6879       1    6855    6873       3
    6846    6867       1    6846    6870       1    6840    6861       3    6834
    6858       3    6825    6849       1    6825    6852       1    6822    6843
       3    6819    6837       3    6810    6828       1    6810    6831       1
    6798    6813       1    6798    6816       1    6780    6801       1    6780
    6804       1    6771    6795       3    6768    6792       3    6762    6783
       1    6762    6786       1    6759    6777       3    6756    6774       3
    6750    6765       3    6732    6747       3    7089    7095       1    7089
    7098       1    7089    7101       1    7077    7086       1    7077    7092
       1    7074    7080       1    7074    7083       1    7056    7068       1
    7056    7071       1    7047    7065       3    7038    7059       1    7038
    7062       1    7032    7053       3    7026    7050       3    7017    7041
       1    7017    7044       1    7014    7035       3    7011    7029       3
    7002    7020       1    7002    7023       1    6990    7005       1    6990
    7008       1    6972    6993       1    6972    6996       1    6963    6987
       3    6960    6984       3    6954    6975       1    6954    6978       1
    6951    6969       3    6948    6966       3    6942    6957       3    6924
    6939       3    7281    7287       1    7281    7290       1    7281    7293
       1    7269    7278       1    7269    7284       1    7266    7272       1
    7266    7275       1    7248    7260       1    7248    7263       1    7239
    7257       3    7230    7251       1    7230    7254       1    7224    7245
       3    7218    7242       3    7209    7233       1    7209    7236       1
    7206    7227       3    7203    7221       3    7194    7212       1    7194
    7215       1    7182    7197       1    7182    7200       1    7164    7185
       1    7164    7188       1    7155    7179       3    7152    7176       3
    7146    7167       1    7146    7170       1    7143    7161       3    7140
    7158       3    7134    7149       3    7116    7131       3    7473    7479
       1    7473    7482       1    7473    7485       1    7461    7470       1
    7461    7476       1    7458    7464       1    7458    7467       1    7440
    7452       1    7440    7455       1    7431    7449       3    7422    7443
       1    7422    7446       1    7416    7437       3    7410    7434       3
    7401    7425       1    7401    7428       1    7398    7419       3    7395
    7413       3    7386    7404       1    7386    7407       1    7374    7389
       1    7374    7392       1    7356    7377       1    7356    7380       1
    7347    7371       3    7344    7368       3    7338    7359       1    7338
    7362       1    7335    7353       3    7332    7350       3    7326    7341
       3    7308    7323       3    7665    7671       1    7665    7674       1
    7665    7677       1    7653    7662       1    7653    7668       1    7650
    7656       1    7650    7659       1    7632    7644       1    7632    7647
       1    7623    7641       3    7614    7635       1    7614    7638       1
    7608    7629       3    7602    7626       3    7593    7617       1    7593
    7620       1    7590    7611       3    7587    7605       3    7578    7596
       1    7578    7599       1    7566    7581       1    7566    7584       1
    7548    7569       1    7548    7572       1    7539    7563       3    7536
    7560       3    7530    7551       1    7530    7554       1    7527    7545
       3    7524    7542       3    7518    7533       3    7500    7515       3
    7857    7863       1    7857    7866       1    7857    7869       1    7845
    7854       1    7845    7860       1    7842    7848       1    7842    7851
       1    7824    7836       1    7824    7839       1    7815    7833       3
    7806    7827       1    7806    7830       1    7800    7821       3    7794
    7818       3    7785    7809       1    7785    7812       1    7782    7803
       3    7779    7797       3    7770    7788       1    7770    7791       1
    7758    7773       1    7758    7776       1    7740    7761       1    7740
    7764       1    7731    7755       3    7728    7752       3    7722    7743
       1    7722    7746       1    7719    7737       3    7716    7734       3
    7710    7725       3    7692    7707       3    8049    8055       1    8049
    8058       1    8049    8061       1    8037    8046       1    8037    8052
       1    8034    8040       1    8034    8043       1    8016    8028       1
    8016    8031       1    8007    8025       3    7998    8019       1    7998
    8022       1    7992    8013       3    7986    8010       3    7977    8001
       1    7977    8004       1    7974    7995       3    7971    7989       3
    7962    7980       1    7962    7983       1    7950    7965       1    7950
    7968       1    7932    7953       1    7932    7956       1    7923    7947
       3    7920    7944       3    7914    7935       1    7914    7938       1
    7911    7929       3    7908    7926       3    7902    7917       3    7884
    7899       3    8241    8247       1    8241    8250       1    8241    8253
       1    8229    8238       1    8229    8244       1    8226    8232       1
    8226    8235       1    8208    8220       1    8208    8223       1    8199
    8217       3    8190    8211       1    8190    8214       1    8184    8205
       3    8178    8202       3    8169    8193       1    8169    8196       1
    8166    8187       3    8163    8181       3    8154    8172       1    8154
    8175       1    8142    8157       1    8142    8160       1    8124    8145
       1    8124    8148       1    8115    8139       3    8112    8136       3
    8106    8127       1    8106    8130       1    8103    8121       3    8100
    8118       3    8094    8109       3    8076    8091       3    8433    8439
       1    8433    8442       1    8433    8445       1    8421    8430       1
    8421    8436       1    8418    8424       1    8418    8427       1    8400
    8412       1    8400    8415       1    8391    8409       3    8382    8403
       1    8382    8406       1    8376    8397       3    8370    8394       3
    8361    8385       1    8361    8388       1    8358    8379       3    8355
    8373       3    8346    8364       1    8346    8367       1    8334    8349
       1    8334    8352       1    8316    8337       1    8316    8340       1
    8307    8331       3    8304    8328       3    8298    8319       1    8298
    8322       1    8295    8313       3    8292    8310       3    8286    8301
       3    8268    8283       3    8625    8631       1    8625    8634       1
    8625    8637       1    8613    8622       1    8613    8628       1    8610
    8616       1    8610    8619       1    8592    8604       1    8592    8607
       1    8583    8601       3    8574    8595       1    8574    8598       1
    8568    8589       3    8562    8586       3    8553    8577       1    8553
    8580       1    8550    8571       3    8547    8565       3    8538    8556
       1    8538    8559       1    8526    8541       1    8526    8544       1
    8508    8529       1    8508    8532       1    8499    8523       3    8496
    8520       3    8490    8511       1    8490    8514       1    8487    8505
       3    8484    8502       3    8478    8493       3    8460    8475       3
    8817    8823       1    8817    8826       1    8817    8829       1    8805
    8814       1    8805    8820       1    8802    8808       1    8802    8811
       1    8784    8796       1    8784    8799       1    8775    8793       3
    8766    8787       1    8766    8790       1    8760    8781       3    8754
    8778       3    8745    8769       1    8745    8772       1    8742    8763
       3    8739    8757       3    8730    8748       1    8730    8751       1
    8718    8733       1    8718    8736       1    8700    8721       1    8700
    8724       1    8691    8715       3    8688    8712       3    8682    8703
       1    8682    8706       1    8679    8697       3    8676    8694       3
    8670    8685       3    8652    8667       3    9009    9015       1    9009
    9018       1    9009    9021       1    8997    9006       1    8997    9012
       1    8994    9000       1    8994    9003       1    8976    8988       1
    8976    8991       1    8967    8985       3    8958    8979       1    8958
    8982       1    8952    8973       3    8946    8970       3    8937    8961
       1    8937    8964       1    8934    8955       3    8931    8949       3
    8922    8940       1    8922    8943       1    8910    8925       1    8910
    8928       1    8892    8913       1    8892    8916       1    8883    8907
       3    8880    8904       3    8874    8895       1    8874    8898       1
    8871    8889       3    8868    8886       3    8862    8877       3    8844
    8859       3    9201    9207       1    9201    9210       1    9201    9213
       1    9189    9198       1    9189    9204       1    9186    9192       1
    9186    9195       1    9168    9180       1    9168    9183       1    9159
    9177       3    9150    9171       1    9150    9174       1    9144    9165
       3    9138    9162       3    9129    9153       1    9129    9156       1
    9126    9147       3    9123    9141       3    9114    9132       1    9114
    9135       1    9102    9117       1    9102    9120       1    9084    9105
       1    9084    9108       1    9075    9099       3    9072    9096       3
    9066    9087       1    9066    9090       1    9063    9081       3    9060
    9078       3    9054    9069       3    9036    9051       3    9393    9399
       1    9393    9402       1    9393    9405       1    9381    9390       1
    9381    9396       1    9378    9384       1    9378    9387       1    9360
    9372       1    9360    9375       1    9351    9369       3    9342    9363
       1    9342    9366       1    9336    9357       3    9330    9354       3
    9321    9345       1    9321    9348       1    9318    9339       3    9315
    9333       3    9306    9324       1    9306    9327       1    9294    9309
       1    9294    9312       1    9276    9297       1    9276    9300       1
    9267    9291       3    9264    9288       3    9258    9279       1    9258
    9282       1    9255    9273       3    9252    9270       3    9246    9261
       3    9228    9243       3    9585    9591       1    9585    9594       1
    9585    9597       1    9573    9582       1    9573    9588       1    9570
    9576       1    9570    9579       1    9552    9564       1    9552    9567
       1    9543    9561       3    9534    9555       1    9534    9558       1
    9528    9549       3    9522    9546       3    9513    9537       1    9513
    9540       1    9510    9531       3    9507    9525       3    9498    9516
       1    9498    9519       1    9486    9501       1    9486    9504       1
    9468    9489       1    9468    9492       1    9459    9483       3    9456
    9480       3    9450    9471       1    9450    9474       1    9447    9465
       3    9444    9462       3    9438    9453       3    9420    9435       3
    9777    9783       1    9777    9786       1    9777    9789       1    9765
    9774       1    9765    9780       1    9762    9768       1    9762    9771
       1    9744    9756       1    9744    9759       1    9735    9753       3
    9726    9747       1    9726    9750       1    9720    9741       3    9714
    9738       3    9705    9729       1    9705    9732       1    9702    9723
       3    9699    9717       3    9690    9708       1    9690    9711       1
    9678    9693       1    9678    9696       1    9660    9681       1    9660
    9684       1    9651    9675       3    9648    9672       3    9642    9663
       1    9642    9666       1    9639    9657       3    9636    9654       3
    9630    9645       3    9612    9627       3    9969    9975       1    9969
    9978       1    9969    9981       1    9957    9966       1    9957    9972
       1    9954    9960       1    9954    9963       1    9936    9948       1
    9936    9951       1    9927    9945       3    9918    9939       1    9918
    9942       1    9912    9933       3    9906    9930       3    9897    9921
       1    9897    9924       1    9894    9915       3    9891    9909       3
    9882    9900       1    9882    9903       1    9870    9885       1    9870
    9888       1    9852    9873       1    9852    9876       1    9843    9867
       3    9840    9864       3    9834    9855       1    9834    9858       1
    9831    9849       3    9828    9846       3    9822    9837       3    9804
    9819       3   10161   10167       1   10161   10170       1   10161   10173
       1   10149   10158       1   10149   10164       1   10146   10152       1
   10146   10155       1   10128   10140       1   10128   10143       1   10119
   10137       3   10110   10131       1   10110   10134       1   10104   10125
       3   10098   10122       3   10089   10113       1   10089   10116       1
   10086   10107       3   10083   10101       3   10074   10092       1   10074
   10095       1   10062   10077       1   10062   10080       1   10044   10065
       1   10044   10068       1   10035   10059       3   10032   10056       3
   10026   10047       1   10026   10050       1   10023   10041       3   10020
   10038       3   10014   10029       3    9996   10011       3   10353   10359
       1   10353   10362       1   10353   10365       1   10341   10350       1
   10341   10356       1   10338   10344       1   10338   10347       1   10320
   10332       1   10320   10335       1   10311   10329       3   10302   10323
       1   10302   10326       1   10296   10317       3   10290   10314       3
   10281   10305       1   10281   10308       1   10278   10299       3   10275
   10293       3   10266   10284       1   10266   10287       1   10254   10269
       1   10254   10272       1   10236   10257       1   10236   10260       1
   10227   10251       3   10224   10248       3   10218   10239       1   10218
   10242       1   10215   10233       3   10212   10230       3   10206   10221
       3   10188   10203       3   10545   10551       1   10545   10554       1
   10545   10557       1   10533   10542       1   10533   10548       1   10530
   10536       1   10530   10539       1   10512   10524       1   10512   10527
       1   10503   10521       3   10494   10515       1   10494   10518       1
   10488   10509       3   10482   10506       3   10473   10497       1   10473
   10500       1   10470   10491       3   10467   10485       3   10458   10476
       1   10458   10479       1   10446   10461       1   10446   10464       1
   10428   10449       1   10428   10452       1   10419   10443       3   10416
   10440       3   10410   10431       1   10410   10434       1   10407   10425
       3   10404   10422       3   10398   10413       3   10380   10395       3
   10737   10743       1   10737   10746       1   10737   10749       1   10725
   10734       1   10725   10740       1   10722   10728       1   10722   10731
       1   10704   10716       1   10704   10719       1   10695   10713       3
   10686   10707       1   10686   10710       1   10680   10701       3   10674
   10698       3   10665   10689       1   10665   10692       1   10662   10683
       3   10659   10677       3   10650   10668       1   10650   10671       1
   10638   10653       1   10638   10656       1   10620   10641       1   10620
   10644       1   10611   10635       3   10608   10632       3   10602   10623
       1   10602   10626       1   10599   10617       3   10596   10614       3
   10590   10605       3   10572   10587       3   10929   10935       1   10929
   10938       1   10929   10941       1   10917   10926       1   10917   10932
       1   10914   10920       1   10914   10923       1   10896   10908       1
   10896   10911       1   10887   10905       3   10878   10899       1   10878
   10902       1   10872   10893       3   10866   10890       3   10857   10881
       1   10857   10884       1   10854   10875       3   10851   10869       3
   10842   10860       1   10842   10863       1   10830   10845       1   10830
   10848       1   10812   10833       1   10812   10836       1   10803   10827
       3   10800   10824       3   10794   10815       1   10794   10818       1
   10791   10809       3   10788   10806       3   10782   10797       3   10764
   10779       3   11121   11127       1   11121   11130       1   11121   11133
       1   11109   11118       1   11109   11124       1   11106   11112       1
   11106   11115       1   11088   11100       1   11088   11103       1   11079
   11097       3   11070   11091       1   11070   11094       1   11064   11085
       3   11058   11082       3   11049   11073       1   11049   11076       1
   11046   11067       3   11043   11061       3   11034   11052       1   11034
   11055       1   11022   11037       1   11022   11040       1   11004   11025
       1   11004   11028       1   10995   11019       3   10992   11016       3
   10986   11007       1   10986   11010       1   10983   11001       3   10980
   10998       3   10974   10989       3   10956   10971       3   11313   11319
       1   11313   11322       1   11313   11325       1   11301   11310       1
   11301   11316       1   11298   11304       1   11298   11307       1   11280
   11292       1   11280   11295       1   11271   11289       3   11262   11283
       1   11262   11286       1   11256   11277       3   11250   11274       3
   11241   11265       1   11241   11268       1   11238   11259       3   11235
   11253       3   11226   11244       1   11226   11247       1   11214   11229
       1   11214   11232       1   11196   11217       1   11196   11220       1
   11187   11211       3   11184   11208       3   11178   11199       1   11178
   11202       1   11175   11193       3   11172   11190       3   11166   11181
       3   11148   11163       3   11505   11511       1   11505   11514       1
   11505   11517       1   11493   11502       1   11493   11508       1   11490
   11496       1   11490   11499       1   11472   11484       1   11472   11487
       1   11463   11481       3   11454   11475       1   11454   11478       1
   11448   11469       3   11442   11466       3   11433   11457       1   11433
   11460       1   11430   11451       3   11427   11445       3   11418   11436
       1   11418   11439       1   11406   11421       1   11406   11424       1
   11388   11409       1   11388   11412       1   11379   11403       3   11376
   11400       3   11370   11391       1   11370   11394       1   11367   11385
       3   11364   11382       3   11358   11373       3   11340   11355       3
   11697   11703       1   11697   11706       1   11697   11709       1   11685
   11694       1   11685   11700       1   11682   11688       1   11682   11691
       1   11664   11676       1   11664   11679       1   11655   11673       3
   11646   11667       1   11646   11670       1   11640   11661       3   11634
   11658       3   11625   11649       1   11625   11652       1   11622   11643
       3   11619   11637       3   11610   11628       1   11610   11631       1
   11598   11613       1   11598   11616       1   11580   11601       1   11580
   11604       1   11571   11595       3   11568   11592       3   11562   11583
       1   11562   11586       1   11559   11577       3   11556   11574       3
   11550   11565       3   11532   11547       3   11889   11895       1   11889
   11898       1   11889   11901       1   11877   11886       1   11877   11892
       1   11874   11880       1   11874   11883       1   11856   11868       1
   11856   11871       1   11847   11865       3   11838   11859       1   11838
   11862       1   11832   11853       3   11826   11850       3   11817   11841
       1   11817   11844       1   11814   11835       3   11811   11829       3
   11802   11820       1   11802   11823       1   11790   11805       1   11790
   11808       1   11772   11793       1   11772   11796       1   11763   11787
       3   11760   11784       3   11754   11775       1   11754   11778       1
   11751   11769       3   11748   11766       3   11742   11757       3   11724
   11739       3   12081   12087       1   12081   12090       1   12081   12093
       1   12069   12078       1   12069   12084       1   12066   12072       1
   12066   12075       1   12048   12060       1   12048   12063       1   12039
   12057       3   12030   12051       1   12030   12054       1   12024   12045
       3   12018   12042       3   12009   12033       1   12009   12036       1
   12006   12027       3   12003   12021       3   11994   12012       1   11994
   12015       1   11982   11997       1   11982   12000       1   11964   11985
       1   11964   11988       1   11955   11979       3   11952   11976       3
   11946   11967       1   11946   11970       1   11943   11961       3   11940
   11958       3   11934   11949       3   11916   11931       3   12273   12279
       1   12273   12282       1   12273   12285       1   12261   12270       1
   12261   12276       1   12258   12264       1   12258   12267       1   12240
   12252       1   12240   12255       1   12231   12249       3   12222   12243
       1   12222   12246       1   12216   12237       3   12210   12234       3
   12201   12225       1   12201   12228       1   12198   12219       3   12195
   12213       3   12186   12204       1   12186   12207       1   12174   12189
       1   12174   12192       1   12156   12177       1   12156   12180       1
   12147   12171       3   12144   12168       3   12138   12159       1   12138
   12162       1   12135   12153       3   12132   12150       3   12126   12141
       3   12108   12123       3   12465   12471       1   12465   12474       1
   12465   12477       1   12453   12462       1   12453   12468       1   12450
   12456       1   12450   12459       1   12432   12444       1   12432   12447
       1   12423   12441       3   12414   12435       1   12414   12438       1
   12408   12429       3   12402   12426       3   12393   12417       1   12393
   12420       1   12390   12411       3   12387   12405       3   12378   12396
       1   12378   12399       1   12366   12381       1   12366   12384       1
   12348   12369       1   12348   12372       1   12339   12363       3   12336
   12360       3   12330   12351       1   12330   12354       1   12327   12345
       3   12324   12342       3   12318   12333       3   12300   12315       3
   12657   12663       1   12657   12666       1   12657   12669       1   12645
   12654       1   12645   12660       1   12642   12648       1   12642   12651
       1   12624   12636       1   12624   12639       1   12615   12633       3
   12606   12627       1   12606   12630       1   12600   12621       3   12594
   12618       3   12585   12609       1   12585   12612       1   12582   12603
       3   12579   12597       3   12570   12588       1   12570   12591       1
   12558   12573       1   12558   12576       1   12540   12561       1   12540
   12564       1   12531   12555       3   12528   12552       3   12522   12543
       1   12522   12546       1   12519   12537       3   12516   12534       3
   12510   12525       3   12492   12507       3   12849   12855       1   12849
   12858       1   12849   12861       1   12837   12846       1   12837   12852
       1   12834   12840       1   12834   12843       1   12816   12828       1
   12816   12831       1   12807   12825       3   12798   12819       1   12798
   12822       1   12792   12813       3   12786   12810       3   12777   12801
       1   12777   12804       1   12774   12795       3   12771   12789       3
   12762   12780       1   12762   12783       1   12750   12765       1   12750
   12768       1   12732   12753       1   12732   12756       1   12723   12747
       3   12720   12744       3   12714   12735       1   12714   12738       1
   12711   12729       3   12708   12726       3   12702   12717       3   12684
   12699       3   13041   13047       1   13041   13050       1   13041   13053
       1   13029   13038       1   13029   13044       1   13026   13032       1
   13026   13035       1   13008   13020       1   13008   13023       1   12999
   13017       3   12990   13011       1   12990   13014       1   12984   13005
       3   12978   13002       3   12969   12993       1   12969   12996       1
   12966   12987       3   12963   12981       3   12954   12972       1   12954
   12975       1   12942   12957       1   12942   12960       1   12924   12945
       1   12924   12948       1   12915   12939       3   12912   12936       3
   12906   12927       1   12906   12930       1   12903   12921       3   12900
   12918       3   12894   12909       3   12876   12891       3   13233   13239
       1   13233   13242       1   13233   13245       1   13221   13230       1
   13221   13236       1   13218   13224       1   13218   13227       1   13200
   13212       1   13200   13215       1   13191   13209       3   13182   13203
       1   13182   13206       1   13176   13197       3   13170   13194       3
   13161   13185       1   13161   13188       1   13158   13179       3   13155
   13173       3   13146   13164       1   13146   13167       1   13134   13149
       1   13134   13152       1   13116   13137       1   13116   13140       1
   13107   13131       3   13104   13128       3   13098   13119       1   13098
   13122       1   13095   13113       3   13092   13110       3   13086   13101
       3   13068   13083       3   13425   13431       1   13425   13434       1
   13425   13437       1   13413   13422       1   13413   13428       1   13410
   13416       1   13410   13419       1   13392   13404       1   13392   13407
       1   13383   13401       3   13374   13395       1   13374   13398       1
   13368   13389       3   13362   13386       3   13353   13377       1   13353
   13380       1   13350   13371       3   13347   13365       3   13338   13356
       1   13338   13359       1   13326   13341       1   13326   13344       1
   13308   13329       1   13308   13332       1   13299   13323       3   13296
   13320       3   13290   13311       1   13290   13314       1   13287   13305
       3   13284   13302       3   13278   13293       3   13260   13275       3
   13617   13623       1   13617   13626       1   13617   13629       1   13605
   13614       1   13605   13620       1   13602   13608       1   13602   13611
       1   13584   13596       1   13584   13599       1   13575   13593       3
   13566   13587       1   13566   13590       1   13560   13581       3   13554
   13578       3   13545   13569       1   13545   13572       1   13542   13563
       3   13539   13557       3   13530   13548       1   13530   13551       1
   13518   13533       1   13518   13536       1   13500   13521       1   13500
   13524       1   13491   13515       3   13488   13512       3   13482   13503
       1   13482   13506       1   13479   13497       3   13476   13494       3
   13470   13485       3   13452   13467       3   13809   13815       1   13809
   13818       1   13809   13821       1   13797   13806       1   13797   13812
       1   13794   13800       1   13794   13803       1   13776   13788       1
   13776   13791       1   13767   13785       3   13758   13779       1   13758
   13782       1   13752   13773       3   13746   13770       3   13737   13761
       1   13737   13764       1   13734   13755       3   13731   13749       3
   13722   13740       1   13722   13743       1   13710   13725       1   13710
   13728       1   13692   13713       1   13692   13716       1   13683   13707
       3   13680   13704       3   13674   13695       1   13674   13698       1
   13671   13689       3   13668   13686       3   13662   13677       3   13644
   13659       3   14001   14007       1   14001   14010       1   14001   14013
       1   13989   13998       1   13989   14004       1   13986   13992       1
   13986   13995       1   13968   13980       1   13968   13983       1   13959
   13977       3   13950   13971       1   13950   13974       1   13944   13965
       3   13938   13962       3   13929   13953       1   13929   13956       1
   13926   13947       3   13923   13941       3   13914   13932       1   13914
   13935       1   13902   13917       1   13902   13920       1   13884   13905
       1   13884   13908       1   13875   13899       3   13872   13896       3
   13866   13887       1   13866   13890       1   13863   13881       3   13860
   13878       3   13854   13869       3   13836   13851       3   14193   14199
       1   14193   14202       1   14193   14205       1   14181   14190       1
   14181   14196       1   14178   14184       1   14178   14187       1   14160
   14172       1   14160   14175       1   14151   14169       3   14142   14163
       1   14142   14166       1   14136   14157       3   14130   14154       3
   14121   14145       1   14121   14148       1   14118   14139       3   14115
   14133       3   14106   14124       1   14106   14127       1   14094   14109
       1   14094   14112       1   14076   14097       1   14076   14100       1
   14067   14091       3   14064   14088       3   14058   14079       1   14058
   14082       1   14055   14073       3   14052   14070       3   14046   14061
       3   14028   14043       3   14385   14391       1   14385   14394       1
   14385   14397       1   14373   14382       1   14373   14388       1   14370
   14376       1   14370   14379       1   14352   14364       1   14352   14367
       1   14343   14361       3   14334   14355       1   14334   14358       1
   14328   14349       3   14322   14346       3   14313   14337       1   14313
   14340       1   14310   14331       3   14307   14325       3   14298   14316
       1   14298   14319       1   14286   14301       1   14286   14304       1
   14268   14289       1   14268   14292       1   14259   14283       3   14256
   14280       3   14250   14271       1   14250   14274       1   14247   14265
       3   14244   14262       3   14238   14253       3   14220   14235       3
   14577   14583       1   14577   14586       1   14577   14589       1   14565
   14574       1   14565   14580       1   14562   14568       1   14562   14571
       1   14544   14556       1   14544   14559       1   14535   14553       3
   14526   14547       1   14526   14550       1   14520   14541       3   14514
   14538       3   14505   14529       1   14505   14532       1   14502   14523
       3   14499   14517       3   14490   14508       1   14490   14511       1
   14478   14493       1   14478   14496       1   14460   14481       1   14460
   14484       1   14451   14475       3   14448   14472       3   14442   14463
       1   14442   14466       1   14439   14457       3   14436   14454       3
   14430   14445       3   14412   14427       3   14769   14775       1   14769
   14778       1   14769   14781       1   14757   14766       1   14757   14772
       1   14754   14760       1   14754   14763       1   14736   14748       1
   14736   14751       1   14727   14745       3   14718   14739       1   14718
   14742       1   14712   14733       3   14706   14730       3   14697   14721
       1   14697   14724       1   14694   14715       3   14691   14709       3
   14682   14700       1   14682   14703       1   14670   14685       1   14670
   14688       1   14652   14673       1   14652   14676       1   14643   14667
       3   14640   14664       3   14634   14655       1   14634   14658       1
   14631   14649       3   14628   14646       3   14622   14637       3   14604
   14619       3   14961   14967       1   14961   14970       1   14961   14973
       1   14949   14958       1   14949   14964       1   14946   14952       1
   14946   14955       1   14928   14940       1   14928   14943       1   14919
   14937       3   14910   14931       1   14910   14934       1   14904   14925
       3   14898   14922       3   14889   14913       1   14889   14916       1
   14886   14907       3   14883   14901       3   14874   14892       1   14874
   14895       1   14862   14877       1   14862   14880       1   14844   14865
       1   14844   14868       1   14835   14859       3   14832   14856       3
   14826   14847       1   14826   14850       1   14823   14841       3   14820
   14838       3   14814   14829       3   14796   14811       3   15153   15159
       1   15153   15162       1   15153   15165       1   15141   15150       1
   15141   15156       1   15138   15144       1   15138   15147       1   15120
   15132       1   15120   15135       1   15111   15129       3   15102   15123
       1   15102   15126       1   15096   15117       3   15090   15114       3
   15081   15105       1   15081   15108       1   15078   15099       3   15075
   15093       3   15066   15084       1   15066   15087       1   15054   15069
       1   15054   15072       1   15036   15057       1   15036   15060       1
   15027   15051       3   15024   15048       3   15018   15039       1   15018
   15042       1   15015   15033       3   15012   15030       3   15006   15021
       3   14988   15003       3   15345   15351       1   15345   15354       1
   15345   15357       1   15333   15342       1   15333   15348       1   15330
   15336       1   15330   15339       1   15312   15324       1   15312   15327
       1   15303   15321       3   15294   15315       1   15294   15318       1
   15288   15309       3   15282   15306       3   15273   15297       1   15273
   15300       1   15270   15291       3   15267   15285       3   15258   15276
       1   15258   15279       1   15246   15261       1   15246   15264       1
   15228   15249       1   15228   15252       1   15219   15243       3   15216
   15240       3   15210   15231       1   15210   15234       1   15207   15225
       3   15204   15222       3   15198   15213       3   15180   15195       3
   15537   15543       1   15537   15546       1   15537   15549       1   15525
   15534       1   15525   15540       1   15522   15528       1   15522   15531
       1   15504   15516       1   15504   15519       1   15495   15513       3
   15486   15507       1   15486   15510       1   15480   15501       3   15474
   15498       3   15465   15489       1   15465   15492       1   15462   15483
       3   15459   15477       3   15450   15468       1   15450   15471       1
   15438   15453       1   15438   15456       1   15420   15441       1   15420
   15444       1   15411   15435       3   15408   15432       3   15402   15423
       1   15402   15426       1   15399   15417       3   15396   15414       3
   15390   15405       3   15372   15387       3   15729   15735       1   15729
   15738       1   15729   15741       1   15717   15726       1   15717   15732
       1   15714   15720       1   15714   15723       1   15696   15708       1
   15696   15711       1   15687   15705       3   15678   15699       1   15678
   15702       1   15672   15693       3   15666   15690       3   15657   15681
       1   15657   15684       1   15654   15675       3   15651   15669       3
   15642   15660       1   15642   15663       1   15630   15645       1   15630
   15648       1   15612   15633       1   15612   15636       1   15603   15627
       3   15600   15624       3   15594   15615       1   15594   15618       1
   15591   15609       3   15588   15606       3   15582   15597       3   15564
   15579       3   15921   15927       1   15921   15930       1   15921   15933
       1   15909   15918       1   15909   15924       1   15906   15912       1
   15906   15915       1   15888   15900       1   15888   15903       1   15879
   15897       3   15870   15891       1   15870   15894       1   15864   15885
       3   15858   15882       3   15849   15873       1   15849   15876       1
   15846   15867       3   15843   15861       3   15834   15852       1   15834
   15855       1   15822   15837       1   15822   15840       1   15804   15825
       1   15804   15828       1   15795   15819       3   15792   15816       3
   15786   15807       1   15786   15810       1   15783   15801       3   15780
   15798       3   15774   15789       3   15756   15771       3   16113   16119
       1   16113   16122       1   16113   16125       1   16101   16110       1
   16101   16116       1   16098   16104       1   16098   16107       1   16080
   16092       1   16080   16095       1   16071   16089       3   16062   16083
       1   16062   16086       1   16056   16077       3   16050   16074       3
   16041   16065       1   16041   16068       1   16038   16059       3   16035
   16053       3   16026   16044       1   16026   16047       1   16014   16029
       1   16014   16032       1   15996   16017       1   15996   16020       1
   15987   16011       3   15984   16008       3   15978   15999       1   15978
   16002       1   15975   15993       3   15972   15990       3   15966   15981
       3   15948   15963       3   16305   16311       1   16305   16314       1
   16305   16317       1   16293   16302       1   16293   16308       1   16290
   16296       1   16290   16299       1   16272   16284       1   16272   16287
       1   16263   16281       3   16254   16275       1   16254   16278       1
   16248   16269       3   16242   16266       3   16233   16257       1   16233
   16260       1   16230   16251       3   16227   16245       3   16218   16236
       1   16218   16239       1   16206   16221       1   16206   16224       1
   16188   16209       1   16188   16212       1   16179   16203       3   16176
   16200       3   16170   16191       1   16170   16194       1   16167   16185
       3   16164   16182       3   16158   16173       3   16140   16155       3
   16497   16503       1   16497   16506       1   16497   16509       1   16485
   16494       1   16485   16500       1   16482   16488       1   16482   16491
       1   16464   16476       1   16464   16479       1   16455   16473       3
   16446   16467       1   16446   16470       1   16440   16461       3   16434
   16458       3   16425   16449       1   16425   16452       1   16422   16443
       3   16419   16437       3   16410   16428       1   16410   16431       1
   16398   16413       1   16398   16416       1   16380   16401       1   16380
   16404       1   16371   16395       3   16368   16392       3   16362   16383
       1   16362   16386       1   16359   16377       3   16356   16374       3
   16350   16365       3   16332   16347       3   16689   16695       1   16689
   16698       1   16689   16701       1   16677   16686       1   16677   16692
       1   16674   16680       1   16674   16683       1   16656   16668       1
   16656   16671       1   16647   16665       3   16638   16659       1   16638
   16662       1   16632   16653       3   16626   16650       3   16617   16641
       1   16617   16644       1   16614   16635       3   16611   16629       3
   16602   16620       1   16602   16623       1   16590   16605       1   16590
   16608       1   16572   16593       1   16572   16596       1   16563   16587
       3   16560   16584       3   16554   16575       1   16554   16578       1
   16551   16569       3   16548   16566       3   16542   16557       3   16524
   16539       3   16881   16887       1   16881   16890       1   16881   16893
       1   16869   16878       1   16869   16884       1   16866   16872       1
   16866   16875       1   16848   16860       1   16848   16863       1   16839
   16857       3   16830   16851       1   16830   16854       1   16824   16845
       3   16818   16842       3   16809   16833       1   16809   16836       1
   16806   16827       3   16803   16821       3   16794   16812       1   16794
   16815       1   16782   16797       1   16782   16800       1   16764   16785
       1   16764   16788       1   16755   16779       3   16752   16776       3
   16746   16767       1   16746   16770       1   16743   16761       3   16740
   16758       3   16734   16749       3   16716   16731       3   17073   17079
       1   17073   17082       1   17073   17085       1   17061   17070       1
   17061   17076       1   17058   17064       1   17058   17067       1   17040
   17052       1   17040   17055       1   17031   17049       3   17022   17043
       1   17022   17046       1   17016   17037       3   17010   17034       3
   17001   17025       1   17001   17028       1   16998   17019       3   16995
   17013       3   16986   17004       1   16986   17007       1   16974   16989
       1   16974   16992       1   16956   16977       1   16956   16980       1
   16947   16971       3   16944   16968       3   16938   16959       1   16938
   16962       1   16935   16953       3   16932   16950       3   16926   16941
       3   16908   16923       3   17265   17271       1   17265   17274       1
   17265   17277       1   17253   17262       1   17253   17268       1   17250
   17256       1   17250   17259       1   17232   17244       1   17232   17247
       1   17223   17241       3   17214   17235       1   17214   17238       1
   17208   17229       3   17202   17226       3   17193   17217       1   17193
   17220       1   17190   17211       3   17187   17205       3   17178   17196
       1   17178   17199       1   17166   17181       1   17166   17184       1
   17148   17169       1   17148   17172       1   17139   17163       3   17136
   17160       3   17130   17151       1   17130   17154       1   17127   17145
       3   17124   17142       3   17118   17133       3   17100   17115       3
   17457   17463       1   17457   17466       1   17457   17469       1   17445
   17454       1   17445   17460       1   17442   17448       1   17442   17451
       1   17424   17436       1   17424   17439       1   17415   17433       3
   17406   17427       1   17406   17430       1   17400   17421       3   17394
   17418       3   17385   17409       1   17385   17412       1   17382   17403
       3   17379   17397       3   17370   17388       1   17370   17391       1
   17358   17373       1   17358   17376       1   17340   17361       1   17340
   17364       1   17331   17355       3   17328   17352       3   17322   17343
       1   17322   17346       1   17319   17337       3   17316   17334       3
   17310   17325       3   17292   17307       3   17649   17655       1   17649
   17658       1   17649   17661       1   17637   17646       1   17637   17652
       1   17634   17640       1   17634   17643       1   17616   17628       1
   17616   17631       1   17607   17625       3   17598   17619       1   17598
   17622       1   17592   17613       3   17586   17610       3   17577   17601
       1   17577   17604       1   17574   17595       3   17571   17589       3
   17562   17580       1   17562   17583       1   17550   17565       1   17550
   17568       1   17532   17553       1   17532   17556       1   17523   17547
       3   17520   17544       3   17514   17535       1   17514   17538       1
   17511   17529       3   17508   17526       3   17502   17517       3   17484
   17499       3   17841   17847       1   17841   17850       1   17841   17853
       1   17829   17838       1   17829   17844       1   17826   17832       1
   17826   17835       1   17808   17820       1   17808   17823       1   17799
   17817       3   17790   17811       1   17790   17814       1   17784   17805
       3   17778   17802       3   17769   17793       1   17769   17796       1
   17766   17787       3   17763   17781       3   17754   17772       1   17754
   17775       1   17742   17757       1   17742   17760       1   17724   17745
       1   17724   17748       1   17715   17739       3   17712   17736       3
   17706   17727       1   17706   17730       1   17703   17721       3   17700
   17718       3   17694   17709       3   17676   17691       3   18033   18039
       1   18033   18042       1   18033   18045       1   18021   18030       1
   18021   18036       1   18018   18024       1   18018   18027       1   18000
   18012       1   18000   18015       1   17991   18009       3   17982   18003
       1   17982   18006       1   17976   17997       3   17970   17994       3
   17961   17985       1   17961   17988       1   17958   17979       3   17955
   17973       3   17946   17964       1   17946   17967       1   17934   17949
       1   17934   17952       1   17916   17937       1   17916   17940       1
   17907   17931       3   17904   17928       3   17898   17919       1   17898
   17922       1   17895   17913       3   17892   17910       3   17886   17901
       3   17868   17883       3   18225   18231       1   18225   18234       1
   18225   18237       1   18213   18222       1   18213   18228       1   18210
   18216       1   18210   18219       1   18192   18204       1   18192   18207
       1   18183   18201       3   18174   18195       1   18174   18198       1
   18168   18189       3   18162   18186       3   18153   18177       1   18153
   18180       1   18150   18171       3   18147   18165       3   18138   18156
       1   18138   18159       1   18126   18141       1   18126   18144       1
   18108   18129       1   18108   18132       1   18099   18123       3   18096
   18120       3   18090   18111       1   18090   18114       1   18087   18105
       3   18084   18102       3   18078   18093       3   18060   18075       3
   18417   18423       1   18417   18426       1   18417   18429       1   18405
   18414       1   18405   18420       1   18402   18408       1   18402   18411
       1   18384   18396       1   18384   18399       1   18375   18393       3
   18366   18387       1   18366   18390       1   18360   18381       3   18354
   18378       3   18345   18369       1   18345   18372       1   18342   18363
       3   18339   18357       3   18330   18348       1   18330   18351       1
   18318   18333       1   18318   18336       1   18300   18321       1   18300
   18324       1   18291   18315       3   18288   18312       3   18282   18303
       1   18282   18306       1   18279   18297       3   18276   18294       3
   18270   18285       3   18252   18267       3   18609   18615       1   18609
   18618       1   18609   18621       1   18597   18606       1   18597   18612
       1   18594   18600       1   18594   18603       1   18576   18588       1
   18576   18591       1   18567   18585       3   18558   18579       1   18558
   18582       1   18552   18573       3   18546   18570       3   18537   18561
       1   18537   18564       1   18534   18555       3   18531   18549       3
   18522   18540       1   18522   18543       1   18510   18525       1   18510
   18528       1   18492   18513       1   18492   18516       1   18483   18507
       3   18480   18504       3   18474   18495       1   18474   18498       1
   18471   18489       3   18468   18486       3   18462   18477       3   18444
   18459       3   18801   18807       1   18801   18810       1   18801   18813
       1   18789   18798       1   18789   18804       1   18786   18792       1
   18786   18795       1   18768   18780       1   18768   18783       1   18759
   18777       3   18750   18771       1   18750   18774       1   18744   18765
       3   18738   18762       3   18729   18753       1   18729   18756       1
   18726   18747       3   18723   18741       3   18714   18732       1   18714
   18735       1   18702   18717       1   18702   18720       1   18684   18705
       1   18684   18708       1   18675   18699       3   18672   18696       3
   18666   18687       1   18666   18690       1   18663   18681       3   18660
   18678       3   18654   18669       3   18636   18651       3   18993   18999
       1   18993   19002       1   18993   19005       1   18981   18990       1
   18981   18996       1   18978   18984       1   18978   18987       1   18960
   18972       1   18960   18975       1   18951   18969       3   18942   18963
       1   18942   18966       1   18936   18957       3   18930   18954       3
   18921   18945       1   18921   18948       1   18918   18939       3   18915
   18933       3   18906   18924       1   18906   18927       1   18894   18909
       1   18894   18912       1   18876   18897       1   18876   18900       1
   18867   18891       3   18864   18888       3   18858   18879       1   18858
   18882       1   18855   18873       3   18852   18870       3   18846   18861
       3   18828   18843       3   19185   19191       1   19185   19194       1
   19185   19197       1   19173   19182       1   19173   19188       1   19170
   19176       1   19170   19179       1   19152   19164       1   19152   19167
       1   19143   19161       3   19134   19155       1   19134   19158       1
   19128   19149       3   19122   19146       3   19113   19137       1   19113
   19140       1   19110   19131       3   19107   19125       3   19098   19116
       1   19098   19119       1   19086   19101       1   19086   19104       1
   19068   19089       1   19068   19092       1   19059   19083       3   19056
   19080       3   19050   19071       1   19050   19074       1   19047   19065
       3   19044   19062       3   19038   19053       3   19020   19035       3
   19377   19383       1   19377   19386       1   19377   19389       1   19365
   19374       1   19365   19380       1   19362   19368       1   19362   19371
       1   19344   19356       1   19344   19359       1   19335   19353       3
   19326   19347       1   19326   19350       1   19320   19341       3   19314
   19338       3   19305   19329       1   19305   19332       1   19302   19323
       3   19299   19317       3   19290   19308       1   19290   19311       1
   19278   19293       1   19278   19296       1   19260   19281       1   19260
   19284       1   19251   19275       3   19248   19272       3   19242   19263
       1   19242   19266       1   19239   19257       3   19236   19254       3
   19230   19245       3   19212   19227       3   19569   19575       1   19569
   19578       1   19569   19581       1   19557   19566       1   19557   19572
       1   19554   19560       1   19554   19563       1   19536   19548       1
   19536   19551       1   19527   19545       3   19518   19539       1   19518
   19542       1   19512   19533       3   19506   19530       3   19497   19521
       1   19497   19524       1   19494   19515       3   19491   19509       3
   19482   19500       1   19482   19503       1   19470   19485       1   19470
   19488       1   19452   19473       1   19452   19476       1   19443   19467
       3   19440   19464       3   19434   19455       1   19434   19458       1
   19431   19449       3   19428   19446       3   19422   19437       3   19404
   19419       3   19761   19767       1   19761   19770       1   19761   19773
       1   19749   19758       1   19749   19764       1   19746   19752       1
   19746   19755       1   19728   19740       1   19728   19743       1   19719
   19737       3   19710   19731       1   19710   19734       1   19704   19725
       3   19698   19722       3   19689   19713       1   19689   19716       1
   19686   19707       3   19683   19701       3   19674   19692       1   19674
   19695       1   19662   19677       1   19662   19680       1   19644   19665
       1   19644   19668       1   19635   19659       3   19632   19656       3
   19626   19647       1   19626   19650       1   19623   19641       3   19620
   19638       3   19614   19629       3   19596   19611       3   19953   19959
       1   19953   19962       1   19953   19965       1   19941   19950       1
   19941   19956       1   19938   19944       1   19938   19947       1   19920
   19932       1   19920   19935       1   19911   19929       3   19902   19923
       1   19902   19926       1   19896   19917       3   19890   19914       3
   19881   19905       1   19881   19908       1   19878   19899       3   19875
   19893       3   19866   19884       1   19866   19887       1   19854   19869
       1   19854   19872       1   19836   19857       1   19836   19860       1
   19827   19851       3   19824   19848       3   19818   19839       1   19818
   19842       1   19815   19833       3   19812   19830       3   19806   19821
       3   19788   19803       3   20145   20151       1   20145   20154       1
   20145   20157       1   20133   20142       1   20133   20148       1   20130
   20136       1   20130   20139       1   20112   20124       1   20112   20127
       1   20103   20121       3   20094   20115       1   20094   20118       1
   20088   20109       3   20082   20106       3   20073   20097       1   20073
   20100       1   20070   20091       3   20067   20085       3   20058   20076
       1   20058   20079       1   20046   20061       1   20046   20064       1
   20028   20049       1   20028   20052       1   20019   20043       3   20016
   20040       3   20010   20031       1   20010   20034       1   20007   20025
       3   20004   20022       3   19998   20013       3   19980   19995       3
   20337   20343       1   20337   20346       1   20337   20349       1   20325
   20334       1   20325   20340       1   20322   20328       1   20322   20331
       1   20304   20316       1   20304   20319       1   20295   20313       3
   20286   20307       1   20286   20310       1   20280   20301       3   20274
   20298       3   20265   20289       1   20265   20292       1   20262   20283
       3   20259   20277       3   20250   20268       1   20250   20271       1
   20238   20253       1   20238   20256       1   20220   20241       1   20220
   20244       1   20211   20235       3   20208   20232       3   20202   20223
       1   20202   20226       1   20199   20217       3   20196   20214       3
   20190   20205       3   20172   20187       3   20529   20535       1   20529
   20538       1   20529   20541       1   20517   20526       1   20517   20532
       1   20514   20520       1   20514   20523       1   20496   20508       1
   20496   20511       1   20487   20505       3   20478   20499       1   20478
   20502       1   20472   20493       3   20466   20490       3   20457   20481
       1   20457   20484       1   20454   20475       3   20451   20469       3
   20442   20460       1   20442   20463       1   20430   20445       1   20430
   20448       1   20412   20433       1   20412   20436       1   20403   20427
       3   20400   20424       3   20394   20415       1   20394   20418       1
   20391   20409       3   20388   20406       3   20382   20397       3   20364
   20379       3   20721   20727       1   20721   20730       1   20721   20733
       1   20709   20718       1   20709   20724       1   20706   20712       1
   20706   20715       1   20688   20700       1   20688   20703       1   20679
   20697       3   20670   20691       1   20670   20694       1   20664   20685
       3   20658   20682       3   20649   20673       1   20649   20676       1
   20646   20667       3   20643   20661       3   20634   20652       1   20634
   20655       1   20622   20637       1   20622   20640       1   20604   20625
       1   20604   20628       1   20595   20619       3   20592   20616       3
   20586   20607       1   20586   20610       1   20583   20601       3   20580
   20598       3   20574   20589       3   20556   20571       3   20913   20919
       1   20913   20922       1   20913   20925       1   20901   20910       1
   20901   20916       1   20898   20904       1   20898   20907       1   20880
   20892       1   20880   20895       1   20871   20889       3   20862   20883
       1   20862   20886       1   20856   20877       3   20850   20874       3
   20841   20865       1   20841   20868       1   20838   20859       3   20835
   20853       3   20826   20844       1   20826   20847       1   20814   20829
       1   20814   20832       1   20796   20817       1   20796   20820       1
   20787   20811       3   20784   20808       3   20778   20799       1   20778
   20802       1   20775   20793       3   20772   20790       3   20766   20781
       3   20748   20763       3   21105   21111       1   21105   21114       1
   21105   21117       1   21093   21102       1   21093   21108       1   21090
   21096       1   21090   21099       1   21072   21084       1   21072   21087
       1   21063   21081       3   21054   21075       1   21054   21078       1
   21048   21069       3   21042   21066       3   21033   21057       1   21033
   21060       1   21030   21051       3   21027   21045       3   21018   21036
       1   21018   21039       1   21006   21021       1   21006   21024       1
   20988   21009       1   20988   21012       1   20979   21003       3   20976
   21000       3   20970   20991       1   20970   20994       1   20967   20985
       3   20964   20982       3   20958   20973       3   20940   20955       3
   21297   21303       1   21297   21306       1   21297   21309       1   21285
   21294       1   21285   21300       1   21282   21288       1   21282   21291
       1   21264   21276       1   21264   21279       1   21255   21273       3
   21246   21267       1   21246   21270       1   21240   21261       3   21234
   21258       3   21225   21249       1   21225   21252       1   21222   21243
       3   21219   21237       3   21210   21228       1   21210   21231       1
   21198   21213       1   21198   21216       1   21180   21201       1   21180
   21204       1   21171   21195       3   21168   21192       3   21162   21183
       1   21162   21186       1   21159   21177       3   21156   21174       3
   21150   21165       3   21132   21147       3   21489   21495       1   21489
   21498       1   21489   21501       1   21477   21486       1   21477   21492
       1   21474   21480       1   21474   21483       1   21456   21468       1
   21456   21471       1   21447   21465       3   21438   21459       1   21438
   21462       1   21432   21453       3   21426   21450       3   21417   21441
       1   21417   21444       1   21414   21435       3   21411   21429       3
   21402   21420       1   21402   21423       1   21390   21405       1   21390
   21408       1   21372   21393       1   21372   21396       1   21363   21387
       3   21360   21384       3   21354   21375       1   21354   21378       1
   21351   21369       3   21348   21366       3   21342   21357       3   21324
   21339       3   21681   21687       1   21681   21690       1   21681   21693
       1   21669   21678       1   21669   21684       1   21666   21672       1
   21666   21675       1   21648   21660       1   21648   21663       1   21639
   21657       3   21630   21651       1   21630   21654       1   21624   21645
       3   21618   21642       3   21609   21633       1   21609   21636       1
   21606   21627       3   21603   21621       3   21594   21612       1   21594
   21615       1   21582   21597       1   21582   21600       1   21564   21585
       1   21564   21588       1   21555   21579       3   21552   21576       3
   21546   21567       1   21546   21570       1   21543   21561       3   21540
   21558       3   21534   21549       3   21516   21531       3   21873   21879
       1   21873   21882       1   21873   21885       1   21861   21870       1
   21861   21876       1   21858   21864       1   21858   21867       1   21840
   21852       1   21840   21855       1   21831   21849       3   21822   21843
       1   21822   21846       1   21816   21837       3   21810   21834       3
   21801   21825       1   21801   21828       1   21798   21819       3   21795
   21813       3   21786   21804       1   21786   21807       1   21774   21789
       1   21774   21792       1   21756   21777       1   21756   21780       1
   21747   21771       3   21744   21768       3   21738   21759       1   21738
   21762       1   21735   21753       3   21732   21750       3   21726   21741
       3   21708   21723       3   22065   22071       1   22065   22074       1
   22065   22077       1   22053   22062       1   22053   22068       1   22050
   22056       1   22050   22059       1   22032   22044       1   22032   22047
       1   22023   22041       3   22014   22035       1   22014   22038       1
   22008   22029       3   22002   22026       3   21993   22017       1   21993
   22020       1   21990   22011       3   21987   22005       3   21978   21996
       1   21978   21999       1   21966   21981       1   21966   21984       1
   21948   21969       1   21948   21972       1   21939   21963       3   21936
   21960       3   21930   21951       1   21930   21954       1   21927   21945
       3   21924   21942       3   21918   21933       3   21900   21915       3
   22257   22263       1   22257   22266       1   22257   22269       1   22245
   22254       1   22245   22260       1   22242   22248       1   22242   22251
       1   22224   22236       1   22224   22239       1   22215   22233       3
   22206   22227       1   22206   22230       1   22200   22221       3   22194
   22218       3   22185   22209       1   22185   22212       1   22182   22203
       3   22179   22197       3   22170   22188       1   22170   22191       1
   22158   22173       1   22158   22176       1   22140   22161       1   22140
   22164       1   22131   22155       3   22128   22152       3   22122   22143
       1   22122   22146       1   22119   22137       3   22116   22134       3
   22110   22125       3   22092   22107       3   22449   22455       1   22449
   22458       1   22449   22461       1   22437   22446       1   22437   22452
       1   22434   22440       1   22434   22443       1   22416   22428       1
   22416   22431       1   22407   22425       3   22398   22419       1   22398
   22422       1   22392   22413       3   22386   22410       3   22377   22401
       1   22377   22404       1   22374   22395       3   22371   22389       3
   22362   22380       1   22362   22383       1   22350   22365       1   22350
   22368       1   22332   22353       1   22332   22356       1   22323   22347
       3   22320   22344       3   22314   22335       1   22314   22338       1
   22311   22329       3   22308   22326       3   22302   22317       3   22284
   22299       3   22641   22647       1   22641   22650       1   22641   22653
       1   22629   22638       1   22629   22644       1   22626   22632       1
   22626   22635       1   22608   22620       1   22608   22623       1   22599
   22617       3   22590   22611       1   22590   22614       1   22584   22605
       3   22578   22602       3   22569   22593       1   22569   22596       1
   22566   22587       3   22563   22581       3   22554   22572       1   22554
   22575       1   22542   22557       1   22542   22560       1   22524   22545
       1   22524   22548       1   22515   22539       3   22512   22536       3
   22506   22527       1   22506   22530       1   22503   22521       3   22500
   22518       3   22494   22509       3   22476   22491       3   22833   22839
       1   22833   22842       1   22833   22845       1   22821   22830       1
   22821   22836       1   22818   22824       1   22818   22827       1   22800
   22812       1   22800   22815       1   22791   22809       3   22782   22803
       1   22782   22806       1   22776   22797       3   22770   22794       3
   22761   22785       1   22761   22788       1   22758   22779       3   22755
   22773       3   22746   22764       1   22746   22767       1   22734   22749
       1   22734   22752       1   22716   22737       1   22716   22740       1
   22707   22731       3   22704   22728       3   22698   22719       1   22698
   22722       1   22695   22713       3   22692   22710       3   22686   22701
       3   22668   22683       3   23025   23031       1   23025   23034       1
   23025   23037       1   23013   23022       1   23013   23028       1   23010
   23016       1   23010   23019       1   22992   23004       1   22992   23007
       1   22983   23001       3   22974   22995       1   22974   22998       1
   22968   22989       3   22962   22986       3   22953   22977       1   22953
   22980       1   22950   22971       3   22947   22965       3   22938   22956
       1   22938   22959       1   22926   22941       1   22926   22944       1
   22908   22929       1   22908   22932       1   22899   22923       3   22896
   22920       3   22890   22911       1   22890   22914       1   22887   22905
       3   22884   22902       3   22878   22893       3   22860   22875       3
   23217   23223       1   23217   23226       1   23217   23229       1   23205
   23214       1   23205   23220       1   23202   23208       1   23202   23211
       1   23184   23196       1   23184   23199       1   23175   23193       3
   23166   23187       1   23166   23190       1   23160   23181       3   23154
   23178       3   23145   23169       1   23145   23172       1   23142   23163
       3   23139   23157       3   23130   23148       1   23130   23151       1
   23118   23133       1   23118   23136       1   23100   23121       1   23100
   23124       1   23091   23115       3   23088   23112       3   23082   23103
       1   23082   23106       1   23079   23097       3   23076   23094       3
   23070   23085       3   23052   23067       3   23409   23415       1   23409
   23418       1   23409   23421       1   23397   23406       1   23397   23412
       1   23394   23400       1   23394   23403       1   23376   23388       1
   23376   23391       1   23367   23385       3   23358   23379       1   23358
   23382       1   23352   23373       3   23346   23370       3   23337   23361
       1   23337   23364       1   23334   23355       3   23331   23349       3
   23322   23340       1   23322   23343       1   23310   23325       1   23310
   23328       1   23292   23313       1   23292   23316       1   23283   23307
       3   23280   23304       3   23274   23295       1   23274   23298       1
   23271   23289       3   23268   23286       3   23262   23277       3   23244
   23259       3   23601   23607       1   23601   23610       1   23601   23613
       1   23589   23598       1   23589   23604       1   23586   23592       1
   23586   23595       1   23568   23580       1   23568   23583       1   23559
   23577       3   23550   23571       1   23550   23574       1   23544   23565
       3   23538   23562       3   23529   23553       1   23529   23556       1
   23526   23547       3   23523   23541       3   23514   23532       1   23514
   23535       1   23502   23517       1   23502   23520       1   23484   23505
       1   23484   23508       1   23475   23499       3   23472   23496       3
   23466   23487       1   23466   23490       1   23463   23481       3   23460
   23478       3   23454   23469       3   23436   23451       3   23793   23799
       1   23793   23802       1   23793   23805       1   23781   23790       1
   23781   23796       1   23778   23784       1   23778   23787       1   23760
   23772       1   23760   23775       1   23751   23769       3   23742   23763
       1   23742   23766       1   23736   23757       3   23730   23754       3
   23721   23745       1   23721   23748       1   23718   23739       3   23715
   23733       3   23706   23724       1   23706   23727       1   23694   23709
       1   23694   23712       1   23676   23697       1   23676   23700       1
   23667   23691       3   23664   23688       3   23658   23679       1   23658
   23682       1   23655   23673       3   23652   23670       3   23646   23661
       3   23628   23643       3   23985   23991       1   23985   23994       1
   23985   23997       1   23973   23982       1   23973   23988       1   23970
   23976       1   23970   23979       1   23952   23964       1   23952   23967
       1   23943   23961       3   23934   23955       1   23934   23958       1
   23928   23949       3   23922   23946       3   23913   23937       1   23913
   23940       1   23910   23931       3   23907   23925       3   23898   23916
       1   23898   23919       1   23886   23901       1   23886   23904       1
   23868   23889       1   23868   23892       1   23859   23883       3   23856
   23880       3   23850   23871       1   23850   23874       1   23847   23865
       3   23844   23862       3   23838   23853       3   23820   23835       3
   24177   24183       1   24177   24186       1   24177   24189       1   24165
   24174       1   24165   24180       1   24162   24168       1   24162   24171
       1   24144   24156       1   24144   24159       1   24135   24153       3
   24126   24147       1   24126   24150       1   24120   24141       3   24114
   24138       3   24105   24129       1   24105   24132       1   24102   24123
       3   24099   24117       3   24090   24108       1   24090   24111       1
   24078   24093       1   24078   24096       1   24060   24081       1   24060
   24084       1   24051   24075       3   24048   24072       3   24042   24063
       1   24042   24066       1   24039   24057       3   24036   24054       3
   24030   24045       3   24012   24027       3   24369   24375       1   24369
   24378       1   24369   24381       1   24357   24366       1   24357   24372
       1   24354   24360       1   24354   24363       1   24336   24348       1
   24336   24351       1   24327   24345       3   24318   24339       1   24318
   24342       1   24312   24333       3   24306   24330       3   24297   24321
       1   24297   24324       1   24294   24315       3   24291   24309       3
   24282   24300       1   24282   24303       1   24270   24285       1   24270
   24288       1   24252   24273       1   24252   24276       1   24243   24267
       3   24240   24264       3   24234   24255       1   24234   24258       1
   24231   24249       3   24228   24246       3   24222   24237       3   24204
   24219       3   24561   24567       1   24561   24570       1   24561   24573
       1   24549   24558       1   24549   24564       1   24546   24552       1
   24546   24555       1   24528   24540       1   24528   24543       1   24519
   24537       3   24510   24531       1   24510   24534       1   24504   24525
       3   24498   24522       3   24489   24513       1   24489   24516       1
   24486   24507       3   24483   24501       3   24474   24492       1   24474
   24495       1   24462   24477       1   24462   24480       1   24444   24465
       1   24444   24468       1   24435   24459       3   24432   24456       3
   24426   24447       1   24426   24450       1   24423   24441       3   24420
   24438       3   24414   24429       3   24396   24411       3   24753   24759
       1   24753   24762       1   24753   24765       1   24741   24750       1
   24741   24756       1   24738   24744       1   24738   24747       1   24720
   24732       1   24720   24735       1   24711   24729       3   24702   24723
       1   24702   24726       1   24696   24717       3   24690   24714       3
   24681   24705       1   24681   24708       1   24678   24699       3   24675
   24693       3   24666   24684       1   24666   24687       1   24654   24669
       1   24654   24672       1   24636   24657       1   24636   24660       1
   24627   24651       3   24624   24648       3   24618   24639       1   24618
   24642       1   24615   24633       3   24612   24630       3   24606   24621
       3   24588   24603       3   24945   24951       1   24945   24954       1
   24945   24957       1   24933   24942       1   24933   24948       1   24930
   24936       1   24930   24939       1   24912   24924       1   24912   24927
       1   24903   24921       3   24894   24915       1   24894   24918       1
   24888   24909       3   24882   24906       3   24873   24897       1   24873
   24900       1   24870   24891       3   24867   24885       3   24858   24876
       1   24858   24879       1   24846   24861       1   24846   24864       1
   24828   24849       1   24828   24852       1   24819   24843       3   24816
   24840       3   24810   24831       1   24810   24834       1   24807   24825
       3   24804   24822       3   24798   24813       3   24780   24795       3
   25137   25143       1   25137   25146       1   25137   25149       1   25125
   25134       1   25125   25140       1   25122   25128       1   25122   25131
       1   25104   25116       1   25104   25119       1   25095   25113       3
   25086   25107       1   25086   25110       1   25080   25101       3   25074
   25098       3   25065   25089       1   25065   25092       1   25062   25083
       3   25059   25077       3   25050   25068       1   25050   25071       1
   25038   25053       1   25038   25056       1   25020   25041       1   25020
   25044       1   25011   25035       3   25008   25032       3   25002   25023
       1   25002   25026       1   24999   25017       3   24996   25014       3
   24990   25005       3   24972   24987       3   25329   25335       1   25329
   25338       1   25329   25341       1   25317   25326       1   25317   25332
       1   25314   25320       1   25314   25323       1   25296   25308       1
   25296   25311       1   25287   25305       3   25278   25299       1   25278
   25302       1   25272   25293       3   25266   25290       3   25257   25281
       1   25257   25284       1   25254   25275       3   25251   25269       3
   25242   25260       1   25242   25263       1   25230   25245       1   25230
   25248       1   25212   25233       1   25212   25236       1   25203   25227
       3   25200   25224       3   25194   25215       1   25194   25218       1
   25191   25209       3   25188   25206       3   25182   25197       3   25164
   25179       3   25521   25527       1   25521   25530       1   25521   25533
       1   25509   25518       1   25509   25524       1   25506   25512       1
   25506   25515       1   25488   25500       1   25488   25503       1   25479
   25497       3   25470   25491       1   25470   25494       1   25464   25485
       3   25458   25482       3   25449   25473       1   25449   25476       1
   25446   25467       3   25443   25461       3   25434   25452       1   25434
   25455       1   25422   25437       1   25422   25440       1   25404   25425
       1   25404   25428       1   25395   25419       3   25392   25416       3
   25386   25407       1   25386   25410       1   25383   25401       3   25380
   25398       3   25374   25389       3   25356   25371       3   25713   25719
       1   25713   25722       1   25713   25725       1   25701   25710       1
   25701   25716       1   25698   25704       1   25698   25707       1   25680
   25692       1   25680   25695       1   25671   25689       3   25662   25683
       1   25662   25686       1   25656   25677       3   25650   25674       3
   25641   25665       1   25641   25668       1   25638   25659       3   25635
   25653       3   25626   25644       1   25626   25647       1   25614   25629
       1   25614   25632       1   25596   25617       1   25596   25620       1
   25587   25611       3   25584   25608       3   25578   25599       1   25578
   25602       1   25575   25593       3   25572   25590       3   25566   25581
       3   25548   25563       3   25905   25911       1   25905   25914       1
   25905   25917       1   25893   25902       1   25893   25908       1   25890
   25896       1   25890   25899       1   25872   25884       1   25872   25887
       1   25863   25881       3   25854   25875       1   25854   25878       1
   25848   25869       3   25842   25866       3   25833   25857       1   25833
   25860       1   25830   25851       3   25827   25845       3   25818   25836
       1   25818   25839       1   25806   25821       1   25806   25824       1
   25788   25809       1   25788   25812       1   25779   25803       3   25776
   25800       3   25770   25791       1   25770   25794       1   25767   25785
       3   25764   25782       3   25758   25773       3   25740   25755       3
   26097   26103       1   26097   26106       1   26097   26109       1   26085
   26094       1   26085   26100       1   26082   26088       1   26082   26091
       1   26064   26076       1   26064   26079       1   26055   26073       3
   26046   26067       1   26046   26070       1   26040   26061       3   26034
   26058       3   26025   26049       1   26025   26052       1   26022   26043
       3   26019   26037       3   26010   26028       1   26010   26031       1
   25998   26013       1   25998   26016       1   25980   26001       1   25980
   26004       1   25971   25995       3   25968   25992       3   25962   25983
       1   25962   25986       1   25959   25977       3   25956   25974       3
   25950   25965       3   25932   25947       3   26289   26295       1   26289
   26298       1   26289   26301       1   26277   26286       1   26277   26292
       1   26274   26280       1   26274   26283       1   26256   26268       1
   26256   26271       1   26247   26265       3   26238   26259       1   26238
   26262       1   26232   26253       3   26226   26250       3   26217   26241
       1   26217   26244       1   26214   26235       3   26211   26229       3
   26202   26220       1   26202   26223       1   26190   26205       1   26190
   26208       1   26172   26193       1   26172   26196       1   26163   26187
       3   26160   26184       3   26154   26175       1   26154   26178       1
   26151   26169       3   26148   26166       3   26142   26157       3   26124
   26139       3   26481   26487       1   26481   26490       1   26481   26493
       1   26469   26478       1   26469   26484       1   26466   26472       1
   26466   26475       1   26448   26460       1   26448   26463       1   26439
   26457       3   26430   26451       1   26430   26454       1   26424   26445
       3   26418   26442       3   26409   26433       1   26409   26436       1
   26406   26427       3   26403   26421       3   26394   26412       1   26394
   26415       1   26382   26397       1   26382   26400       1   26364   26385
       1   26364   26388       1   26355   26379       3   26352   26376       3
   26346   26367       1   26346   26370       1   26343   26361       3   26340
   26358       3   26334   26349       3   26316   26331       3   26673   26679
       1   26673   26682       1   26673   26685       1   26661   26670       1
   26661   26676       1   26658   26664       1   26658   26667       1   26640
   26652       1   26640   26655       1   26631   26649       3   26622   26643
       1   26622   26646       1   26616   26637       3   26610   26634       3
   26601   26625       1   26601   26628       1   26598   26619       3   26595
   26613       3   26586   26604       1   26586   26607       1   26574   26589
       1   26574   26592       1   26556   26577       1   26556   26580       1
   26547   26571       3   26544   26568       3   26538   26559       1   26538
   26562       1   26535   26553       3   26532   26550       3   26526   26541
       3   26508   26523       3   26865   26871       1   26865   26874       1
   26865   26877       1   26853   26862       1   26853   26868       1   26850
   26856       1   26850   26859       1   26832   26844       1   26832   26847
       1   26823   26841       3   26814   26835       1   26814   26838       1
   26808   26829       3   26802   26826       3   26793   26817       1   26793
   26820       1   26790   26811       3   26787   26805       3   26778   26796
       1   26778   26799       1   26766   26781       1   26766   26784       1
   26748   26769       1   26748   26772       1   26739   26763       3   26736
   26760       3   26730   26751       1   26730   26754       1   26727   26745
       3   26724   26742       3   26718   26733       3   26700   26715       3
   27057   27063       1   27057   27066       1   27057   27069       1   27045
   27054       1   27045   27060       1   27042   27048       1   27042   27051
       1   27024   27036       1   27024   27039       1   27015   27033       3
   27006   27027       1   27006   27030       1   27000   27021       3   26994
   27018       3   26985   27009       1   26985   27012       1   26982   27003
       3   26979   26997       3   26970   26988       1   26970   26991       1
   26958   26973       1   26958   26976       1   26940   26961       1   26940
   26964       1   26931   26955       3   26928   26952       3   26922   26943
       1   26922   26946       1   26919   26937       3   26916   26934       3
   26910   26925       3   26892   26907       3   27249   27255       1   27249
   27258       1   27249   27261       1   27237   27246       1   27237   27252
       1   27234   27240       1   27234   27243       1   27216   27228       1
   27216   27231       1   27207   27225       3   27198   27219       1   27198
   27222       1   27192   27213       3   27186   27210       3   27177   27201
       1   27177   27204       1   27174   27195       3   27171   27189       3
   27162   27180       1   27162   27183       1   27150   27165       1   27150
   27168       1   27132   27153       1   27132   27156       1   27123   27147
       3   27120   27144       3   27114   27135       1   27114   27138       1
   27111   27129       3   27108   27126       3   27102   27117       3   27084
   27099       3   27441   27447       1   27441   27450       1   27441   27453
       1   27429   27438       1   27429   27444       1   27426   27432       1
   27426   27435       1   27408   27420       1   27408   27423       1   27399
   27417       3   27390   27411       1   27390   27414       1   27384   27405
       3   27378   27402       3   27369   27393       1   27369   27396       1
   27366   27387       3   27363   27381       3   27354   27372       1   27354
   27375       1   27342   27357       1   27342   27360       1   27324   27345
       1   27324   27348       1   27315   27339       3   27312   27336       3
   27306   27327       1   27306   27330       1   27303   27321       3   27300
   27318       3   27294   27309       3   27276   27291       3   27633   27639
       1   27633   27642       1   27633   27645       1   27621   27630       1
   27621   27636       1   27618   27624       1   27618   27627       1   27600
   27612       1   27600   27615       1   27591   27609       3   27582   27603
       1   27582   27606       1   27576   27597       3   27570   27594       3
   27561   27585       1   27561   27588       1   27558   27579       3   27555
   27573       3   27546   27564       1   27546   27567       1   27534   27549
       1   27534   27552       1   27516   27537       1   27516   27540       1
   27507   27531       3   27504   27528       3   27498   27519       1   27498
   27522       1   27495   27513       3   27492   27510       3   27486   27501
       3   27468   27483       3   27825   27831       1   27825   27834       1
   27825   27837       1   27813   27822       1   27813   27828       1   27810
   27816       1   27810   27819       1   27792   27804       1   27792   27807
       1   27783   27801       3   27774   27795       1   27774   27798       1
   27768   27789       3   27762   27786       3   27753   27777       1   27753
   27780       1   27750   27771       3   27747   27765       3   27738   27756
       1   27738   27759       1   27726   27741       1   27726   27744       1
   27708   27729       1   27708   27732       1   27699   27723       3   27696
   27720       3   27690   27711       1   27690   27714       1   27687   27705
       3   27684   27702       3   27678   27693       3   27660   27675       3
   28017   28023       1   28017   28026       1   28017   28029       1   28005
   28014       1   28005   28020       1   28002   28008       1   28002   28011
       1   27984   27996       1   27984   27999       1   27975   27993       3
   27966   27987       1   27966   27990       1   27960   27981       3   27954
   27978       3   27945   27969       1   27945   27972       1   27942   27963
       3   27939   27957       3   27930   27948       1   27930   27951       1
   27918   27933       1   27918   27936       1   27900   27921       1   27900
   27924       1   27891   27915       3   27888   27912       3   27882   27903
       1   27882   27906       1   27879   27897       3   27876   27894       3
   27870   27885       3   27852   27867       3   28209   28215       1   28209
   28218       1   28209   28221       1   28197   28206       1   28197   28212
       1   28194   28200       1   28194   28203       1   28176   28188       1
   28176   28191       1   28167   28185       3   28158   28179       1   28158
   28182       1   28152   28173       3   28146   28170       3   28137   28161
       1   28137   28164       1   28134   28155       3   28131   28149       3
   28122   28140       1   28122   28143       1   28110   28125       1   28110
   28128       1   28092   28113       1   28092   28116       1   28083   28107
       3   28080   28104       3   28074   28095       1   28074   28098       1
   28071   28089       3   28068   28086       3   28062   28077       3   28044
   28059       3   28401   28407       1   28401   28410       1   28401   28413
       1   28389   28398       1   28389   28404       1   28386   28392       1
   28386   28395       1   28368   28380       1   28368   28383       1   28359
   28377       3   28350   28371       1   28350   28374       1   28344   28365
       3   28338   28362       3   28329   28353       1   28329   28356       1
   28326   28347       3   28323   28341       3   28314   28332       1   28314
   28335       1   28302   28317       1   28302   28320       1   28284   28305
       1   28284   28308       1   28275   28299       3   28272   28296       3
   28266   28287       1   28266   28290       1   28263   28281       3   28260
   28278       3   28254   28269       3   28236   28251       3   28593   28599
       1   28593   28602       1   28593   28605       1   28581   28590       1
   28581   28596       1   28578   28584       1   28578   28587       1   28560
   28572       1   28560   28575       1   28551   28569       3   28542   28563
       1   28542   28566       1   28536   28557       3   28530   28554       3
   28521   28545       1   28521   28548       1   28518   28539       3   28515
   28533       3   28506   28524       1   28506   28527       1   28494   28509
       1   28494   28512       1   28476   28497       1   28476   28500       1
   28467   28491       3   28464   28488       3   28458   28479       1   28458
   28482       1   28455   28473       3   28452   28470       3   28446   28461
       3   28428   28443       3   28785   28791       1   28785   28794       1
   28785   28797       1   28773   28782       1   28773   28788       1   28770
   28776       1   28770   28779       1   28752   28764       1   28752   28767
       1   28743   28761       3   28734   28755       1   28734   28758       1
   28728   28749       3   28722   28746       3   28713   28737       1   28713
   28740       1   28710   28731       3   28707   28725       3   28698   28716
       1   28698   28719       1   28686   28701       1   28686   28704       1
   28668   28689       1   28668   28692       1   28659   28683       3   28656
   28680       3   28650   28671       1   28650   28674       1   28647   28665
       3   28644   28662       3   28638   28653       3   28620   28635       3
   28977   28983       1   28977   28986       1   28977   28989       1   28965
   28974       1   28965   28980       1   28962   28968       1   28962   28971
       1   28944   28956       1   28944   28959       1   28935   28953       3
   28926   28947       1   28926   28950       1   28920   28941       3   28914
   28938       3   28905   28929       1   28905   28932       1   28902   28923
       3   28899   28917       3   28890   28908       1   28890   28911       1
   28878   28893       1   28878   28896       1   28860   28881       1   28860
   28884       1   28851   28875       3   28848   28872       3   28842   28863
       1   28842   28866       1   28839   28857       3   28836   28854       3
   28830   28845       3   28812   28827       3   29169   29175       1   29169
   29178       1   29169   29181       1   29157   29166       1   29157   29172
       1   29154   29160       1   29154   29163       1   29136   29148       1
   29136   29151       1   29127   29145       3   29118   29139       1   29118
   29142       1   29112   29133       3   29106   29130       3   29097   29121
       1   29097   29124       1   29094   29115       3   29091   29109       3
   29082   29100       1   29082   29103       1   29070   29085       1   29070
   29088       1   29052   29073       1   29052   29076       1   29043   29067
       3   29040   29064       3   29034   29055       1   29034   29058       1
   29031   29049       3   29028   29046       3   29022   29037       3   29004
   29019       3   29361   29367       1   29361   29370       1   29361   29373
       1   29349   29358       1   29349   29364       1   29346   29352       1
   29346   29355       1   29328   29340       1   29328   29343       1   29319
   29337       3   29310   29331       1   29310   29334       1   29304   29325
       3   29298   29322       3   29289   29313       1   29289   29316       1
   29286   29307       3   29283   29301       3   29274   29292       1   29274
   29295       1   29262   29277       1   29262   29280       1   29244   29265
       1   29244   29268       1   29235   29259       3   29232   29256       3
   29226   29247       1   29226   29250       1   29223   29241       3   29220
   29238       3   29214   29229       3   29196   29211       3   29553   29559
       1   29553   29562       1   29553   29565       1   29541   29550       1
   29541   29556       1   29538   29544       1   29538   29547       1   29520
   29532       1   29520   29535       1   29511   29529       3   29502   29523
       1   29502   29526       1   29496   29517       3   29490   29514       3
   29481   29505       1   29481   29508       1   29478   29499       3   29475
   29493       3   29466   29484       1   29466   29487       1   29454   29469
       1   29454   29472       1   29436   29457       1   29436   29460       1
   29427   29451       3   29424   29448       3   29418   29439       1   29418
   29442       1   29415   29433       3   29412   29430       3   29406   29421
       3   29388   29403       3   29745   29751       1   29745   29754       1
   29745   29757       1   29733   29742       1   29733   29748       1   29730
   29736       1   29730   29739       1   29712   29724       1   29712   29727
       1   29703   29721       3   29694   29715       1   29694   29718       1
   29688   29709       3   29682   29706       3   29673   29697       1   29673
   29700       1   29670   29691       3   29667   29685       3   29658   29676
       1   29658   29679       1   29646   29661       1   29646   29664       1
   29628   29649       1   29628   29652       1   29619   29643       3   29616
   29640       3   29610   29631       1   29610   29634       1   29607   29625
       3   29604   29622       3   29598   29613       3   29580   29595       3
   29937   29943       1   29937   29946       1   29937   29949       1   29925
   29934       1   29925   29940       1   29922   29928       1   29922   29931
       1   29904   29916       1   29904   29919       1   29895   29913       3
   29886   29907       1   29886   29910       1   29880   29901       3   29874
   29898       3   29865   29889       1   29865   29892       1   29862   29883
       3   29859   29877       3   29850   29868       1   29850   29871       1
   29838   29853       1   29838   29856       1   29820   29841       1   29820
   29844       1   29811   29835       3   29808   29832       3   29802   29823
       1   29802   29826       1   29799   29817       3   29796   29814       3
   29790   29805       3   29772   29787       3   30129   30135       1   30129
   30138       1   30129   30141       1   30117   30126       1   30117   30132
       1   30114   30120       1   30114   30123       1   30096   30108       1
   30096   30111       1   30087   30105       3   30078   30099       1   30078
   30102       1   30072   30093       3   30066   30090       3   30057   30081
       1   30057   30084       1   30054   30075       3   30051   30069       3
   30042   30060       1   30042   30063       1   30030   30045       1   30030
   30048       1   30012   30033       1   30012   30036       1   30003   30027
       3   30000   30024       3   29994   30015       1   29994   30018       1
   29991   30009       3   29988   30006       3   29982   29997       3   29964
   29979       3   30321   30327       1   30321   30330       1   30321   30333
       1   30309   30318       1   30309   30324       1   30306   30312       1
   30306   30315       1   30288   30300       1   30288   30303       1   30279
   30297       3   30270   30291       1   30270   30294       1   30264   30285
       3   30258   30282       3   30249   30273       1   30249   30276       1
   30246   30267       3   30243   30261       3   30234   30252       1   30234
   30255       1   30222   30237       1   30222   30240       1   30204   30225
       1   30204   30228       1   30195   30219       3   30192   30216       3
   30186   30207       1   30186   30210       1   30183   30201       3   30180
   30198       3   30174   30189       3   30156   30171       3   30513   30519
       1   30513   30522       1   30513   30525       1   30501   30510       1
   30501   30516       1   30498   30504       1   30498   30507       1   30480
   30492       1   30480   30495       1   30471   30489       3   30462   30483
       1   30462   30486       1   30456   30477       3   30450   30474       3
   30441   30465       1   30441   30468       1   30438   30459       3   30435
   30453       3   30426   30444       1   30426   30447       1   30414   30429
       1   30414   30432       1   30396   30417       1   30396   30420       1
   30387   30411       3   30384   30408       3   30378   30399       1   30378
   30402       1   30375   30393       3   30372   30390       3   30366   30381
       3   30348   30363       3   30705   30711       1   30705   30714       1
   30705   30717       1   30693   30702       1   30693   30708       1   30690
   30696       1   30690   30699       1   30672   30684       1   30672   30687
       1   30663   30681       3   30654   30675       1   30654   30678       1
   30648   30669       3   30642   30666       3   30633   30657       1   30633
   30660       1   30630   30651       3   30627   30645       3   30618   30636
       1   30618   30639       1   30606   30621       1   30606   30624       1
   30588   30609       1   30588   30612       1   30579   30603       3   30576
   30600       3   30570   30591       1   30570   30594       1   30567   30585
       3   30564   30582       3   30558   30573       3   30540   30555       3
   30897   30903       1   30897   30906       1   30897   30909       1   30885
   30894       1   30885   30900       1   30882   30888       1   30882   30891
       1   30864   30876       1   30864   30879       1   30855   30873       3
   30846   30867       1   30846   30870       1   30840   30861       3   30834
   30858       3   30825   30849       1   30825   30852       1   30822   30843
       3   30819   30837       3   30810   30828       1   30810   30831       1
   30798   30813       1   30798   30816       1   30780   30801       1   30780
   30804       1   30771   30795       3   30768   30792       3   30762   30783
       1   30762   30786       1   30759   30777       3   30756   30774       3
   30750   30765       3   30732   30747       3   31089   31095       1   31089
   31098       1   31089   31101       1   31077   31086       1   31077   31092
       1   31074   31080       1   31074   31083       1   31056   31068       1
   31056   31071       1   31047   31065       3   31038   31059       1   31038
   31062       1   31032   31053       3   31026   31050       3   31017   31041
       1   31017   31044       1   31014   31035       3   31011   31029       3
   31002   31020       1   31002   31023       1   30990   31005       1   30990
   31008       1   30972   30993       1   30972   30996       1   30963   30987
       3   30960   30984       3   30954   30975       1   30954   30978       1
   30951   30969       3   30948   30966       3   30942   30957       3   30924
   30939       3   31281   31287       1   31281   31290       1   31281   31293
       1   31269   31278       1   31269   31284       1   31266   31272       1
   31266   31275       1   31248   31260       1   31248   31263       1   31239
   31257       3   31230   31251       1   31230   31254       1   31224   31245
       3   31218   31242       3   31209   31233       1   31209   31236       1
   31206   31227       3   31203   31221       3   31194   31212       1   31194
   31215       1   31182   31197       1   31182   31200       1   31164   31185
       1   31164   31188       1   31155   31179       3   31152   31176       3
   31146   31167       1   31146   31170       1   31143   31161       3   31140
   31158       3   31134   31149       3   31116   31131       3   31473   31479
       1   31473   31482       1   31473   31485       1   31461   31470       1
   31461   31476       1   31458   31464       1   31458   31467       1   31440
   31452       1   31440   31455       1   31431   31449       3   31422   31443
       1   31422   31446       1   31416   31437       3   31410   31434       3
   31401   31425       1   31401   31428       1   31398   31419       3   31395
   31413       3   31386   31404       1   31386   31407       1   31374   31389
       1   31374   31392       1   31356   31377       1   31356   31380       1
   31347   31371       3   31344   31368       3   31338   31359       1   31338
   31362       1   31335   31353       3   31332   31350       3   31326   31341
       3   31308   31323       3   31665   31671       1   31665   31674       1
   31665   31677       1   31653   31662       1   31653   31668       1   31650
   31656       1   31650   31659       1   31632   31644       1   31632   31647
       1   31623   31641       3   31614   31635       1   31614   31638       1
   31608   31629       3   31602   31626       3   31593   31617       1   31593
   31620       1   31590   31611       3   31587   31605       3   31578   31596
       1   31578   31599       1   31566   31581       1   31566   31584       1
   31548   31569       1   31548   31572       1   31539   31563       3   31536
   31560       3   31530   31551       1   31530   31554       1   31527   31545
       3   31524   31542       3   31518   31533       3   31500   31515       3
   31857   31863       1   31857   31866       1   31857   31869       1   31845
   31854       1   31845   31860       1   31842   31848       1   31842   31851
       1   31824   31836       1   31824   31839       1   31815   31833       3
   31806   31827       1   31806   31830       1   31800   31821       3   31794
   31818       3   31785   31809       1   31785   31812       1   31782   31803
       3   31779   31797       3   31770   31788       1   31770   31791       1
   31758   31773       1   31758   31776       1   31740   31761       1   31740
   31764       1   31731   31755       3   31728   31752       3   31722   31743
       1   31722   31746       1   31719   31737       3   31716   31734       3
   31710   31725       3   31692   31707       3   32049   32055       1   32049
   32058       1   32049   32061       1   32037   32046       1   32037   32052
       1   32034   32040       1   32034   32043       1   32016   32028       1
   32016   32031       1   32007   32025       3   31998   32019       1   31998
   32022       1   31992   32013       3   31986   32010       3   31977   32001
       1   31977   32004       1   31974   31995       3   31971   31989       3
   31962   31980       1   31962   31983       1   31950   31965       1   31950
   31968       1   31932   31953       1   31932   31956       1   31923   31947
       3   31920   31944       3   31914   31935       1   31914   31938       1
   31911   31929       3   31908   31926       3   31902   31917       3   31884
   31899       3   32241   32247       1   32241   32250       1   32241   32253
       1   32229   32238       1   32229   32244       1   32226   32232       1
   32226   32235       1   32208   32220       1   32208   32223       1   32199
   32217       3   32190   32211       1   32190   32214       1   32184   32205
       3   32178   32202       3   32169   32193       1   32169   32196       1
   32166   32187       3   32163   32181       3   32154   32172       1   32154
   32175       1   32142   32157       1   32142   32160       1   32124   32145
       1   32124   32148       1   32115   32139       3   32112   32136       3
   32106   32127       1   32106   32130       1   32103   32121       3   32100
   32118       3   32094   32109       3   32076   32091       3   32433   32439
       1   32433   32442       1   32433   32445       1   32421   32430       1
   32421   32436       1   32418   32424       1   32418   32427       1   32400
   32412       1   32400   32415       1   32391   32409       3   32382   32403
       1   32382   32406       1   32376   32397       3   32370   32394       3
   32361   32385       1   32361   32388       1   32358   32379       3   32355
   32373       3   32346   32364       1   32346   32367       1   32334   32349
       1   32334   32352       1   32316   32337       1   32316   32340       1
   32307   32331       3   32304   32328       3   32298   32319       1   32298
   32322       1   32295   32313       3   32292   32310       3   32286   32301
       3   32268   32283       3   32625   32631       1   32625   32634       1
   32625   32637       1   32613   32622       1   32613   32628       1   32610
   32616       1   32610   32619       1   32592   32604       1   32592   32607
       1   32583   32601       3   32574   32595       1   32574   32598       1
   32568   32589       3   32562   32586       3   32553   32577       1   32553
   32580       1   32550   32571       3   32547   32565       3   32538   32556
       1   32538   32559       1   32526   32541       1   32526   32544       1
   32508   32529       1   32508   32532       1   32499   32523       3   32496
   32520       3   32490   32511       1   32490   32514       1   32487   32505
       3   32484   32502       3   32478   32493       3   32460   32475       3
   32817   32823       1   32817   32826       1   32817   32829       1   32805
   32814       1   32805   32820       1   32802   32808       1   32802   32811
       1   32784   32796       1   32784   32799       1   32775   32793       3
   32766   32787       1   32766   32790       1   32760   32781       3   32754
   32778       3   32745   32769       1   32745   32772       1   32742   32763
       3   32739   32757       3   32730   32748       1   32730   32751       1
   32718   32733       1   32718   32736       1   32700   32721       1   32700
   32724       1   32691   32715       3   32688   32712       3   32682   32703
       1   32682   32706       1   32679   32697       3   32676   32694       3
   32670   32685       3   32652   32667       3   33009   33015       1   33009
   33018       1   33009   33021       1   32997   33006       1   32997   33012
       1   32994   33000       1   32994   33003       1   32976   32988       1
   32976   32991       1   32967   32985       3   32958   32979       1   32958
   32982       1   32952   32973       3   32946   32970       3   32937   32961
       1   32937   32964       1   32934   32955       3   32931   32949       3
   32922   32940       1   32922   32943       1   32910   32925       1   32910
   32928       1   32892   32913       1   32892   32916       1   32883   32907
       3   32880   32904       3   32874   32895       1   32874   32898       1
   32871   32889       3   32868   32886       3   32862   32877       3   32844
   32859       3   33201   33207       1   33201   33210       1   33201   33213
       1   33189   33198       1   33189   33204       1   33186   33192       1
   33186   33195       1   33168   33180       1   33168   33183       1   33159
   33177       3   33150   33171       1   33150   33174       1   33144   33165
       3   33138   33162       3   33129   33153       1   33129   33156       1
   33126   33147       3   33123   33141       3   33114   33132       1   33114
   33135       1   33102   33117       1   33102   33120       1   33084   33105
       1   33084   33108       1   33075   33099       3   33072   33096       3
   33066   33087       1   33066   33090       1   33063   33081       3   33060
   33078       3   33054   33069       3   33036   33051       3   33393   33399
       1   33393   33402       1   33393   33405       1   33381   33390       1
   33381   33396       1   33378   33384       1   33378   33387       1   33360
   33372       1   33360   33375       1   33351   33369       3   33342   33363
       1   33342   33366       1   33336   33357       3   33330   33354       3
   33321   33345       1   33321   33348       1   33318   33339       3   33315
   33333       3   33306   33324       1   33306   33327       1   33294   33309
       1   33294   33312       1   33276   33297       1   33276   33300       1
   33267   33291       3   33264   33288       3   33258   33279       1   33258
   33282       1   33255   33273       3   33252   33270       3   33246   33261
       3   33228   33243       3   33585   33591       1   33585   33594       1
   33585   33597       1   33573   33582       1   33573   33588       1   33570
   33576       1   33570   33579       1   33552   33564       1   33552   33567
       1   33543   33561       3   33534   33555       1   33534   33558       1
   33528   33549       3   33522   33546       3   33513   33537       1   33513
   33540       1   33510   33531       3   33507   33525       3   33498   33516
       1   33498   33519       1   33486   33501       1   33486   33504       1
   33468   33489       1   33468   33492       1   33459   33483       3   33456
   33480       3   33450   33471       1   33450   33474       1   33447   33465
       3   33444   33462       3   33438   33453       3   33420   33435       3
   33777   33783       1   33777   33786       1   33777   33789       1   33765
   33774       1   33765   33780       1   33762   33768       1   33762   33771
       1   33744   33756       1   33744   33759       1   33735   33753       3
   33726   33747       1   33726   33750       1   33720   33741       3   33714
   33738       3   33705   33729       1   33705   33732       1   33702   33723
       3   33699   33717       3   33690   33708       1   33690   33711       1
   33678   33693       1   33678   33696       1   33660   33681       1   33660
   33684       1   33651   33675       3   33648   33672       3   33642   33663
       1   33642   33666       1   33639   33657       3   33636   33654       3
   33630   33645       3   33612   33627       3   33969   33975       1   33969
   33978       1   33969   33981       1   33957   33966       1   33957   33972
       1   33954   33960       1   33954   33963       1   33936   33948       1
   33936   33951       1   33927   33945       3   33918   33939       1   33918
   33942       1   33912   33933       3   33906   33930       3   33897   33921
       1   33897   33924       1   33894   33915       3   33891   33909       3
   33882   33900       1   33882   33903       1   33870   33885       1   33870
   33888       1   33852   33873       1   33852   33876       1   33843   33867
       3   33840   33864       3   33834   33855       1   33834   33858       1
   33831   33849       3   33828   33846       3   33822   33837       3   33804
   33819       3   34161   34167       1   34161   34170       1   34161   34173
       1   34149   34158       1   34149   34164       1   34146   34152       1
   34146   34155       1   34128   34140       1   34128   34143       1   34119
   34137       3   34110   34131       1   34110   34134       1   34104   34125
       3   34098   34122       3   34089   34113       1   34089   34116       1
   34086   34107       3   34083   34101       3   34074   34092       1   34074
   34095       1   34062   34077       1   34062   34080       1   34044   34065
       1   34044   34068       1   34035   34059       3   34032   34056       3
   34026   34047       1   34026   34050       1   34023   34041       3   34020
   34038       3   34014   34029       3   33996   34011       3   34353   34359
       1   34353   34362       1   34353   34365       1   34341   34350       1
   34341   34356       1   34338   34344       1   34338   34347       1   34320
   34332       1   34320   34335       1   34311   34329       3   34302   34323
       1   34302   34326       1   34296   34317       3   34290   34314       3
   34281   34305       1   34281   34308       1   34278   34299       3   34275
   34293       3   34266   34284       1   34266   34287       1   34254   34269
       1   34254   34272       1   34236   34257       1   34236   34260       1
   34227   34251       3   34224   34248       3   34218   34239       1   34218
   34242       1   34215   34233       3   34212   34230       3   34206   34221
       3   34188   34203       3   34545   34551       1   34545   34554       1
   34545   34557       1   34533   34542       1   34533   34548       1   34530
   34536       1   34530   34539       1   34512   34524       1   34512   34527
       1   34503   34521       3   34494   34515       1   34494   34518       1
   34488   34509       3   34482   34506       3   34473   34497       1   34473
   34500       1   34470   34491       3   34467   34485       3   34458   34476
       1   34458   34479       1   34446   34461       1   34446   34464       1
   34428   34449       1   34428   34452       1   34419   34443       3   34416
   34440       3   34410   34431       1   34410   34434       1   34407   34425
       3   34404   34422       3   34398   34413       3   34380   34395       3
   34737   34743       1   34737   34746       1   34737   34749       1   34725
   34734       1   34725   34740       1   34722   34728       1   34722   34731
       1   34704   34716       1   34704   34719       1   34695   34713       3
   34686   34707       1   34686   34710       1   34680   34701       3   34674
   34698       3   34665   34689       1   34665   34692       1   34662   34683
       3   34659   34677       3   34650   34668       1   34650   34671       1
   34638   34653       1   34638   34656       1   34620   34641       1   34620
   34644       1   34611   34635       3   34608   34632       3   34602   34623
       1   34602   34626       1   34599   34617       3   34596   34614       3
   34590   34605       3   34572   34587       3   34929   34935       1   34929
   34938       1   34929   34941       1   34917   34926       1   34917   34932
       1   34914   34920       1   34914   34923       1   34896   34908       1
   34896   34911       1   34887   34905       3   34878   34899       1   34878
   34902       1   34872   34893       3   34866   34890       3   34857   34881
       1   34857   34884       1   34854   34875       3   34851   34869       3
   34842   34860       1   34842   34863       1   34830   34845       1   34830
   34848       1   34812   34833       1   34812   34836       1   34803   34827
       3   34800   34824       3   34794   34815       1   34794   34818       1
   34791   34809       3   34788   34806       3   34782   34797       3   34764
   34779       3   35121   35127       1   35121   35130       1   35121   35133
       1   35109   35118       1   35109   35124       1   35106   35112       1
   35106   35115       1   35088   35100       1   35088   35103       1   35079
   35097       3   35070   35091       1   35070   35094       1   35064   35085
       3   35058   35082       3   35049   35073       1   35049   35076       1
   35046   35067       3   35043   35061       3   35034   35052       1   35034
   35055       1   35022   35037       1   35022   35040       1   35004   35025
       1   35004   35028       1   34995   35019       3   34992   35016       3
   34986   35007       1   34986   35010       1   34983   35001       3   34980
   34998       3   34974   34989       3   34956   34971       3   35313   35319
       1   35313   35322       1   35313   35325       1   35301   35310       1
   35301   35316       1   35298   35304       1   35298   35307       1   35280
   35292       1   35280   35295       1   35271   35289       3   35262   35283
       1   35262   35286       1   35256   35277       3   35250   35274       3
   35241   35265       1   35241   35268       1   35238   35259       3   35235
   35253       3   35226   35244       1   35226   35247       1   35214   35229
       1   35214   35232       1   35196   35217       1   35196   35220       1
   35187   35211       3   35184   35208       3   35178   35199       1   35178
   35202       1   35175   35193       3   35172   35190       3   35166   35181
       3   35148   35163       3   35505   35511       1   35505   35514       1
   35505   35517       1   35493   35502       1   35493   35508       1   35490
   35496       1   35490   35499       1   35472   35484       1   35472   35487
       1   35463   35481       3   35454   35475       1   35454   35478       1
   35448   35469       3   35442   35466       3   35433   35457       1   35433
   35460       1   35430   35451       3   35427   35445       3   35418   35436
       1   35418   35439       1   35406   35421       1   35406   35424       1
   35388   35409       1   35388   35412       1   35379   35403       3   35376
   35400       3   35370   35391       1   35370   35394       1   35367   35385
       3   35364   35382       3   35358   35373       3   35340   35355       3
   35697   35703       1   35697   35706       1   35697   35709       1   35685
   35694       1   35685   35700       1   35682   35688       1   35682   35691
       1   35664   35676       1   35664   35679       1   35655   35673       3
   35646   35667       1   35646   35670       1   35640   35661       3   35634
   35658       3   35625   35649       1   35625   35652       1   35622   35643
       3   35619   35637       3   35610   35628       1   35610   35631       1
   35598   35613       1   35598   35616       1   35580   35601       1   35580
   35604       1   35571   35595       3   35568   35592       3   35562   35583
       1   35562   35586       1   35559   35577       3   35556   35574       3
   35550   35565       3   35532   35547       3   35889   35895       1   35889
   35898       1   35889   35901       1   35877   35886       1   35877   35892
       1   35874   35880       1   35874   35883       1   35856   35868       1
   35856   35871       1   35847   35865       3   35838   35859       1   35838
   35862       1   35832   35853       3   35826   35850       3   35817   35841
       1   35817   35844       1   35814   35835       3   35811   35829       3
   35802   35820       1   35802   35823       1   35790   35805       1   35790
   35808       1   35772   35793       1   35772   35796       1   35763   35787
       3   35760   35784       3   35754   35775       1   35754   35778       1
   35751   35769       3   35748   35766       3   35742   35757       3   35724
   35739       3   36081   36087       1   36081   36090       1   36081   36093
       1   36069   36078       1   36069   36084       1   36066   36072       1
   36066   36075       1   36048   36060       1   36048   36063       1   36039
   36057       3   36030   36051       1   36030   36054       1   36024   36045
       3   36018   36042       3   36009   36033       1   36009   36036       1
   36006   36027       3   36003   36021       3   35994   36012       1   35994
   36015       1   35982   35997       1   35982   36000       1   35964   35985
       1   35964   35988       1   35955   35979       3   35952   35976       3
   35946   35967       1   35946   35970       1   35943   35961       3   35940
   35958       3   35934   35949       3   35916   35931       3   36273   36279
       1   36273   36282       1   36273   36285       1   36261   36270       1
   36261   36276       1   36258   36264       1   36258   36267       1   36240
   36252       1   36240   36255       1   36231   36249       3   36222   36243
       1   36222   36246       1   36216   36237       3   36210   36234       3
   36201   36225       1   36201   36228       1   36198   36219       3   36195
   36213       3   36186   36204       1   36186   36207       1   36174   36189
       1   36174   36192       1   36156   36177       1   36156   36180       1
   36147   36171       3   36144   36168       3   36138   36159       1   36138
   36162       1   36135   36153       3   36132   36150       3   36126   36141
       3   36108   36123       3   36465   36471       1   36465   36474       1
   36465   36477       1   36453   36462       1   36453   36468       1   36450
   36456       1   36450   36459       1   36432   36444       1   36432   36447
       1   36423   36441       3   36414   36435       1   36414   36438       1
   36408   36429       3   36402   36426       3   36393   36417       1   36393
   36420       1   36390   36411       3   36387   36405       3   36378   36396
       1   36378   36399       1   36366   36381       1   36366   36384       1
   36348   36369       1   36348   36372       1   36339   36363       3   36336
   36360       3   36330   36351       1   36330   36354       1   36327   36345
       3   36324   36342       3   36318   36333       3   36300   36315       3
   36657   36663       1   36657   36666       1   36657   36669       1   36645
   36654       1   36645   36660       1   36642   36648       1   36642   36651
       1   36624   36636       1   36624   36639       1   36615   36633       3
   36606   36627       1   36606   36630       1   36600   36621       3   36594
   36618       3   36585   36609       1   36585   36612       1   36582   36603
       3   36579   36597       3   36570   36588       1   36570   36591       1
   36558   36573       1   36558   36576       1   36540   36561       1   36540
   36564       1   36531   36555       3   36528   36552       3   36522   36543
       1   36522   36546       1   36519   36537       3   36516   36534       3
   36510   36525       3   36492   36507       3   36849   36855       1   36849
   36858       1   36849   36861       1   36837   36846       1   36837   36852
       1   36834   36840       1   36834   36843       1   36816   36828       1
   36816   36831       1   36807   36825       3   36798   36819       1   36798
   36822       1   36792   36813       3   36786   36810       3   36777   36801
       1   36777   36804       1   36774   36795       3   36771   36789       3
   36762   36780       1   36762   36783       1   36750   36765       1   36750
   36768       1   36732   36753       1   36732   36756       1   36723   36747
       3   36720   36744       3   36714   36735       1   36714   36738       1
   36711   36729       3   36708   36726       3   36702   36717       3   36684
   36699       3   37041   37047       1   37041   37050       1   37041   37053
       1   37029   37038       1   37029   37044       1   37026   37032       1
   37026   37035       1   37008   37020       1   37008   37023       1   36999
   37017       3   36990   37011       1   36990   37014       1   36984   37005
       3   36978   37002       3   36969   36993       1   36969   36996       1
   36966   36987       3   36963   36981       3   36954   36972       1   36954
   36975       1   36942   36957       1   36942   36960       1   36924   36945
       1   36924   36948       1   36915   36939       3   36912   36936       3
   36906   36927       1   36906   36930       1   36903   36921       3   36900
   36918       3   36894   36909       3   36876   36891       3   37233   37239
       1   37233   37242       1   37233   37245       1   37221   37230       1
   37221   37236       1   37218   37224       1   37218   37227       1   37200
   37212       1   37200   37215       1   37191   37209       3   37182   37203
       1   37182   37206       1   37176   37197       3   37170   37194       3
   37161   37185       1   37161   37188       1   37158   37179       3   37155
   37173       3   37146   37164       1   37146   37167       1   37134   37149
       1   37134   37152       1   37116   37137       1   37116   37140       1
   37107   37131       3   37104   37128       3   37098   37119       1   37098
   37122       1   37095   37113       3   37092   37110       3   37086   37101
       3   37068   37083       3   37425   37431       1   37425   37434       1
   37425   37437       1   37413   37422       1   37413   37428       1   37410
   37416       1   37410   37419       1   37392   37404       1   37392   37407
       1   37383   37401       3   37374   37395       1   37374   37398       1
   37368   37389       3   37362   37386       3   37353   37377       1   37353
   37380       1   37350   37371       3   37347   37365       3   37338   37356
       1   37338   37359       1   37326   37341       1   37326   37344       1
   37308   37329       1   37308   37332       1   37299   37323       3   37296
   37320       3   37290   37311       1   37290   37314       1   37287   37305
       3   37284   37302       3   37278   37293       3   37260   37275       3
   37617   37623       1   37617   37626       1   37617   37629       1   37605
   37614       1   37605   37620       1   37602   37608       1   37602   37611
       1   37584   37596       1   37584   37599       1   37575   37593       3
   37566   37587       1   37566   37590       1   37560   37581       3   37554
   37578       3   37545   37569       1   37545   37572       1   37542   37563
       3   37539   37557       3   37530   37548       1   37530   37551       1
   37518   37533       1   37518   37536       1   37500   37521       1   37500
   37524       1   37491   37515       3   37488   37512       3   37482   37503
       1   37482   37506       1   37479   37497       3   37476   37494       3
   37470   37485       3   37452   37467       3   37809   37815       1   37809
   37818       1   37809   37821       1   37797   37806       1   37797   37812
       1   37794   37800       1   37794   37803       1   37776   37788       1
   37776   37791       1   37767   37785       3   37758   37779       1   37758
   37782       1   37752   37773       3   37746   37770       3   37737   37761
       1   37737   37764       1   37734   37755       3   37731   37749       3
   37722   37740       1   37722   37743       1   37710   37725       1   37710
   37728       1   37692   37713       1   37692   37716       1   37683   37707
       3   37680   37704       3   37674   37695       1   37674   37698       1
   37671   37689       3   37668   37686       3   37662   37677       3   37644
   37659       3   38001   38007       1   38001   38010       1   38001   38013
       1   37989   37998       1   37989   38004       1   37986   37992       1
   37986   37995       1   37968   37980       1   37968   37983       1   37959
   37977       3   37950   37971       1   37950   37974       1   37944   37965
       3   37938   37962       3   37929   37953       1   37929   37956       1
   37926   37947       3   37923   37941       3   37914   37932       1   37914
   37935       1   37902   37917       1   37902   37920       1   37884   37905
       1   37884   37908       1   37875   37899       3   37872   37896       3
   37866   37887       1   37866   37890       1   37863   37881       3   37860
   37878       3   37854   37869       3   37836   37851       3   38193   38199
       1   38193   38202       1   38193   38205       1   38181   38190       1
   38181   38196       1   38178   38184       1   38178   38187       1   38160
   38172       1   38160   38175       1   38151   38169       3   38142   38163
       1   38142   38166       1   38136   38157       3   38130   38154       3
   38121   38145       1   38121   38148       1   38118   38139       3   38115
   38133       3   38106   38124       1   38106   38127       1   38094   38109
       1   38094   38112       1   38076   38097       1   38076   38100       1
   38067   38091       3   38064   38088       3   38058   38079       1   38058
   38082       1   38055   38073       3   38052   38070       3   38046   38061
       3   38028   38043       3   38385   38391       1   38385   38394       1
   38385   38397       1   38373   38382       1   38373   38388       1   38370
   38376       1   38370   38379       1   38352   38364       1   38352   38367
       1   38343   38361       3   38334   38355       1   38334   38358       1
   38328   38349       3   38322   38346       3   38313   38337       1   38313
   38340       1   38310   38331       3   38307   38325       3   38298   38316
       1   38298   38319       1   38286   38301       1   38286   38304       1
   38268   38289       1   38268   38292       1   38259   38283       3   38256
   38280       3   38250   38271       1   38250   38274       1   38247   38265
       3   38244   38262       3   38238   38253       3   38220   38235       3
   38577   38583       1   38577   38586       1   38577   38589       1   38565
   38574       1   38565   38580       1   38562   38568       1   38562   38571
       1   38544   38556       1   38544   38559       1   38535   38553       3
   38526   38547       1   38526   38550       1   38520   38541       3   38514
   38538       3   38505   38529       1   38505   38532       1   38502   38523
       3   38499   38517       3   38490   38508       1   38490   38511       1
   38478   38493       1   38478   38496       1   38460   38481       1   38460
   38484       1   38451   38475       3   38448   38472       3   38442   38463
       1   38442   38466       1   38439   38457       3   38436   38454       3
   38430   38445       3   38412   38427       3   38769   38775       1   38769
   38778       1   38769   38781       1   38757   38766       1   38757   38772
       1   38754   38760       1   38754   38763       1   38736   38748       1
   38736   38751       1   38727   38745       3   38718   38739       1   38718
   38742       1   38712   38733       3   38706   38730       3   38697   38721
       1   38697   38724       1   38694   38715       3   38691   38709       3
   38682   38700       1   38682   38703       1   38670   38685       1   38670
   38688       1   38652   38673       1   38652   38676       1   38643   38667
       3   38640   38664       3   38634   38655       1   38634   38658       1
   38631   38649       3   38628   38646       3   38622   38637       3   38604
   38619       3   38961   38967       1   38961   38970       1   38961   38973
       1   38949   38958       1   38949   38964       1   38946   38952       1
   38946   38955       1   38928   38940       1   38928   38943       1   38919
   38937       3   38910   38931       1   38910   38934       1   38904   38925
       3   38898   38922       3   38889   38913       1   38889   38916       1
   38886   38907       3   38883   38901       3   38874   38892       1   38874
   38895       1   38862   38877       1   38862   38880       1   38844   38865
       1   38844   38868       1   38835   38859       3   38832   38856       3
   38826   38847       1   38826   38850       1   38823   38841       3   38820
   38838       3   38814   38829       3   38796   38811       3   39153   39159
       1   39153   39162       1   39153   39165       1   39141   39150       1
   39141   39156       1   39138   39144       1   39138   39147       1   39120
   39132       1   39120   39135       1   39111   39129       3   39102   39123
       1   39102   39126       1   39096   39117       3   39090   39114       3
   39081   39105       1   39081   39108       1   39078   39099       3   39075
   39093       3   39066   39084       1   39066   39087       1   39054   39069
       1   39054   39072       1   39036   39057       1   39036   39060       1
   39027   39051       3   39024   39048       3   39018   39039       1   39018
   39042       1   39015   39033       3   39012   39030       3   39006   39021
       3   38988   39003       3   39345   39351       1   39345   39354       1
   39345   39357       1   39333   39342       1   39333   39348       1   39330
   39336       1   39330   39339       1   39312   39324       1   39312   39327
       1   39303   39321       3   39294   39315       1   39294   39318       1
   39288   39309       3   39282   39306       3   39273   39297       1   39273
   39300       1   39270   39291       3   39267   39285       3   39258   39276
       1   39258   39279       1   39246   39261       1   39246   39264       1
   39228   39249       1   39228   39252       1   39219   39243       3   39216
   39240       3   39210   39231       1   39210   39234       1   39207   39225
       3   39204   39222       3   39198   39213       3   39180   39195       3
   39537   39543       1   39537   39546       1   39537   39549       1   39525
   39534       1   39525   39540       1   39522   39528       1   39522   39531
       1   39504   39516       1   39504   39519       1   39495   39513       3
   39486   39507       1   39486   39510       1   39480   39501       3   39474
   39498       3   39465   39489       1   39465   39492       1   39462   39483
       3   39459   39477       3   39450   39468       1   39450   39471       1
   39438   39453       1   39438   39456       1   39420   39441       1   39420
   39444       1   39411   39435       3   39408   39432       3   39402   39423
       1   39402   39426       1   39399   39417       3   39396   39414       3
   39390   39405       3   39372   39387       3   39729   39735       1   39729
   39738       1   39729   39741       1   39717   39726       1   39717   39732
       1   39714   39720       1   39714   39723       1   39696   39708       1
   39696   39711       1   39687   39705       3   39678   39699       1   39678
   39702       1   39672   39693       3   39666   39690       3   39657   39681
       1   39657   39684       1   39654   39675       3   39651   39669       3
   39642   39660       1   39642   39663       1   39630   39645       1   39630
   39648       1   39612   39633       1   39612   39636       1   39603   39627
       3   39600   39624       3   39594   39615       1   39594   39618       1
   39591   39609       3   39588   39606       3   39582   39597       3   39564
   39579       3   39921   39927       1   39921   39930       1   39921   39933
       1   39909   39918       1   39909   39924       1   39906   39912       1
   39906   39915       1   39888   39900       1   39888   39903       1   39879
   39897       3   39870   39891       1   39870   39894       1   39864   39885
       3   39858   39882       3   39849   39873       1   39849   39876       1
   39846   39867       3   39843   39861       3   39834   39852       1   39834
   39855       1   39822   39837       1   39822   39840       1   39804   39825
       1   39804   39828       1   39795   39819       3   39792   39816       3
   39786   39807       1   39786   39810       1   39783   39801       3   39780
   39798       3   39774   39789       3   39756   39771       3   40113   40119
       1   40113   40122       1   40113   40125       1   40101   40110       1
   40101   40116       1   40098   40104       1   40098   40107       1   40080
   40092       1   40080   40095       1   40071   40089       3   40062   40083
       1   40062   40086       1   40056   40077       3   40050   40074       3
   40041   40065       1   40041   40068       1   40038   40059       3   40035
   40053       3   40026   40044       1   40026   40047       1   40014   40029
       1   40014   40032       1   39996   40017       1   39996   40020       1
   39987   40011       3   39984   40008       3   39978   39999       1   39978
   40002       1   39975   39993       3   39972   39990       3   39966   39981
       3   39948   39963       3   40305   40311       1   40305   40314       1
   40305   40317       1   40293   40302       1   40293   40308       1   40290
   40296       1   40290   40299       1   40272   40284       1   40272   40287
       1   40263   40281       3   40254   40275       1   40254   40278       1
   40248   40269       3   40242   40266       3   40233   40257       1   40233
   40260       1   40230   40251       3   40227   40245       3   40218   40236
       1   40218   40239       1   40206   40221       1   40206   40224       1
   40188   40209       1   40188   40212       1   40179   40203       3   40176
   40200       3   40170   40191       1   40170   40194       1   40167   40185
       3   40164   40182       3   40158   40173       3   40140   40155       3
   40497   40503       1   40497   40506       1   40497   40509       1   40485
   40494       1   40485   40500       1   40482   40488       1   40482   40491
       1   40464   40476       1   40464   40479       1   40455   40473       3
   40446   40467       1   40446   40470       1   40440   40461       3   40434
   40458       3   40425   40449       1   40425   40452       1   40422   40443
       3   40419   40437       3   40410   40428       1   40410   40431       1
   40398   40413       1   40398   40416       1   40380   40401       1   40380
   40404       1   40371   40395       3   40368   40392       3   40362   40383
       1   40362   40386       1   40359   40377       3   40356   40374       3
   40350   40365       3   40332   40347       3   40689   40695       1   40689
   40698       1   40689   40701       1   40677   40686       1   40677   40692
       1   40674   40680       1   40674   40683       1   40656   40668       1
   40656   40671       1   40647   40665       3   40638   40659       1   40638
   40662       1   40632   40653       3   40626   40650       3   40617   40641
       1   40617   40644       1   40614   40635       3   40611   40629       3
   40602   40620       1   40602   40623       1   40590   40605       1   40590
   40608       1   40572   40593       1   40572   40596       1   40563   40587
       3   40560   40584       3   40554   40575       1   40554   40578       1
   40551   40569       3   40548   40566       3   40542   40557       3   40524
   40539       3   40881   40887       1   40881   40890       1   40881   40893
       1   40869   40878       1   40869   40884       1   40866   40872       1
   40866   40875       1   40848   40860       1   40848   40863       1   40839
   40857       3   40830   40851       1   40830   40854       1   40824   40845
       3   40818   40842       3   40809   40833       1   40809   40836       1
   40806   40827       3   40803   40821       3   40794   40812       1   40794
   40815       1   40782   40797       1   40782   40800       1   40764   40785
       1   40764   40788       1   40755   40779       3   40752   40776       3
   40746   40767       1   40746   40770       1   40743   40761       3   40740
   40758       3   40734   40749       3   40716   40731       3   41073   41079
       1   41073   41082       1   41073   41085       1   41061   41070       1
   41061   41076       1   41058   41064       1   41058   41067       1   41040
   41052       1   41040   41055       1   41031   41049       3   41022   41043
       1   41022   41046       1   41016   41037       3   41010   41034       3
   41001   41025       1   41001   41028       1   40998   41019       3   40995
   41013       3   40986   41004       1   40986   41007       1   40974   40989
       1   40974   40992       1   40956   40977       1   40956   40980       1
   40947   40971       3   40944   40968       3   40938   40959       1   40938
   40962       1   40935   40953       3   40932   40950       3   40926   40941
       3   40908   40923       3   41265   41271       1   41265   41274       1
   41265   41277       1   41253   41262       1   41253   41268       1   41250
   41256       1   41250   41259       1   41232   41244       1   41232   41247
       1   41223   41241       3   41214   41235       1   41214   41238       1
   41208   41229       3   41202   41226       3   41193   41217       1   41193
   41220       1   41190   41211       3   41187   41205       3   41178   41196
       1   41178   41199       1   41166   41181       1   41166   41184       1
   41148   41169       1   41148   41172       1   41139   41163       3   41136
   41160       3   41130   41151       1   41130   41154       1   41127   41145
       3   41124   41142       3   41118   41133       3   41100   41115       3
   41457   41463       1   41457   41466       1   41457   41469       1   41445
   41454       1   41445   41460       1   41442   41448       1   41442   41451
       1   41424   41436       1   41424   41439       1   41415   41433       3
   41406   41427       1   41406   41430       1   41400   41421       3   41394
   41418       3   41385   41409       1   41385   41412       1   41382   41403
       3   41379   41397       3   41370   41388       1   41370   41391       1
   41358   41373       1   41358   41376       1   41340   41361       1   41340
   41364       1   41331   41355       3   41328   41352       3   41322   41343
       1   41322   41346       1   41319   41337       3   41316   41334       3
   41310   41325       3   41292   41307       3   41649   41655       1   41649
   41658       1   41649   41661       1   41637   41646       1   41637   41652
       1   41634   41640       1   41634   41643       1   41616   41628       1
   41616   41631       1   41607   41625       3   41598   41619       1   41598
   41622       1   41592   41613       3   41586   41610       3   41577   41601
       1   41577   41604       1   41574   41595       3   41571   41589       3
   41562   41580       1   41562   41583       1   41550   41565       1   41550
   41568       1   41532   41553       1   41532   41556       1   41523   41547
       3   41520   41544       3   41514   41535       1   41514   41538       1
   41511   41529       3   41508   41526       3   41502   41517       3   41484
   41499       3   41841   41847       1   41841   41850       1   41841   41853
       1   41829   41838       1   41829   41844       1   41826   41832       1
   41826   41835       1   41808   41820       1   41808   41823       1   41799
   41817       3   41790   41811       1   41790   41814       1   41784   41805
       3   41778   41802       3   41769   41793       1   41769   41796       1
   41766   41787       3   41763   41781       3   41754   41772       1   41754
   41775       1   41742   41757       1   41742   41760       1   41724   41745
       1   41724   41748       1   41715   41739       3   41712   41736       3
   41706   41727       1   41706   41730       1   41703   41721       3   41700
   41718       3   41694   41709       3   41676   41691       3   42033   42039
       1   42033   42042       1   42033   42045       1   42021   42030       1
   42021   42036       1   42018   42024       1   42018   42027       1   42000
   42012       1   42000   42015       1   41991   42009       3   41982   42003
       1   41982   42006       1   41976   41997       3   41970   41994       3
   41961   41985       1   41961   41988       1   41958   41979       3   41955
   41973       3   41946   41964       1   41946   41967       1   41934   41949
       1   41934   41952       1   41916   41937       1   41916   41940       1
   41907   41931       3   41904   41928       3   41898   41919       1   41898
   41922       1   41895   41913       3   41892   41910       3   41886   41901
       3   41868   41883       3   42225   42231       1   42225   42234       1
   42225   42237       1   42213   42222       1   42213   42228       1   42210
   42216       1   42210   42219       1   42192   42204       1   42192   42207
       1   42183   42201       3   42174   42195       1   42174   42198       1
   42168   42189       3   42162   42186       3   42153   42177       1   42153
   42180       1   42150   42171       3   42147   42165       3   42138   42156
       1   42138   42159       1   42126   42141       1   42126   42144       1
   42108   42129       1   42108   42132       1   42099   42123       3   42096
   42120       3   42090   42111       1   42090   42114       1   42087   42105
       3   42084   42102       3   42078   42093       3   42060   42075       3
   42417   42423       1   42417   42426       1   42417   42429       1   42405
   42414       1   42405   42420       1   42402   42408       1   42402   42411
       1   42384   42396       1   42384   42399       1   42375   42393       3
   42366   42387       1   42366   42390       1   42360   42381       3   42354
   42378       3   42345   42369       1   42345   42372       1   42342   42363
       3   42339   42357       3   42330   42348       1   42330   42351       1
   42318   42333       1   42318   42336       1   42300   42321       1   42300
   42324       1   42291   42315       3   42288   42312       3   42282   42303
       1   42282   42306       1   42279   42297       3   42276   42294       3
   42270   42285       3   42252   42267       3   42609   42615       1   42609
   42618       1   42609   42621       1   42597   42606       1   42597   42612
       1   42594   42600       1   42594   42603       1   42576   42588       1
   42576   42591       1   42567   42585       3   42558   42579       1   42558
   42582       1   42552   42573       3   42546   42570       3   42537   42561
       1   42537   42564       1   42534   42555       3   42531   42549       3
   42522   42540       1   42522   42543       1   42510   42525       1   42510
   42528       1   42492   42513       1   42492   42516       1   42483   42507
       3   42480   42504       3   42474   42495       1   42474   42498       1
   42471   42489       3   42468   42486       3   42462   42477       3   42444
   42459       3   42801   42807       1   42801   42810       1   42801   42813
       1   42789   42798       1   42789   42804       1   42786   42792       1
   42786   42795       1   42768   42780       1   42768   42783       1   42759
   42777       3   42750   42771       1   42750   42774       1   42744   42765
       3   42738   42762       3   42729   42753       1   42729   42756       1
   42726   42747       3   42723   42741       3   42714   42732       1   42714
   42735       1   42702   42717       1   42702   42720       1   42684   42705
       1   42684   42708       1   42675   42699       3   42672   42696       3
   42666   42687       1   42666   42690       1   42663   42681       3   42660
   42678       3   42654   42669       3   42636   42651       3   42993   42999
       1   42993   43002       1   42993   43005       1   42981   42990       1
   42981   42996       1   42978   42984       1   42978   42987       1   42960
   42972       1   42960   42975       1   42951   42969       3   42942   42963
       1   42942   42966       1   42936   42957       3   42930   42954       3
   42921   42945       1   42921   42948       1   42918   42939       3   42915
   42933       3   42906   42924       1   42906   42927       1   42894   42909
       1   42894   42912       1   42876   42897       1   42876   42900       1
   42867   42891       3   42864   42888       3   42858   42879       1   42858
   42882       1   42855   42873       3   42852   42870       3   42846   42861
       3   42828   42843       3   43185   43191       1   43185   43194       1
   43185   43197       1   43173   43182       1   43173   43188       1   43170
   43176       1   43170   43179       1   43152   43164       1   43152   43167
       1   43143   43161       3   43134   43155       1   43134   43158       1
   43128   43149       3   43122   43146       3   43113   43137       1   43113
   43140       1   43110   43131       3   43107   43125       3   43098   43116
       1   43098   43119       1   43086   43101       1   43086   43104       1
   43068   43089       1   43068   43092       1   43059   43083       3   43056
   43080       3   43050   43071       1   43050   43074       1   43047   43065
       3   43044   43062       3   43038   43053       3   43020   43035       3
   43377   43383       1   43377   43386       1   43377   43389       1   43365
   43374       1   43365   43380       1   43362   43368       1   43362   43371
       1   43344   43356       1   43344   43359       1   43335   43353       3
   43326   43347       1   43326   43350       1   43320   43341       3   43314
   43338       3   43305   43329       1   43305   43332       1   43302   43323
       3   43299   43317       3   43290   43308       1   43290   43311       1
   43278   43293       1   43278   43296       1   43260   43281       1   43260
   43284       1   43251   43275       3   43248   43272       3   43242   43263
       1   43242   43266       1   43239   43257       3   43236   43254       3
   43230   43245       3   43212   43227       3   43569   43575       1   43569
   43578       1   43569   43581       1   43557   43566       1   43557   43572
       1   43554   43560       1   43554   43563       1   43536   43548       1
   43536   43551       1   43527   43545       3   43518   43539       1   43518
   43542       1   43512   43533       3   43506   43530       3   43497   43521
       1   43497   43524       1   43494   43515       3   43491   43509       3
   43482   43500       1   43482   43503       1   43470   43485       1   43470
   43488       1   43452   43473       1   43452   43476       1   43443   43467
       3   43440   43464       3   43434   43455       1   43434   43458       1
   43431   43449       3   43428   43446       3   43422   43437       3   43404
   43419       3   43761   43767       1   43761   43770       1   43761   43773
       1   43749   43758       1   43749   43764       1   43746   43752       1
   43746   43755       1   43728   43740       1   43728   43743       1   43719
   43737       3   43710   43731       1   43710   43734       1   43704   43725
       3   43698   43722       3   43689   43713       1   43689   43716       1
   43686   43707       3   43683   43701       3   43674   43692       1   43674
   43695       1   43662   43677       1   43662   43680       1   43644   43665
       1   43644   43668       1   43635   43659       3   43632   43656       3
   43626   43647       1   43626   43650       1   43623   43641       3   43620
   43638       3   43614   43629       3   43596   43611       3   43953   43959
       1   43953   43962       1   43953   43965       1   43941   43950       1
   43941   43956       1   43938   43944       1   43938   43947       1   43920
   43932       1   43920   43935       1   43911   43929       3   43902   43923
       1   43902   43926       1   43896   43917       3   43890   43914       3
   43881   43905       1   43881   43908       1   43878   43899       3   43875
   43893       3   43866   43884       1   43866   43887       1   43854   43869
       1   43854   43872       1   43836   43857       1   43836   43860       1
   43827   43851       3   43824   43848       3   43818   43839       1   43818
   43842       1   43815   43833       3   43812   43830       3   43806   43821
       3   43788   43803       3   44145   44151       1   44145   44154       1
   44145   44157       1   44133   44142       1   44133   44148       1   44130
   44136       1   44130   44139       1   44112   44124       1   44112   44127
       1   44103   44121       3   44094   44115       1   44094   44118       1
   44088   44109       3   44082   44106       3   44073   44097       1   44073
   44100       1   44070   44091       3   44067   44085       3   44058   44076
       1   44058   44079       1   44046   44061       1   44046   44064       1
   44028   44049       1   44028   44052       1   44019   44043       3   44016
   44040       3   44010   44031       1   44010   44034       1   44007   44025
       3   44004   44022       3   43998   44013       3   43980   43995       3
   44337   44343       1   44337   44346       1   44337   44349       1   44325
   44334       1   44325   44340       1   44322   44328       1   44322   44331
       1   44304   44316       1   44304   44319       1   44295   44313       3
   44286   44307       1   44286   44310       1   44280   44301       3   44274
   44298       3   44265   44289       1   44265   44292       1   44262   44283
       3   44259   44277       3   44250   44268       1   44250   44271       1
   44238   44253       1   44238   44256       1   44220   44241       1   44220
   44244       1   44211   44235       3   44208   44232       3   44202   44223
       1   44202   44226       1   44199   44217       3   44196   44214       3
   44190   44205       3   44172   44187       3   44529   44535       1   44529
   44538       1   44529   44541       1   44517   44526       1   44517   44532
       1   44514   44520       1   44514   44523       1   44496   44508       1
   44496   44511       1   44487   44505       3   44478   44499       1   44478
   44502       1   44472   44493       3   44466   44490       3   44457   44481
       1   44457   44484       1   44454   44475       3   44451   44469       3
   44442   44460       1   44442   44463       1   44430   44445       1   44430
   44448       1   44412   44433       1   44412   44436       1   44403   44427
       3   44400   44424       3   44394   44415       1   44394   44418       1
   44391   44409       3   44388   44406       3   44382   44397       3   44364
   44379       3   44721   44727       1   44721   44730       1   44721   44733
       1   44709   44718       1   44709   44724       1   44706   44712       1
   44706   44715       1   44688   44700       1   44688   44703       1   44679
   44697       3   44670   44691       1   44670   44694       1   44664   44685
       3   44658   44682       3   44649   44673       1   44649   44676       1
   44646   44667       3   44643   44661       3   44634   44652       1   44634
   44655       1   44622   44637       1   44622   44640       1   44604   44625
       1   44604   44628       1   44595   44619       3   44592   44616       3
   44586   44607       1   44586   44610       1   44583   44601       3   44580
   44598       3   44574   44589       3   44556   44571       3   44913   44919
       1   44913   44922       1   44913   44925       1   44901   44910       1
   44901   44916       1   44898   44904       1   44898   44907       1   44880
   44892       1   44880   44895       1   44871   44889       3   44862   44883
       1   44862   44886       1   44856   44877       3   44850   44874       3
   44841   44865       1   44841   44868       1   44838   44859       3   44835
   44853       3   44826   44844       1   44826   44847       1   44814   44829
       1   44814   44832       1   44796   44817       1   44796   44820       1
   44787   44811       3   44784   44808       3   44778   44799       1   44778
   44802       1   44775   44793       3   44772   44790       3   44766   44781
       3   44748   44763       3   45105   45111       1   45105   45114       1
   45105   45117       1   45093   45102       1   45093   45108       1   45090
   45096       1   45090   45099       1   45072   45084       1   45072   45087
       1   45063   45081       3   45054   45075       1   45054   45078       1
   45048   45069       3   45042   45066       3   45033   45057       1   45033
   45060       1   45030   45051       3   45027   45045       3   45018   45036
       1   45018   45039       1   45006   45021       1   45006   45024       1
   44988   45009       1   44988   45012       1   44979   45003       3   44976
   45000       3   44970   44991       1   44970   44994       1   44967   44985
       3   44964   44982       3   44958   44973       3   44940   44955       3
   45297   45303       1   45297   45306       1   45297   45309       1   45285
   45294       1   45285   45300       1   45282   45288       1   45282   45291
       1   45264   45276       1   45264   45279       1   45255   45273       3
   45246   45267       1   45246   45270       1   45240   45261       3   45234
   45258       3   45225   45249       1   45225   45252       1   45222   45243
       3   45219   45237       3   45210   45228       1   45210   45231       1
   45198   45213       1   45198   45216       1   45180   45201       1   45180
   45204       1   45171   45195       3   45168   45192       3   45162   45183
       1   45162   45186       1   45159   45177       3   45156   45174       3
   45150   45165       3   45132   45147       3   45489   45495       1   45489
   45498       1   45489   45501       1   45477   45486       1   45477   45492
       1   45474   45480       1   45474   45483       1   45456   45468       1
   45456   45471       1   45447   45465       3   45438   45459       1   45438
   45462       1   45432   45453       3   45426   45450       3   45417   45441
       1   45417   45444       1   45414   45435       3   45411   45429       3
   45402   45420       1   45402   45423       1   45390   45405       1   45390
   45408       1   45372   45393       1   45372   45396       1   45363   45387
       3   45360   45384       3   45354   45375       1   45354   45378       1
   45351   45369       3   45348   45366       3   45342   45357       3   45324
   45339       3   45681   45687       1   45681   45690       1   45681   45693
       1   45669   45678       1   45669   45684       1   45666   45672       1
   45666   45675       1   45648   45660       1   45648   45663       1   45639
   45657       3   45630   45651       1   45630   45654       1   45624   45645
       3   45618   45642       3   45609   45633       1   45609   45636       1
   45606   45627       3   45603   45621       3   45594   45612       1   45594
   45615       1   45582   45597       1   45582   45600       1   45564   45585
       1   45564   45588       1   45555   45579       3   45552   45576       3
   45546   45567       1   45546   45570       1   45543   45561       3   45540
   45558       3   45534   45549       3   45516   45531       3   45873   45879
       1   45873   45882       1   45873   45885       1   45861   45870       1
   45861   45876       1   45858   45864       1   45858   45867       1   45840
   45852       1   45840   45855       1   45831   45849       3   45822   45843
       1   45822   45846       1   45816   45837       3   45810   45834       3
   45801   45825       1   45801   45828       1   45798   45819       3   45795
   45813       3   45786   45804       1   45786   45807       1   45774   45789
       1   45774   45792       1   45756   45777       1   45756   45780       1
   45747   45771       3   45744   45768       3   45738   45759       1   45738
   45762       1   45735   45753       3   45732   45750       3   45726   45741
       3   45708   45723       3   46065   46071       1   46065   46074       1
   46065   46077       1   46053   46062       1   46053   46068       1   46050
   46056       1   46050   46059       1   46032   46044       1   46032   46047
       1   46023   46041       3   46014   46035       1   46014   46038       1
   46008   46029       3   46002   46026       3   45993   46017       1   45993
   46020       1   45990   46011       3   45987   46005       3   45978   45996
       1   45978   45999       1   45966   45981       1   45966   45984       1
   45948   45969       1   45948   45972       1   45939   45963       3   45936
   45960       3   45930   45951       1   45930   45954       1   45927   45945
       3   45924   45942       3   45918   45933       3   45900   45915       3
   46257   46263       1   46257   46266       1   46257   46269       1   46245
   46254       1   46245   46260       1   46242   46248       1   46242   46251
       1   46224   46236       1   46224   46239       1   46215   46233       3
   46206   46227       1   46206   46230       1   46200   46221       3   46194
   46218       3   46185   46209       1   46185   46212       1   46182   46203
       3   46179   46197       3   46170   46188       1   46170   46191       1
   46158   46173       1   46158   46176       1   46140   46161       1   46140
   46164       1   46131   46155       3   46128   46152       3   46122   46143
       1   46122   46146       1   46119   46137       3   46116   46134       3
   46110   46125       3   46092   46107       3   46449   46455       1   46449
   46458       1   46449   46461       1   46437   46446       1   46437   46452
       1   46434   46440       1   46434   46443       1   46416   46428       1
   46416   46431       1   46407   46425       3   46398   46419       1   46398
   46422       1   46392   46413       3   46386   46410       3   46377   46401
       1   46377   46404       1   46374   46395       3   46371   46389       3
   46362   46380       1   46362   46383       1   46350   46365       1   46350
   46368       1   46332   46353       1   46332   46356       1   46323   46347
       3   46320   46344       3   46314   46335       1   46314   46338       1
   46311   46329       3   46308   46326       3   46302   46317       3   46284
   46299       3   46641   46647       1   46641   46650       1   46641   46653
       1   46629   46638       1   46629   46644       1   46626   46632       1
   46626   46635       1   46608   46620       1   46608   46623       1   46599
   46617       3   46590   46611       1   46590   46614       1   46584   46605
       3   46578   46602       3   46569   46593       1   46569   46596       1
   46566   46587       3   46563   46581       3   46554   46572       1   46554
   46575       1   46542   46557       1   46542   46560       1   46524   46545
       1   46524   46548       1   46515   46539       3   46512   46536       3
   46506   46527       1   46506   46530       1   46503   46521       3   46500
   46518       3   46494   46509       3   46476   46491       3   46833   46839
       1   46833   46842       1   46833   46845       1   46821   46830       1
   46821   46836       1   46818   46824       1   46818   46827       1   46800
   46812       1   46800   46815       1   46791   46809       3   46782   46803
       1   46782   46806       1   46776   46797       3   46770   46794       3
   46761   46785       1   46761   46788       1   46758   46779       3   46755
   46773       3   46746   46764       1   46746   46767       1   46734   46749
       1   46734   46752       1   46716   46737       1   46716   46740       1
   46707   46731       3   46704   46728       3   46698   46719       1   46698
   46722       1   46695   46713       3   46692   46710       3   46686   46701
       3   46668   46683       3   47025   47031       1   47025   47034       1
   47025   47037       1   47013   47022       1   47013   47028       1   47010
   47016       1   47010   47019       1   46992   47004       1   46992   47007
       1   46983   47001       3   46974   46995       1   46974   46998       1
   46968   46989       3   46962   46986       3   46953   46977       1   46953
   46980       1   46950   46971       3   46947   46965       3   46938   46956
       1   46938   46959       1   46926   46941       1   46926   46944       1
   46908   46929       1   46908   46932       1   46899   46923       3   46896
   46920       3   46890   46911       1   46890   46914       1   46887   46905
       3   46884   46902       3   46878   46893       3   46860   46875       3
   47217   47223       1   47217   47226       1   47217   47229       1   47205
   47214       1   47205   47220       1   47202   47208       1   47202   47211
       1   47184   47196       1   47184   47199       1   47175   47193       3
   47166   47187       1   47166   47190       1   47160   47181       3   47154
   47178       3   47145   47169       1   47145   47172       1   47142   47163
       3   47139   47157       3   47130   47148       1   47130   47151       1
   47118   47133       1   47118   47136       1   47100   47121       1   47100
   47124       1   47091   47115       3   47088   47112       3   47082   47103
       1   47082   47106       1   47079   47097       3   47076   47094       3
   47070   47085       3   47052   47067       3   47409   47415       1   47409
   47418       1   47409   47421       1   47397   47406       1   47397   47412
       1   47394   47400       1   47394   47403       1   47376   47388       1
   47376   47391       1   47367   47385       3   47358   47379       1   47358
   47382       1   47352   47373       3   47346   47370       3   47337   47361
       1   47337   47364       1   47334   47355       3   47331   47349       3
   47322   47340       1   47322   47343       1   47310   47325       1   47310
   47328       1   47292   47313       1   47292   47316       1   47283   47307
       3   47280   47304       3   47274   47295       1   47274   47298       1
   47271   47289       3   47268   47286       3   47262   47277       3   47244
   47259       3   47601   47607       1   47601   47610       1   47601   47613
       1   47589   47598       1   47589   47604       1   47586   47592       1
   47586   47595       1   47568   47580       1   47568   47583       1   47559
   47577       3   47550   47571       1   47550   47574       1   47544   47565
       3   47538   47562       3   47529   47553       1   47529   47556       1
   47526   47547       3   47523   47541       3   47514   47532       1   47514
   47535       1   47502   47517       1   47502   47520       1   47484   47505
       1   47484   47508       1   47475   47499       3   47472   47496       3
   47466   47487       1   47466   47490       1   47463   47481       3   47460
   47478       3   47454   47469       3   47436   47451       3   47793   47799
       1   47793   47802       1   47793   47805       1   47781   47790       1
   47781   47796       1   47778   47784       1   47778   47787       1   47760
   47772       1   47760   47775       1   47751   47769       3   47742   47763
       1   47742   47766       1   47736   47757       3   47730   47754       3
   47721   47745       1   47721   47748       1   47718   47739       3   47715
   47733       3   47706   47724       1   47706   47727       1   47694   47709
       1   47694   47712       1   47676   47697       1   47676   47700       1
   47667   47691       3   47664   47688       3   47658   47679       1   47658
   47682       1   47655   47673       3   47652   47670       3   47646   47661
       3   47628   47643       3   47985   47991       1   47985   47994       1
   47985   47997       1   47973   47982       1   47973   47988       1   47970
   47976       1   47970   47979       1   47952   47964       1   47952   47967
       1   47943   47961       3   47934   47955       1   47934   47958       1
   47928   47949       3   47922   47946       3   47913   47937       1   47913
   47940       1   47910   47931       3   47907   47925       3   47898   47916
       1   47898   47919       1   47886   47901       1   47886   47904       1
   47868   47889       1   47868   47892       1   47859   47883       3   47856
   47880       3   47850   47871       1   47850   47874       1   47847   47865
       3   47844   47862       3   47838   47853       3   47820   47835       3
   48177   48183       1   48177   48186       1   48177   48189       1   48165
   48174       1   48165   48180       1   48162   48168       1   48162   48171
       1   48144   48156       1   48144   48159       1   48135   48153       3
   48126   48147       1   48126   48150       1   48120   48141       3   48114
   48138       3   48105   48129       1   48105   48132       1   48102   48123
       3   48099   48117       3   48090   48108       1   48090   48111       1
   48078   48093       1   48078   48096       1   48060   48081       1   48060
   48084       1   48051   48075       3   48048   48072       3   48042   48063
       1   48042   48066       1   48039   48057       3   48036   48054       3
   48030   48045       3   48012   48027       3   48369   48375       1   48369
   48378       1   48369   48381       1   48357   48366       1   48357   48372
       1   48354   48360       1   48354   48363       1   48336   48348       1
   48336   48351       1   48327   48345       3   48318   48339       1   48318
   48342       1   48312   48333       3   48306   48330       3   48297   48321
       1   48297   48324       1   48294   48315       3   48291   48309       3
   48282   48300       1   48282   48303       1   48270   48285       1   48270
   48288       1   48252   48273       1   48252   48276       1   48243   48267
       3   48240   48264       3   48234   48255       1   48234   48258       1
   48231   48249       3   48228   48246       3   48222   48237       3   48204
   48219       3   48561   48567       1   48561   48570       1   48561   48573
       1   48549   48558       1   48549   48564       1   48546   48552       1
   48546   48555       1   48528   48540       1   48528   48543       1   48519
   48537       3   48510   48531       1   48510   48534       1   48504   48525
       3   48498   48522       3   48489   48513       1   48489   48516       1
   48486   48507       3   48483   48501       3   48474   48492       1   48474
   48495       1   48462   48477       1   48462   48480       1   48444   48465
       1   48444   48468       1   48435   48459       3   48432   48456       3
   48426   48447       1   48426   48450       1   48423   48441       3   48420
   48438       3   48414   48429       3   48396   48411       3   48753   48759
       1   48753   48762       1   48753   48765       1   48741   48750       1
   48741   48756       1   48738   48744       1   48738   48747       1   48720
   48732       1   48720   48735       1   48711   48729       3   48702   48723
       1   48702   48726       1   48696   48717       3   48690   48714       3
   48681   48705       1   48681   48708       1   48678   48699       3   48675
   48693       3   48666   48684       1   48666   48687       1   48654   48669
       1   48654   48672       1   48636   48657       1   48636   48660       1
   48627   48651       3   48624   48648       3   48618   48639       1   48618
   48642       1   48615   48633       3   48612   48630       3   48606   48621
       3   48588   48603       3   48945   48951       1   48945   48954       1
   48945   48957       1   48933   48942       1   48933   48948       1   48930
   48936       1   48930   48939       1   48912   48924       1   48912   48927
       1   48903   48921       3   48894   48915       1   48894   48918       1
   48888   48909       3   48882   48906       3   48873   48897       1   48873
   48900       1   48870   48891       3   48867   48885       3   48858   48876
       1   48858   48879       1   48846   48861       1   48846   48864       1
   48828   48849       1   48828   48852       1   48819   48843       3   48816
   48840       3   48810   48831       1   48810   48834       1   48807   48825
       3   48804   48822       3   48798   48813       3   48780   48795       3
   49137   49143       1   49137   49146       1   49137   49149       1   49125
   49134       1   49125   49140       1   49122   49128       1   49122   49131
       1   49104   49116       1   49104   49119       1   49095   49113       3
   49086   49107       1   49086   49110       1   49080   49101       3   49074
   49098       3   49065   49089       1   49065   49092       1   49062   49083
       3   49059   49077       3   49050   49068       1   49050   49071       1
   49038   49053       1   49038   49056       1   49020   49041       1   49020
   49044       1   49011   49035       3   49008   49032       3   49002   49023
       1   49002   49026       1   48999   49017       3   48996   49014       3
   48990   49005       3   48972   48987       3   49329   49335       1   49329
   49338       1   49329   49341       1   49317   49326       1   49317   49332
       1   49314   49320       1   49314   49323       1   49296   49308       1
   49296   49311       1   49287   49305       3   49278   49299       1   49278
   49302       1   49272   49293       3   49266   49290       3   49257   49281
       1   49257   49284       1   49254   49275       3   49251   49269       3
   49242   49260       1   49242   49263       1   49230   49245       1   49230
   49248       1   49212   49233       1   49212   49236       1   49203   49227
       3   49200   49224       3   49194   49215       1   49194   49218       1
   49191   49209       3   49188   49206       3   49182   49197       3   49164
   49179       3   49521   49527       1   49521   49530       1   49521   49533
       1   49509   49518       1   49509   49524       1   49506   49512       1
   49506   49515       1   49488   49500       1   49488   49503       1   49479
   49497       3   49470   49491       1   49470   49494       1   49464   49485
       3   49458   49482       3   49449   49473       1   49449   49476       1
   49446   49467       3   49443   49461       3   49434   49452       1   49434
   49455       1   49422   49437       1   49422   49440       1   49404   49425
       1   49404   49428       1   49395   49419       3   49392   49416       3
   49386   49407       1   49386   49410       1   49383   49401       3   49380
   49398       3   49374   49389       3   49356   49371       3   49713   49719
       1   49713   49722       1   49713   49725       1   49701   49710       1
   49701   49716       1   49698   49704       1   49698   49707       1   49680
   49692       1   49680   49695       1   49671   49689       3   49662   49683
       1   49662   49686       1   49656   49677       3   49650   49674       3
   49641   49665       1   49641   49668       1   49638   49659       3   49635
   49653       3   49626   49644       1   49626   49647       1   49614   49629
       1   49614   49632       1   49596   49617       1   49596   49620       1
   49587   49611       3   49584   49608       3   49578   49599       1   49578
   49602       1   49575   49593       3   49572   49590       3   49566   49581
       3   49548   49563       3   49905   49911       1   49905   49914       1
   49905   49917       1   49893   49902       1   49893   49908       1   49890
   49896       1   49890   49899       1   49872   49884       1   49872   49887
       1   49863   49881       3   49854   49875       1   49854   49878       1
   49848   49869       3   49842   49866       3   49833   49857       1   49833
   49860       1   49830   49851       3   49827   49845       3   49818   49836
       1   49818   49839       1   49806   49821       1   49806   49824       1
   49788   49809       1   49788   49812       1   49779   49803       3   49776
   49800       3   49770   49791       1   49770   49794       1   49767   49785
       3   49764   49782       3   49758   49773       3   49740   49755       3
   50097   50103       1   50097   50106       1   50097   50109       1   50085
   50094       1   50085   50100       1   50082   50088       1   50082   50091
       1   50064   50076       1   50064   50079       1   50055   50073       3
   50046   50067       1   50046   50070       1   50040   50061       3   50034
   50058       3   50025   50049       1   50025   50052       1   50022   50043
       3   50019   50037       3   50010   50028       1   50010   50031       1
   49998   50013       1   49998   50016       1   49980   50001       1   49980
   50004       1   49971   49995       3   49968   49992       3   49962   49983
       1   49962   49986       1   49959   49977       3   49956   49974       3
   49950   49965       3   49932   49947       3   50289   50295       1   50289
   50298       1   50289   50301       1   50277   50286       1   50277   50292
       1   50274   50280       1   50274   50283       1   50256   50268       1
   50256   50271       1   50247   50265       3   50238   50259       1   50238
   50262       1   50232   50253       3   50226   50250       3   50217   50241
       1   50217   50244       1   50214   50235       3   50211   50229       3
   50202   50220       1   50202   50223       1   50190   50205       1   50190
   50208       1   50172   50193       1   50172   50196       1   50163   50187
       3   50160   50184       3   50154   50175       1   50154   50178       1
   50151   50169       3   50148   50166       3   50142   50157       3   50124
   50139       3   50481   50487       1   50481   50490       1   50481   50493
       1   50469   50478       1   50469   50484       1   50466   50472       1
   50466   50475       1   50448   50460       1   50448   50463       1   50439
   50457       3   50430   50451       1   50430   50454       1   50424   50445
       3   50418   50442       3   50409   50433       1   50409   50436       1
   50406   50427       3   50403   50421       3   50394   50412       1   50394
   50415       1   50382   50397       1   50382   50400       1   50364   50385
       1   50364   50388       1   50355   50379       3   50352   50376       3
   50346   50367       1   50346   50370       1   50343   50361       3   50340
   50358       3   50334   50349       3   50316   50331       3   50673   50679
       1   50673   50682       1   50673   50685       1   50661   50670       1
   50661   50676       1   50658   50664       1   50658   50667       1   50640
   50652       1   50640   50655       1   50631   50649       3   50622   50643
       1   50622   50646       1   50616   50637       3   50610   50634       3
   50601   50625       1   50601   50628       1   50598   50619       3   50595
   50613       3   50586   50604       1   50586   50607       1   50574   50589
       1   50574   50592       1   50556   50577       1   50556   50580       1
   50547   50571       3   50544   50568       3   50538   50559       1   50538
   50562       1   50535   50553       3   50532   50550       3   50526   50541
       3   50508   50523       3   50865   50871       1   50865   50874       1
   50865   50877       1   50853   50862       1   50853   50868       1   50850
   50856       1   50850   50859       1   50832   50844       1   50832   50847
       1   50823   50841       3   50814   50835       1   50814   50838       1
   50808   50829       3   50802   50826       3   50793   50817       1   50793
   50820       1   50790   50811       3   50787   50805       3   50778   50796
       1   50778   50799       1   50766   50781       1   50766   50784       1
   50748   50769       1   50748   50772       1   50739   50763       3   50736
   50760       3   50730   50751       1   50730   50754       1   50727   50745
       3   50724   50742       3   50718   50733       3   50700   50715       3
   51057   51063       1   51057   51066       1   51057   51069       1   51045
   51054       1   51045   51060       1   51042   51048       1   51042   51051
       1   51024   51036       1   51024   51039       1   51015   51033       3
   51006   51027       1   51006   51030       1   51000   51021       3   50994
   51018       3   50985   51009       1   50985   51012       1   50982   51003
       3   50979   50997       3   50970   50988       1   50970   50991       1
   50958   50973       1   50958   50976       1   50940   50961       1   50940
   50964       1   50931   50955       3   50928   50952       3   50922   50943
       1   50922   50946       1   50919   50937       3   50916   50934       3
   50910   50925       3   50892   50907       3   51249   51255       1   51249
   51258       1   51249   51261       1   51237   51246       1   51237   51252
       1   51234   51240       1   51234   51243       1   51216   51228       1
   51216   51231       1   51207   51225       3   51198   51219       1   51198
   51222       1   51192   51213       3   51186   51210       3   51177   51201
       1   51177   51204       1   51174   51195       3   51171   51189       3
   51162   51180       1   51162   51183       1   51150   51165       1   51150
   51168       1   51132   51153       1   51132   51156       1   51123   51147
       3   51120   51144       3   51114   51135       1   51114   51138       1
   51111   51129       3   51108   51126       3   51102   51117       3   51084
   51099       3   51441   51447       1   51441   51450       1   51441   51453
       1   51429   51438       1   51429   51444       1   51426   51432       1
   51426   51435       1   51408   51420       1   51408   51423       1   51399
   51417       3   51390   51411       1   51390   51414       1   51384   51405
       3   51378   51402       3   51369   51393       1   51369   51396       1
   51366   51387       3   51363   51381       3   51354   51372       1   51354
   51375       1   51342   51357       1   51342   51360       1   51324   51345
       1   51324   51348       1   51315   51339       3   51312   51336       3
   51306   51327       1   51306   51330       1   51303   51321       3   51300
   51318       3   51294   51309       3   51276   51291       3   51633   51639
       1   51633   51642       1   51633   51645       1   51621   51630       1
   51621   51636       1   51618   51624       1   51618   51627       1   51600
   51612       1   51600   51615       1   51591   51609       3   51582   51603
       1   51582   51606       1   51576   51597       3   51570   51594       3
   51561   51585       1   51561   51588       1   51558   51579       3   51555
   51573       3   51546   51564       1   51546   51567       1   51534   51549
       1   51534   51552       1   51516   51537       1   51516   51540       1
   51507   51531       3   51504   51528       3   51498   51519       1   51498
   51522       1   51495   51513       3   51492   51510       3   51486   51501
       3   51468   51483       3   51825   51831       1   51825   51834       1
   51825   51837       1   51813   51822       1   51813   51828       1   51810
   51816       1   51810   51819       1   51792   51804       1   51792   51807
       1   51783   51801       3   51774   51795       1   51774   51798       1
   51768   51789       3   51762   51786       3   51753   51777       1   51753
   51780       1   51750   51771       3   51747   51765       3   51738   51756
       1   51738   51759       1   51726   51741       1   51726   51744       1
   51708   51729       1   51708   51732       1   51699   51723       3   51696
   51720       3   51690   51711       1   51690   51714       1   51687   51705
       3   51684   51702       3   51678   51693       3   51660   51675       3
   52017   52023       1   52017   52026       1   52017   52029       1   52005
   52014       1   52005   52020       1   52002   52008       1   52002   52011
       1   51984   51996       1   51984   51999       1   51975   51993       3
   51966   51987       1   51966   51990       1   51960   51981       3   51954
   51978       3   51945   51969       1   51945   51972       1   51942   51963
       3   51939   51957       3   51930   51948       1   51930   51951       1
   51918   51933       1   51918   51936       1   51900   51921       1   51900
   51924       1   51891   51915       3   51888   51912       3   51882   51903
       1   51882   51906       1   51879   51897       3   51876   51894       3
   51870   51885       3   51852   51867       3   52209   52215       1   52209
   52218       1   52209   52221       1   52197   52206       1   52197   52212
       1   52194   52200       1   52194   52203       1   52176   52188       1
   52176   52191       1   52167   52185       3   52158   52179       1   52158
   52182       1   52152   52173       3   52146   52170       3   52137   52161
       1   52137   52164       1   52134   52155       3   52131   52149       3
   52122   52140       1   52122   52143       1   52110   52125       1   52110
   52128       1   52092   52113       1   52092   52116       1   52083   52107
       3   52080   52104       3   52074   52095       1   52074   52098       1
   52071   52089       3   52068   52086       3   52062   52077       3   52044
   52059       3   52401   52407       1   52401   52410       1   52401   52413
       1   52389   52398       1   52389   52404       1   52386   52392       1
   52386   52395       1   52368   52380       1   52368   52383       1   52359
   52377       3   52350   52371       1   52350   52374       1   52344   52365
       3   52338   52362       3   52329   52353       1   52329   52356       1
   52326   52347       3   52323   52341       3   52314   52332       1   52314
   52335       1   52302   52317       1   52302   52320       1   52284   52305
       1   52284   52308       1   52275   52299       3   52272   52296       3
   52266   52287       1   52266   52290       1   52263   52281       3   52260
   52278       3   52254   52269       3   52236   52251       3   52593   52599
       1   52593   52602       1   52593   52605       1   52581   52590       1
   52581   52596       1   52578   52584       1   52578   52587       1   52560
   52572       1   52560   52575       1   52551   52569       3   52542   52563
       1   52542   52566       1   52536   52557       3   52530   52554       3
   52521   52545       1   52521   52548       1   52518   52539       3   52515
   52533       3   52506   52524       1   52506   52527       1   52494   52509
       1   52494   52512       1   52476   52497       1   52476   52500       1
   52467   52491       3   52464   52488       3   52458   52479       1   52458
   52482       1   52455   52473       3   52452   52470       3   52446   52461
       3   52428   52443       3   52785   52791       1   52785   52794       1
   52785   52797       1   52773   52782       1   52773   52788       1   52770
   52776       1   52770   52779       1   52752   52764       1   52752   52767
       1   52743   52761       3   52734   52755       1   52734   52758       1
   52728   52749       3   52722   52746       3   52713   52737       1   52713
   52740       1   52710   52731       3   52707   52725       3   52698   52716
       1   52698   52719       1   52686   52701       1   52686   52704       1
   52668   52689       1   52668   52692       1   52659   52683       3   52656
   52680       3   52650   52671       1   52650   52674       1   52647   52665
       3   52644   52662       3   52638   52653       3   52620   52635       3
   52977   52983       1   52977   52986       1   52977   52989       1   52965
   52974       1   52965   52980       1   52962   52968       1   52962   52971
       1   52944   52956       1   52944   52959       1   52935   52953       3
   52926   52947       1   52926   52950       1   52920   52941       3   52914
   52938       3   52905   52929       1   52905   52932       1   52902   52923
       3   52899   52917       3   52890   52908       1   52890   52911       1
   52878   52893       1   52878   52896       1   52860   52881       1   52860
   52884       1   52851   52875       3   52848   52872       3   52842   52863
       1   52842   52866       1   52839   52857       3   52836   52854       3
   52830   52845       3   52812   52827       3   53169   53175       1   53169
   53178       1   53169   53181       1   53157   53166       1   53157   53172
       1   53154   53160       1   53154   53163       1   53136   53148       1
   53136   53151       1   53127   53145       3   53118   53139       1   53118
   53142       1   53112   53133       3   53106   53130       3   53097   53121
       1   53097   53124       1   53094   53115       3   53091   53109       3
   53082   53100       1   53082   53103       1   53070   53085       1   53070
   53088       1   53052   53073       1   53052   53076       1   53043   53067
       3   53040   53064       3   53034   53055       1   53034   53058       1
   53031   53049       3   53028   53046       3   53022   53037       3   53004
   53019       3   53361   53367       1   53361   53370       1   53361   53373
       1   53349   53358       1   53349   53364       1   53346   53352       1
   53346   53355       1   53328   53340       1   53328   53343       1   53319
   53337       3   53310   53331       1   53310   53334       1   53304   53325
       3   53298   53322       3   53289   53313       1   53289   53316       1
   53286   53307       3   53283   53301       3   53274   53292       1   53274
   53295       1   53262   53277       1   53262   53280       1   53244   53265
       1   53244   53268       1   53235   53259       3   53232   53256       3
   53226   53247       1   53226   53250       1   53223   53241       3   53220
   53238       3   53214   53229       3   53196   53211       3   53553   53559
       1   53553   53562       1   53553   53565       1   53541   53550       1
   53541   53556       1   53538   53544       1   53538   53547       1   53520
   53532       1   53520   53535       1   53511   53529       3   53502   53523
       1   53502   53526       1   53496   53517       3   53490   53514       3
   53481   53505       1   53481   53508       1   53478   53499       3   53475
   53493       3   53466   53484       1   53466   53487       1   53454   53469
       1   53454   53472       1   53436   53457       1   53436   53460       1
   53427   53451       3   53424   53448       3   53418   53439       1   53418
   53442       1   53415   53433       3   53412   53430       3   53406   53421
       3   53388   53403       3   53745   53751       1   53745   53754       1
   53745   53757       1   53733   53742       1   53733   53748       1   53730
   53736       1   53730   53739       1   53712   53724       1   53712   53727
       1   53703   53721       3   53694   53715       1   53694   53718       1
   53688   53709       3   53682   53706       3   53673   53697       1   53673
   53700       1   53670   53691       3   53667   53685       3   53658   53676
       1   53658   53679       1   53646   53661       1   53646   53664       1
   53628   53649       1   53628   53652       1   53619   53643       3   53616
   53640       3   53610   53631       1   53610   53634       1   53607   53625
       3   53604   53622       3   53598   53613       3   53580   53595       3
   53937   53943       1   53937   53946       1   53937   53949       1   53925
   53934       1   53925   53940       1   53922   53928       1   53922   53931
       1   53904   53916       1   53904   53919       1   53895   53913       3
   53886   53907       1   53886   53910       1   53880   53901       3   53874
   53898       3   53865   53889       1   53865   53892       1   53862   53883
       3   53859   53877       3   53850   53868       1   53850   53871       1
   53838   53853       1   53838   53856       1   53820   53841       1   53820
   53844       1   53811   53835       3   53808   53832       3   53802   53823
       1   53802   53826       1   53799   53817       3   53796   53814       3
   53790   53805       3   53772   53787       3   54129   54135       1   54129
   54138       1   54129   54141       1   54117   54126       1   54117   54132
       1   54114   54120       1   54114   54123       1   54096   54108       1
   54096   54111       1   54087   54105       3   54078   54099       1   54078
   54102       1   54072   54093       3   54066   54090       3   54057   54081
       1   54057   54084       1   54054   54075       3   54051   54069       3
   54042   54060       1   54042   54063       1   54030   54045       1   54030
   54048       1   54012   54033       1   54012   54036       1   54003   54027
       3   54000   54024       3   53994   54015       1   53994   54018       1
   53991   54009       3   53988   54006       3   53982   53997       3   53964
   53979       3   54321   54327       1   54321   54330       1   54321   54333
       1   54309   54318       1   54309   54324       1   54306   54312       1
   54306   54315       1   54288   54300       1   54288   54303       1   54279
   54297       3   54270   54291       1   54270   54294       1   54264   54285
       3   54258   54282       3   54249   54273       1   54249   54276       1
   54246   54267       3   54243   54261       3   54234   54252       1   54234
   54255       1   54222   54237       1   54222   54240       1   54204   54225
       1   54204   54228       1   54195   54219       3   54192   54216       3
   54186   54207       1   54186   54210       1   54183   54201       3   54180
   54198       3   54174   54189       3   54156   54171       3   54513   54519
       1   54513   54522       1   54513   54525       1   54501   54510       1
   54501   54516       1   54498   54504       1   54498   54507       1   54480
   54492       1   54480   54495       1   54471   54489       3   54462   54483
       1   54462   54486       1   54456   54477       3   54450   54474       3
   54441   54465       1   54441   54468       1   54438   54459       3   54435
   54453       3   54426   54444       1   54426   54447       1   54414   54429
       1   54414   54432       1   54396   54417       1   54396   54420       1
   54387   54411       3   54384   54408       3   54378   54399       1   54378
   54402       1   54375   54393       3   54372   54390       3   54366   54381
       3   54348   54363       3   54705   54711       1   54705   54714       1
   54705   54717       1   54693   54702       1   54693   54708       1   54690
   54696       1   54690   54699       1   54672   54684       1   54672   54687
       1   54663   54681       3   54654   54675       1   54654   54678       1
   54648   54669       3   54642   54666       3   54633   54657       1   54633
   54660       1   54630   54651       3   54627   54645       3   54618   54636
       1   54618   54639       1   54606   54621       1   54606   54624       1
   54588   54609       1   54588   54612       1   54579   54603       3   54576
   54600       3   54570   54591       1   54570   54594       1   54567   54585
       3   54564   54582       3   54558   54573       3   54540   54555       3
   54897   54903       1   54897   54906       1   54897   54909       1   54885
   54894       1   54885   54900       1   54882   54888       1   54882   54891
       1   54864   54876       1   54864   54879       1   54855   54873       3
   54846   54867       1   54846   54870       1   54840   54861       3   54834
   54858       3   54825   54849       1   54825   54852       1   54822   54843
       3   54819   54837       3   54810   54828       1   54810   54831       1
   54798   54813       1   54798   54816       1   54780   54801       1   54780
   54804       1   54771   54795       3   54768   54792       3   54762   54783
       1   54762   54786       1   54759   54777       3   54756   54774       3
   54750   54765       3   54732   54747       3   55089   55095       1   55089
   55098       1   55089   55101       1   55077   55086       1   55077   55092
       1   55074   55080       1   55074   55083       1   55056   55068       1
   55056   55071       1   55047   55065       3   55038   55059       1   55038
   55062       1   55032   55053       3   55026   55050       3   55017   55041
       1   55017   55044       1   55014   55035       3   55011   55029       3
   55002   55020       1   55002   55023       1   54990   55005       1   54990
   55008       1   54972   54993       1   54972   54996       1   54963   54987
       3   54960   54984       3   54954   54975       1   54954   54978       1
   54951   54969       3   54948   54966       3   54942   54957       3   54924
   54939       3   55281   55287       1   55281   55290       1   55281   55293
       1   55269   55278       1   55269   55284       1   55266   55272       1
   55266   55275       1   55248   55260       1   55248   55263       1   55239
   55257       3   55230   55251       1   55230   55254       1   55224   55245
       3   55218   55242       3   55209   55233       1   55209   55236       1
   55206   55227       3   55203   55221       3   55194   55212       1   55194
   55215       1   55182   55197       1   55182   55200       1   55164   55185
       1   55164   55188       1   55155   55179       3   55152   55176       3
   55146   55167       1   55146   55170       1   55143   55161       3   55140
   55158       3   55134   55149       3   55116   55131       3
%FLAG BONDS_WITHOUT_HYDROGEN                                                    
%FORMAT(10I8)                                                                   
     165     177       2     162     165       2     144     162       2     126
     144       2     120     135       4     114     135       4     105     126
       2     102     120       4      99     114       4      90     105       2
      87      99       5      87     102       5      78      90       2      69
      87       6      60      78       2      51      69       5      48      69
       5      42      60       2      36      51       4      33      48       4
      30      39       4      24      39       4      24      42       7      21
      33       4      21      36       4      18      33       8      15      30
       4      12      24       4       9      21       9       6       9      10
       6      15      11       6      18      12       3      12       4       3
      15       4       0       3      13       0       6      14       0       9
      15     357     369       2     354     357       2     336     354       2
     318     336       2     312     327       4     306     327       4     297
     318       2     294     312       4     291     306       4     282     297
       2     279     291       5     279     294       5     270     282       2
     261     279       6     252     270       2     243     261       5     240
     261       5     234     252       2     228     243       4     225     240
       4     222     231       4     216     231       4     216     234       7
     213     225       4     213     228       4     210     225       8     207
     222       4     204     216       4     201     213       9     198     201
      10     198     207      11     198     210      12     195     204       4
     195     207       4     192     195      13     192     198      14     192
     201      15     549     561       2     546     549       2     528     546
       2     510     528       2     504     519       4     498     519       4
     489     510       2     486     504       4     483     498       4     474
     489       2     471     483       5     471     486       5     462     474
       2     453     471       6     444     462       2     435     453       5
     432     453       5     426     444       2     420     435       4     417
     432       4     414     423       4     408     423       4     408     426
       7     405     417       4     405     420       4     402     417       8
     399     414       4     396     408       4     393     405       9     390
     393      10     390     399      11     390     402      12     387     396
       4     387     399       4     384     387      13     384     390      14
     384     393      15     741     753       2     738     741       2     720
     738       2     702     720       2     696     711       4     690     711
       4     681     702       2     678     696       4     675     690       4
     666     681       2     663     675       5     663     678       5     654
     666       2     645     663       6     636     654       2     627     645
       5     624     645       5     618     636       2     612     627       4
     609     624       4     606     615       4     600     615       4     600
     618       7     597     609       4     597     612       4     594     609
       8     591     606       4     588     600       4     585     597       9
     582     585      10     582     591      11     582     594      12     579
     588       4     579     591       4     576     579      13     576     582
      14     576     585      15     933     945       2     930     933       2
     912     930       2     894     912       2     888     903       4     882
     903       4     873     894       2     870     888       4     867     882
       4     858     873       2     855     867       5     855     870       5
     846     858       2     837     855       6     828     846       2     819
     837       5     816     837       5     810     828       2     804     819
       4     801     816       4     798     807       4     792     807       4
     792     810       7     789     801       4     789     804       4     786
     801       8     783     798       4     780     792       4     777     789
       9     774     777      10     774     783      11     774     786      12
     771     780       4     771     783       4     768     771      13     768
     774      14     768     777      15    1125    1137       2    1122    1125
       2    1104    1122       2    1086    1104       2    1080    1095       4
    1074    1095       4    1065    1086       2    1062    1080       4    1059
    1074       4    1050    1065       2    1047    1059       5    1047    1062
       5    1038    1050       2    1029    1047       6    1020    1038       2
    1011    1029       5    1008    1029       5    1002    1020       2     996
    1011       4     993    1008       4     990     999       4     984     999
       4     984    1002       7     981     993       4     981     996       4
     978     993       8     975     990       4     972     984       4     969
     981       9     966     969      10     966     975      11     966     978
      12     963     972       4     963     975       4     960     963      13
     960     966      14     960     969      15    1317    1329       2    1314
    1317       2    1296    1314       2    1278    1296       2    1272    1287
       4    1266    1287       4    1257    1278       2    1254    1272       4
    1251    1266       4    1242    1257       2    1239    1251       5    1239
    1254       5    1230    1242       2    1221    1239       6    1212    1230
       2    1203    1221       5    1200    1221       5    1194    1212       2
    1188    1203       4    1185    1200       4    1182    1191       4    1176
    1191       4    1176    1194       7    1173    1185       4    1173    1188
       4    1170    1185       8    1167    1182       4    1164    1176       4
    1161    1173       9    1158    1161      10    1158    1167      11    1158
    1170      12    1155    1164       4    1155    1167       4    1152    1155
      13    1152    1158      14    1152    1161      15    1509    1521       2
    1506    1509       2    1488    1506       2    1470    1488       2    1464
    1479       4    1458    1479       4    1449    1470       2    1446    1464
       4    1443    1458       4    1434    1449       2    1431    1443       5
    1431    1446       5    1422    1434       2    1413    1431       6    1404
    1422       2    1395    1413       5    1392    1413       5    1386    1404
       2    1380    1395       4    1377    1392       4    1374    1383       4
    1368    1383       4    1368    1386       7    1365    1377       4    1365
    1380       4    1362    1377       8    1359    1374       4    1356    1368
       4    1353    1365       9    1350    1353      10    1350    1359      11
    1350    1362      12    1347    1356       4    1347    1359       4    1344
    1347      13    1344    1350      14    1344    1353      15    1701    1713
       2    1698    1701       2    1680    1698       2    1662    1680       2
    1656    1671       4    1650    1671       4    1641    1662       2    1638
    1656       4    1635    1650       4    1626    1641       2    1623    1635
       5    1623    1638       5    1614    1626       2    1605    1623       6
    1596    1614       2    1587    1605       5    1584    1605       5    1578
    1596       2    1572    1587       4    1569    1584       4    1566    1575
       4    1560    1575       4    1560    1578       7    1557    1569       4
    1557    1572       4    1554    1569       8    1551    1566       4    1548
    1560       4    1545    1557       9    1542    1545      10    1542    1551
      11    1542    1554      12    1539    1548       4    1539    1551       4
    1536    1539      13    1536    1542      14    1536    1545      15    1893
    1905       2    1890    1893       2    1872    1890       2    1854    1872
       2    1848    1863       4    1842    1863       4    1833    1854       2
    1830    1848       4    1827    1842       4    1818    1833       2    1815
    1827       5    1815    1830       5    1806    1818       2    1797    1815
       6    1788    1806       2    1779    1797       5    1776    1797       5
    1770    1788       2    1764    1779       4    1761    1776       4    1758
    1767       4    1752    1767       4    1752    1770       7    1749    1761
       4    1749    1764       4    1746    1761       8    1743    1758       4
    1740    1752       4    1737    1749       9    1734    1737      10    1734
    1743      11    1734    1746      12    1731    1740       4    1731    1743
       4    1728    1731      13    1728    1734      14    1728    1737      15
    2085    2097       2    2082    2085       2    2064    2082       2    2046
    2064       2    2040    2055       4    2034    2055       4    2025    2046
       2    2022    2040       4    2019    2034       4    2010    2025       2
    2007    2019       5    2007    2022       5    1998    2010       2    1989
    2007       6    1980    1998       2    1971    1989       5    1968    1989
       5    1962    1980       2    1956    1971       4    1953    1968       4
    1950    1959       4    1944    1959       4    1944    1962       7    1941
    1953       4    1941    1956       4    1938    1953       8    1935    1950
       4    1932    1944       4    1929    1941       9    1926    1929      10
    1926    1935      11    1926    1938      12    1923    1932       4    1923
    1935       4    1920    1923      13    1920    1926      14    1920    1929
      15    2277    2289       2    2274    2277       2    2256    2274       2
    2238    2256       2    2232    2247       4    2226    2247       4    2217
    2238       2    2214    2232       4    2211    2226       4    2202    2217
       2    2199    2211       5    2199    2214       5    2190    2202       2
    2181    2199       6    2172    2190       2    2163    2181       5    2160
    2181       5    2154    2172       2    2148    2163       4    2145    2160
       4    2142    2151       4    2136    2151       4    2136    2154       7
    2133    2145       4    2133    2148       4    2130    2145       8    2127
    2142       4    2124    2136       4    2121    2133       9    2118    2121
      10    2118    2127      11    2118    2130      12    2115    2124       4
    2115    2127       4    2112    2115      13    2112    2118      14    2112
    2121      15    2469    2481       2    2466    2469       2    2448    2466
       2    2430    2448       2    2424    2439       4    2418    2439       4
    2409    2430       2    2406    2424       4    2403    2418       4    2394
    2409       2    2391    2403       5    2391    2406       5    2382    2394
       2    2373    2391       6    2364    2382       2    2355    2373       5
    2352    2373       5    2346    2364       2    2340    2355       4    2337
    2352       4    2334    2343       4    2328    2343       4    2328    2346
       7    2325    2337       4    2325    2340       4    2322    2337       8
    2319    2334       4    2316    2328       4    2313    2325       9    2310
    2313      10    2310    2319      11    2310    2322      12    2307    2316
       4    2307    2319       4    2304    2307      13    2304    2310      14
    2304    2313      15    2661    2673       2    2658    2661       2    2640
    2658       2    2622    2640       2    2616    2631       4    2610    2631
       4    2601    2622       2    2598    2616       4    2595    2610       4
    2586    2601       2    2583    2595       5    2583    2598       5    2574
    2586       2    2565    2583       6    2556    2574       2    2547    2565
       5    2544    2565       5    2538    2556       2    2532    2547       4
    2529    2544       4    2526    2535       4    2520    2535       4    2520
    2538       7    2517    2529       4    2517    2532       4    2514    2529
       8    2511    2526       4    2508    2520       4    2505    2517       9
    2502    2505      10    2502    2511      11    2502    2514      12    2499
    2508       4    2499    2511       4    2496    2499      13    2496    2502
      14    2496    2505      15    2853    2865       2    2850    2853       2
    2832    2850       2    2814    2832       2    2808    2823       4    2802
    2823       4    2793    2814       2    2790    2808       4    2787    2802
       4    2778    2793       2    2775    2787       5    2775    2790       5
    2766    2778       2    2757    2775       6    2748    2766       2    2739
    2757       5    2736    2757       5    2730    2748       2    2724    2739
       4    2721    2736       4    2718    2727       4    2712    2727       4
    2712    2730       7    2709    2721       4    2709    2724       4    2706
    2721       8    2703    2718       4    2700    2712       4    2697    2709
       9    2694    2697      10    2694    2703      11    2694    2706      12
    2691    2700       4    2691    2703       4    2688    2691      13    2688
    2694      14    2688    2697      15    3045    3057       2    3042    3045
       2    3024    3042       2    3006    3024       2    3000    3015       4
    2994    3015       4    2985    3006       2    2982    3000       4    2979
    2994       4    2970    2985       2    2967    2979       5    2967    2982
       5    2958    2970       2    2949    2967       6    2940    2958       2
    2931    2949       5    2928    2949       5    2922    2940       2    2916
    2931       4    2913    2928       4    2910    2919       4    2904    2919
       4    2904    2922       7    2901    2913       4    2901    2916       4
    2898    2913       8    2895    2910       4    2892    2904       4    2889
    2901       9    2886    2889      10    2886    2895      11    2886    2898
      12    2883    2892       4    2883    2895       4    2880    2883      13
    2880    2886      14    2880    2889      15    3237    3249       2    3234
    3237       2    3216    3234       2    3198    3216       2    3192    3207
       4    3186    3207       4    3177    3198       2    3174    3192       4
    3171    3186       4    3162    3177       2    3159    3171       5    3159
    3174       5    3150    3162       2    3141    3159       6    3132    3150
       2    3123    3141       5    3120    3141       5    3114    3132       2
    3108    3123       4    3105    3120       4    3102    3111       4    3096
    3111       4    3096    3114       7    3093    3105       4    3093    3108
       4    3090    3105       8    3087    3102       4    3084    3096       4
    3081    3093       9    3078    3081      10    3078    3087      11    3078
    3090      12    3075    3084       4    3075    3087       4    3072    3075
      13    3072    3078      14    3072    3081      15    3429    3441       2
    3426    3429       2    3408    3426       2    3390    3408       2    3384
    3399       4    3378    3399       4    3369    3390       2    3366    3384
       4    3363    3378       4    3354    3369       2    3351    3363       5
    3351    3366       5    3342    3354       2    3333    3351       6    3324
    3342       2    3315    3333       5    3312    3333       5    3306    3324
       2    3300    3315       4    3297    3312       4    3294    3303       4
    3288    3303       4    3288    3306       7    3285    3297       4    3285
    3300       4    3282    3297       8    3279    3294       4    3276    3288
       4    3273    3285       9    3270    3273      10    3270    3279      11
    3270    3282      12    3267    3276       4    3267    3279       4    3264
    3267      13    3264    3270      14    3264    3273      15    3621    3633
       2    3618    3621       2    3600    3618       2    3582    3600       2
    3576    3591       4    3570    3591       4    3561    3582       2    3558
    3576       4    3555    3570       4    3546    3561       2    3543    3555
       5    3543    3558       5    3534    3546       2    3525    3543       6
    3516    3534       2    3507    3525       5    3504    3525       5    3498
    3516       2    3492    3507       4    3489    3504       4    3486    3495
       4    3480    3495       4    3480    3498       7    3477    3489       4
    3477    3492       4    3474    3489       8    3471    3486       4    3468
    3480       4    3465    3477       9    3462    3465      10    3462    3471
      11    3462    3474      12    3459    3468       4    3459    3471       4
    3456    3459      13    3456    3462      14    3456    3465      15    3813
    3825       2    3810    3813       2    3792    3810       2    3774    3792
       2    3768    3783       4    3762    3783       4    3753    3774       2
    3750    3768       4    3747    3762       4    3738    3753       2    3735
    3747       5    3735    3750       5    3726    3738       2    3717    3735
       6    3708    3726       2    3699    3717       5    3696    3717       5
    3690    3708       2    3684    3699       4    3681    3696       4    3678
    3687       4    3672    3687       4    3672    3690       7    3669    3681
       4    3669    3684       4    3666    3681       8    3663    3678       4
    3660    3672       4    3657    3669       9    3654    3657      10    3654
    3663      11    3654    3666      12    3651    3660       4    3651    3663
       4    3648    3651      13    3648    3654      14    3648    3657      15
    4005    4017       2    4002    4005       2    3984    4002       2    3966
    3984       2    3960    3975       4    3954    3975       4    3945    3966
       2    3942    3960       4    3939    3954       4    3930    3945       2
    3927    3939       5    3927    3942       5    3918    3930       2    3909
    3927       6    3900    3918       2    3891    3909       5    3888    3909
       5    3882    3900       2    3876    3891       4    3873    3888       4
    3870    3879       4    3864    3879       4    3864    3882       7    3861
    3873       4    3861    3876       4    3858    3873       8    3855    3870
       4    3852    3864       4    3849    3861       9    3846    3849      10
    3846    3855      11    3846    3858      12    3843    3852       4    3843
    3855       4    3840    3843      13    3840    3846      14    3840    3849
      15    4197    4209       2    4194    4197       2    4176    4194       2
    4158    4176       2    4152    4167       4    4146    4167       4    4137
    4158       2    4134    4152       4    4131    4146       4    4122    4137
       2    4119    4131       5    4119    4134       5    4110    4122       2
    4101    4119       6    4092    4110       2    4083    4101       5    4080
    4101       5    4074    4092       2    4068    4083       4    4065    4080
       4    4062    4071       4    4056    4071       4    4056    4074       7
    4053    4065       4    4053    4068       4    4050    4065       8    4047
    4062       4    4044    4056       4    4041    4053       9    4038    4041
      10    4038    4047      11    4038    4050      12    4035    4044       4
    4035    4047       4    4032    4035      13    4032    4038      14    4032
    4041      15    4389    4401       2    4386    4389       2    4368    4386
       2    4350    4368       2    4344    4359       4    4338    4359       4
    4329    4350       2    4326    4344       4    4323    4338       4    4314
    4329       2    4311    4323       5    4311    4326       5    4302    4314
       2    4293    4311       6    4284    4302       2    4275    4293       5
    4272    4293       5    4266    4284       2    4260    4275       4    4257
    4272       4    4254    4263       4    4248    4263       4    4248    4266
       7    4245    4257       4    4245    4260       4    4242    4257       8
    4239    4254       4    4236    4248       4    4233    4245       9    4230
    4233      10    4230    4239      11    4230    4242      12    4227    4236
       4    4227    4239       4    4224    4227      13    4224    4230      14
    4224    4233      15    4581    4593       2    4578    4581       2    4560
    4578       2    4542    4560       2    4536    4551       4    4530    4551
       4    4521    4542       2    4518    4536       4    4515    4530       4
    4506    4521       2    4503    4515       5    4503    4518       5    4494
    4506       2    4485    4503       6    4476    4494       2    4467    4485
       5    4464    4485       5    4458    4476       2    4452    4467       4
    4449    4464       4    4446    4455       4    4440    4455       4    4440
    4458       7    4437    4449       4    4437    4452       4    4434    4449
       8    4431    4446       4    4428    4440       4    4425    4437       9
    4422    4425      10    4422    4431      11    4422    4434      12    4419
    4428       4    4419    4431       4    4416    4419      13    4416    4422
      14    4416    4425      15    4773    4785       2    4770    4773       2
    4752    4770       2    4734    4752       2    4728    4743       4    4722
    4743       4    4713    4734       2    4710    4728       4    4707    4722
       4    4698    4713       2    4695    4707       5    4695    4710       5
    4686    4698       2    4677    4695       6    4668    4686       2    4659
    4677       5    4656    4677       5    4650    4668       2    4644    4659
       4    4641    4656       4    4638    4647       4    4632    4647       4
    4632    4650       7    4629    4641       4    4629    4644       4    4626
    4641       8    4623    4638       4    4620    4632       4    4617    4629
       9    4614    4617      10    4614    4623      11    4614    4626      12
    4611    4620       4    4611    4623       4    4608    4611      13    4608
    4614      14    4608    4617      15    4965    4977       2    4962    4965
       2    4944    4962       2    4926    4944       2    4920    4935       4
    4914    4935       4    4905    4926       2    4902    4920       4    4899
    4914       4    4890    4905       2    4887    4899       5    4887    4902
       5    4878    4890       2    4869    4887       6    4860    4878       2
    4851    4869       5    4848    4869       5    4842    4860       2    4836
    4851       4    4833    4848       4    4830    4839       4    4824    4839
       4    4824    4842       7    4821    4833       4    4821    4836       4
    4818    4833       8    4815    4830       4    4812    4824       4    4809
    4821       9    4806    4809      10    4806    4815      11    4806    4818
      12    4803    4812       4    4803    4815       4    4800    4803      13
    4800    4806      14    4800    4809      15    5157    5169       2    5154
    5157       2    5136    5154       2    5118    5136       2    5112    5127
       4    5106    5127       4    5097    5118       2    5094    5112       4
    5091    5106       4    5082    5097       2    5079    5091       5    5079
    5094       5    5070    5082       2    5061    5079       6    5052    5070
       2    5043    5061       5    5040    5061       5    5034    5052       2
    5028    5043       4    5025    5040       4    5022    5031       4    5016
    5031       4    5016    5034       7    5013    5025       4    5013    5028
       4    5010    5025       8    5007    5022       4    5004    5016       4
    5001    5013       9    4998    5001      10    4998    5007      11    4998
    5010      12    4995    5004       4    4995    5007       4    4992    4995
      13    4992    4998      14    4992    5001      15    5349    5361       2
    5346    5349       2    5328    5346       2    5310    5328       2    5304
    5319       4    5298    5319       4    5289    5310       2    5286    5304
       4    5283    5298       4    5274    5289       2    5271    5283       5
    5271    5286       5    5262    5274       2    5253    5271       6    5244
    5262       2    5235    5253       5    5232    5253       5    5226    5244
       2    5220    5235       4    5217    5232       4    5214    5223       4
    5208    5223       4    5208    5226       7    5205    5217       4    5205
    5220       4    5202    5217       8    5199    5214       4    5196    5208
       4    5193    5205       9    5190    5193      10    5190    5199      11
    5190    5202      12    5187    5196       4    5187    5199       4    5184
    5187      13    5184    5190      14    5184    5193      15    5541    5553
       2    5538    5541       2    5520    5538       2    5502    5520       2
    5496    5511       4    5490    5511       4    5481    5502       2    5478
    5496       4    5475    5490       4    5466    5481       2    5463    5475
       5    5463    5478       5    5454    5466       2    5445    5463       6
    5436    5454       2    5427    5445       5    5424    5445       5    5418
    5436       2    5412    5427       4    5409    5424       4    5406    5415
       4    5400    5415       4    5400    5418       7    5397    5409       4
    5397    5412       4    5394    5409       8    5391    5406       4    5388
    5400       4    5385    5397       9    5382    5385      10    5382    5391
      11    5382    5394      12    5379    5388       4    5379    5391       4
    5376    5379      13    5376    5382      14    5376    5385      15    5733
    5745       2    5730    5733       2    5712    5730       2    5694    5712
       2    5688    5703       4    5682    5703       4    5673    5694       2
    5670    5688       4    5667    5682       4    5658    5673       2    5655
    5667       5    5655    5670       5    5646    5658       2    5637    5655
       6    5628    5646       2    5619    5637       5    5616    5637       5
    5610    5628       2    5604    5619       4    5601    5616       4    5598
    5607       4    5592    5607       4    5592    5610       7    5589    5601
       4    5589    5604       4    5586    5601       8    5583    5598       4
    5580    5592       4    5577    5589       9    5574    5577      10    5574
    5583      11    5574    5586      12    5571    5580       4    5571    5583
       4    5568    5571      13    5568    5574      14    5568    5577      15
    5925    5937       2    5922    5925       2    5904    5922       2    5886
    5904       2    5880    5895       4    5874    5895       4    5865    5886
       2    5862    5880       4    5859    5874       4    5850    5865       2
    5847    5859       5    5847    5862       5    5838    5850       2    5829
    5847       6    5820    5838       2    5811    5829       5    5808    5829
       5    5802    5820       2    5796    5811       4    5793    5808       4
    5790    5799       4    5784    5799       4    5784    5802       7    5781
    5793       4    5781    5796       4    5778    5793       8    5775    5790
       4    5772    5784       4    5769    5781       9    5766    5769      10
    5766    5775      11    5766    5778      12    5763    5772       4    5763
    5775       4    5760    5763      13    5760    5766      14    5760    5769
      15    6117    6129       2    6114    6117       2    6096    6114       2
    6078    6096       2    6072    6087       4    6066    6087       4    6057
    6078       2    6054    6072       4    6051    6066       4    6042    6057
       2    6039    6051       5    6039    6054       5    6030    6042       2
    6021    6039       6    6012    6030       2    6003    6021       5    6000
    6021       5    5994    6012       2    5988    6003       4    5985    6000
       4    5982    5991       4    5976    5991       4    5976    5994       7
    5973    5985       4    5973    5988       4    5970    5985       8    5967
    5982       4    5964    5976       4    5961    5973       9    5958    5961
      10    5958    5967      11    5958    5970      12    5955    5964       4
    5955    5967       4    5952    5955      13    5952    5958      14    5952
    5961      15    6309    6321       2    6306    6309       2    6288    6306
       2    6270    6288       2    6264    6279       4    6258    6279       4
    6249    6270       2    6246    6264       4    6243    6258       4    6234
    6249       2    6231    6243       5    6231    6246       5    6222    6234
       2    6213    6231       6    6204    6222       2    6195    6213       5
    6192    6213       5    6186    6204       2    6180    6195       4    6177
    6192       4    6174    6183       4    6168    6183       4    6168    6186
       7    6165    6177       4    6165    6180       4    6162    6177       8
    6159    6174       4    6156    6168       4    6153    6165       9    6150
    6153      10    6150    6159      11    6150    6162      12    6147    6156
       4    6147    6159       4    6144    6147      13    6144    6150      14
    6144    6153      15    6501    6513       2    6498    6501       2    6480
    6498       2    6462    6480       2    6456    6471       4    6450    6471
       4    6441    6462       2    6438    6456       4    6435    6450       4
    6426    6441       2    6423    6435       5    6423    6438       5    6414
    6426       2    6405    6423       6    6396    6414       2    6387    6405
       5    6384    6405       5    6378    6396       2    6372    6387       4
    6369    6384       4    6366    6375       4    6360    6375       4    6360
    6378       7    6357    6369       4    6357    6372       4    6354    6369
       8    6351    6366       4    6348    6360       4    6345    6357       9
    6342    6345      10    6342    6351      11    6342    6354      12    6339
    6348       4    6339    6351       4    6336    6339      13    6336    6342
      14    6336    6345      15    6693    6705       2    6690    6693       2
    6672    6690       2    6654    6672       2    6648    6663       4    6642
    6663       4    6633    6654       2    6630    6648       4    6627    6642
       4    6618    6633       2    6615    6627       5    6615    6630       5
    6606    6618       2    6597    6615       6    6588    6606       2    6579
    6597       5    6576    6597       5    6570    6588       2    6564    6579
       4    6561    6576       4    6558    6567       4    6552    6567       4
    6552    6570       7    6549    6561       4    6549    6564       4    6546
    6561       8    6543    6558       4    6540    6552       4    6537    6549
       9    6534    6537      10    6534    6543      11    6534    6546      12
    6531    6540       4    6531    6543       4    6528    6531      13    6528
    6534      14    6528    6537      15    6885    6897       2    6882    6885
       2    6864    6882       2    6846    6864       2    6840    6855       4
    6834    6855       4    6825    6846       2    6822    6840       4    6819
    6834       4    6810    6825       2    6807    6819       5    6807    6822
       5    6798    6810       2    6789    6807       6    6780    6798       2
    6771    6789       5    6768    6789       5    6762    6780       2    6756
    6771       4    6753    6768       4    6750    6759       4    6744    6759
       4    6744    6762       7    6741    6753       4    6741    6756       4
    6738    6753       8    6735    6750       4    6732    6744       4    6729
    6741       9    6726    6729      10    6726    6735      11    6726    6738
      12    6723    6732       4    6723    6735       4    6720    6723      13
    6720    6726      14    6720    6729      15    7077    7089       2    7074
    7077       2    7056    7074       2    7038    7056       2    7032    7047
       4    7026    7047       4    7017    7038       2    7014    7032       4
    7011    7026       4    7002    7017       2    6999    7011       5    6999
    7014       5    6990    7002       2    6981    6999       6    6972    6990
       2    6963    6981       5    6960    6981       5    6954    6972       2
    6948    6963       4    6945    6960       4    6942    6951       4    6936
    6951       4    6936    6954       7    6933    6945       4    6933    6948
       4    6930    6945       8    6927    6942       4    6924    6936       4
    6921    6933       9    6918    6921      10    6918    6927      11    6918
    6930      12    6915    6924       4    6915    6927       4    6912    6915
      13    6912    6918      14    6912    6921      15    7269    7281       2
    7266    7269       2    7248    7266       2    7230    7248       2    7224
    7239       4    7218    7239       4    7209    7230       2    7206    7224
       4    7203    7218       4    7194    7209       2    7191    7203       5
    7191    7206       5    7182    7194       2    7173    7191       6    7164
    7182       2    7155    7173       5    7152    7173       5    7146    7164
       2    7140    7155       4    7137    7152       4    7134    7143       4
    7128    7143       4    7128    7146       7    7125    7137       4    7125
    7140       4    7122    7137       8    7119    7134       4    7116    7128
       4    7113    7125       9    7110    7113      10    7110    7119      11
    7110    7122      12    7107    7116       4    7107    7119       4    7104
    7107      13    7104    7110      14    7104    7113      15    7461    7473
       2    7458    7461       2    7440    7458       2    7422    7440       2
    7416    7431       4    7410    7431       4    7401    7422       2    7398
    7416       4    7395    7410       4    7386    7401       2    7383    7395
       5    7383    7398       5    7374    7386       2    7365    7383       6
    7356    7374       2    7347    7365       5    7344    7365       5    7338
    7356       2    7332    7347       4    7329    7344       4    7326    7335
       4    7320    7335       4    7320    7338       7    7317    7329       4
    7317    7332       4    7314    7329       8    7311    7326       4    7308
    7320       4    7305    7317       9    7302    7305      10    7302    7311
      11    7302    7314      12    7299    7308       4    7299    7311       4
    7296    7299      13    7296    7302      14    7296    7305      15    7653
    7665       2    7650    7653       2    7632    7650       2    7614    7632
       2    7608    7623       4    7602    7623       4    7593    7614       2
    7590    7608       4    7587    7602       4    7578    7593       2    7575
    7587       5    7575    7590       5    7566    7578       2    7557    7575
       6    7548    7566       2    7539    7557       5    7536    7557       5
    7530    7548       2    7524    7539       4    7521    7536       4    7518
    7527       4    7512    7527       4    7512    7530       7    7509    7521
       4    7509    7524       4    7506    7521       8    7503    7518       4
    7500    7512       4    7497    7509       9    7494    7497      10    7494
    7503      11    7494    7506      12    7491    7500       4    7491    7503
       4    7488    7491      13    7488    7494      14    7488    7497      15
    7845    7857       2    7842    7845       2    7824    7842       2    7806
    7824       2    7800    7815       4    7794    7815       4    7785    7806
       2    7782    7800       4    7779    7794       4    7770    7785       2
    7767    7779       5    7767    7782       5    7758    7770       2    7749
    7767       6    7740    7758       2    7731    7749       5    7728    7749
       5    7722    7740       2    7716    7731       4    7713    7728       4
    7710    7719       4    7704    7719       4    7704    7722       7    7701
    7713       4    7701    7716       4    7698    7713       8    7695    7710
       4    7692    7704       4    7689    7701       9    7686    7689      10
    7686    7695      11    7686    7698      12    7683    7692       4    7683
    7695       4    7680    7683      13    7680    7686      14    7680    7689
      15    8037    8049       2    8034    8037       2    8016    8034       2
    7998    8016       2    7992    8007       4    7986    8007       4    7977
    7998       2    7974    7992       4    7971    7986       4    7962    7977
       2    7959    7971       5    7959    7974       5    7950    7962       2
    7941    7959       6    7932    7950       2    7923    7941       5    7920
    7941       5    7914    7932       2    7908    7923       4    7905    7920
       4    7902    7911       4    7896    7911       4    7896    7914       7
    7893    7905       4    7893    7908       4    7890    7905       8    7887
    7902       4    7884    7896       4    7881    7893       9    7878    7881
      10    7878    7887      11    7878    7890      12    7875    7884       4
    7875    7887       4    7872    7875      13    7872    7878      14    7872
    7881      15    8229    8241       2    8226    8229       2    8208    8226
       2    8190    8208       2    8184    8199       4    8178    8199       4
    8169    8190       2    8166    8184       4    8163    8178       4    8154
    8169       2    8151    8163       5    8151    8166       5    8142    8154
       2    8133    8151       6    8124    8142       2    8115    8133       5
    8112    8133       5    8106    8124       2    8100    8115       4    8097
    8112       4    8094    8103       4    8088    8103       4    8088    8106
       7    8085    8097       4    8085    8100       4    8082    8097       8
    8079    8094       4    8076    8088       4    8073    8085       9    8070
    8073      10    8070    8079      11    8070    8082      12    8067    8076
       4    8067    8079       4    8064    8067      13    8064    8070      14
    8064    8073      15    8421    8433       2    8418    8421       2    8400
    8418       2    8382    8400       2    8376    8391       4    8370    8391
       4    8361    8382       2    8358    8376       4    8355    8370       4
    8346    8361       2    8343    8355       5    8343    8358       5    8334
    8346       2    8325    8343       6    8316    8334       2    8307    8325
       5    8304    8325       5    8298    8316       2    8292    8307       4
    8289    8304       4    8286    8295       4    8280    8295       4    8280
    8298       7    8277    8289       4    8277    8292       4    8274    8289
       8    8271    8286       4    8268    8280       4    8265    8277       9
    8262    8265      10    8262    8271      11    8262    8274      12    8259
    8268       4    8259    8271       4    8256    8259      13    8256    8262
      14    8256    8265      15    8613    8625       2    8610    8613       2
    8592    8610       2    8574    8592       2    8568    8583       4    8562
    8583       4    8553    8574       2    8550    8568       4    8547    8562
       4    8538    8553       2    8535    8547       5    8535    8550       5
    8526    8538       2    8517    8535       6    8508    8526       2    8499
    8517       5    8496    8517       5    8490    8508       2    8484    8499
       4    8481    8496       4    8478    8487       4    8472    8487       4
    8472    8490       7    8469    8481       4    8469    8484       4    8466
    8481       8    8463    8478       4    8460    8472       4    8457    8469
       9    8454    8457      10    8454    8463      11    8454    8466      12
    8451    8460       4    8451    8463       4    8448    8451      13    8448
    8454      14    8448    8457      15    8805    8817       2    8802    8805
       2    8784    8802       2    8766    8784       2    8760    8775       4
    8754    8775       4    8745    8766       2    8742    8760       4    8739
    8754       4    8730    8745       2    8727    8739       5    8727    8742
       5    8718    8730       2    8709    8727       6    8700    8718       2
    8691    8709       5    8688    8709       5    8682    8700       2    8676
    8691       4    8673    8688       4    8670    8679       4    8664    8679
       4    8664    8682       7    8661    8673       4    8661    8676       4
    8658    8673       8    8655    8670       4    8652    8664       4    8649
    8661       9    8646    8649      10    8646    8655      11    8646    8658
      12    8643    8652       4    8643    8655       4    8640    8643      13
    8640    8646      14    8640    8649      15    8997    9009       2    8994
    8997       2    8976    8994       2    8958    8976       2    8952    8967
       4    8946    8967       4    8937    8958       2    8934    8952       4
    8931    8946       4    8922    8937       2    8919    8931       5    8919
    8934       5    8910    8922       2    8901    8919       6    8892    8910
       2    8883    8901       5    8880    8901       5    8874    8892       2
    8868    8883       4    8865    8880       4    8862    8871       4    8856
    8871       4    8856    8874       7    8853    8865       4    8853    8868
       4    8850    8865       8    8847    8862       4    8844    8856       4
    8841    8853       9    8838    8841      10    8838    8847      11    8838
    8850      12    8835    8844       4    8835    8847       4    8832    8835
      13    8832    8838      14    8832    8841      15    9189    9201       2
    9186    9189       2    9168    9186       2    9150    9168       2    9144
    9159       4    9138    9159       4    9129    9150       2    9126    9144
       4    9123    9138       4    9114    9129       2    9111    9123       5
    9111    9126       5    9102    9114       2    9093    9111       6    9084
    9102       2    9075    9093       5    9072    9093       5    9066    9084
       2    9060    9075       4    9057    9072       4    9054    9063       4
    9048    9063       4    9048    9066       7    9045    9057       4    9045
    9060       4    9042    9057       8    9039    9054       4    9036    9048
       4    9033    9045       9    9030    9033      10    9030    9039      11
    9030    9042      12    9027    9036       4    9027    9039       4    9024
    9027      13    9024    9030      14    9024    9033      15    9381    9393
       2    9378    9381       2    9360    9378       2    9342    9360       2
    9336    9351       4    9330    9351       4    9321    9342       2    9318
    9336       4    9315    9330       4    9306    9321       2    9303    9315
       5    9303    9318       5    9294    9306       2    9285    9303       6
    9276    9294       2    9267    9285       5    9264    9285       5    9258
    9276       2    9252    9267       4    9249    9264       4    9246    9255
       4    9240    9255       4    9240    9258       7    9237    9249       4
    9237    9252       4    9234    9249       8    9231    9246       4    9228
    9240       4    9225    9237       9    9222    9225      10    9222    9231
      11    9222    9234      12    9219    9228       4    9219    9231       4
    9216    9219      13    9216    9222      14    9216    9225      15    9573
    9585       2    9570    9573       2    9552    9570       2    9534    9552
       2    9528    9543       4    9522    9543       4    9513    9534       2
    9510    9528       4    9507    9522       4    9498    9513       2    9495
    9507       5    9495    9510       5    9486    9498       2    9477    9495
       6    9468    9486       2    9459    9477       5    9456    9477       5
    9450    9468       2    9444    9459       4    9441    9456       4    9438
    9447       4    9432    9447       4    9432    9450       7    9429    9441
       4    9429    9444       4    9426    9441       8    9423    9438       4
    9420    9432       4    9417    9429       9    9414    9417      10    9414
    9423      11    9414    9426      12    9411    9420       4    9411    9423
       4    9408    9411      13    9408    9414      14    9408    9417      15
    9765    9777       2    9762    9765       2    9744    9762       2    9726
    9744       2    9720    9735       4    9714    9735       4    9705    9726
       2    9702    9720       4    9699    9714       4    9690    9705       2
    9687    9699       5    9687    9702       5    9678    9690       2    9669
    9687       6    9660    9678       2    9651    9669       5    9648    9669
       5    9642    9660       2    9636    9651       4    9633    9648       4
    9630    9639       4    9624    9639       4    9624    9642       7    9621
    9633       4    9621    9636       4    9618    9633       8    9615    9630
       4    9612    9624       4    9609    9621       9    9606    9609      10
    9606    9615      11    9606    9618      12    9603    9612       4    9603
    9615       4    9600    9603      13    9600    9606      14    9600    9609
      15    9957    9969       2    9954    9957       2    9936    9954       2
    9918    9936       2    9912    9927       4    9906    9927       4    9897
    9918       2    9894    9912       4    9891    9906       4    9882    9897
       2    9879    9891       5    9879    9894       5    9870    9882       2
    9861    9879       6    9852    9870       2    9843    9861       5    9840
    9861       5    9834    9852       2    9828    9843       4    9825    9840
       4    9822    9831       4    9816    9831       4    9816    9834       7
    9813    9825       4    9813    9828       4    9810    9825       8    9807
    9822       4    9804    9816       4    9801    9813       9    9798    9801
      10    9798    9807      11    9798    9810      12    9795    9804       4
    9795    9807       4    9792    9795      13    9792    9798      14    9792
    9801      15   10149   10161       2   10146   10149       2   10128   10146
       2   10110   10128       2   10104   10119       4   10098   10119       4
   10089   10110       2   10086   10104       4   10083   10098       4   10074
   10089       2   10071   10083       5   10071   10086       5   10062   10074
       2   10053   10071       6   10044   10062       2   10035   10053       5
   10032   10053       5   10026   10044       2   10020   10035       4   10017
   10032       4   10014   10023       4   10008   10023       4   10008   10026
       7   10005   10017       4   10005   10020       4   10002   10017       8
    9999   10014       4    9996   10008       4    9993   10005       9    9990
    9993      10    9990    9999      11    9990   10002      12    9987    9996
       4    9987    9999       4    9984    9987      13    9984    9990      14
    9984    9993      15   10341   10353       2   10338   10341       2   10320
   10338       2   10302   10320       2   10296   10311       4   10290   10311
       4   10281   10302       2   10278   10296       4   10275   10290       4
   10266   10281       2   10263   10275       5   10263   10278       5   10254
   10266       2   10245   10263       6   10236   10254       2   10227   10245
       5   10224   10245       5   10218   10236       2   10212   10227       4
   10209   10224       4   10206   10215       4   10200   10215       4   10200
   10218       7   10197   10209       4   10197   10212       4   10194   10209
       8   10191   10206       4   10188   10200       4   10185   10197       9
   10182   10185      10   10182   10191      11   10182   10194      12   10179
   10188       4   10179   10191       4   10176   10179      13   10176   10182
      14   10176   10185      15   10533   10545       2   10530   10533       2
   10512   10530       2   10494   10512       2   10488   10503       4   10482
   10503       4   10473   10494       2   10470   10488       4   10467   10482
       4   10458   10473       2   10455   10467       5   10455   10470       5
   10446   10458       2   10437   10455       6   10428   10446       2   10419
   10437       5   10416   10437       5   10410   10428       2   10404   10419
       4   10401   10416       4   10398   10407       4   10392   10407       4
   10392   10410       7   10389   10401       4   10389   10404       4   10386
   10401       8   10383   10398       4   10380   10392       4   10377   10389
       9   10374   10377      10   10374   10383      11   10374   10386      12
   10371   10380       4   10371   10383       4   10368   10371      13   10368
   10374      14   10368   10377      15   10725   10737       2   10722   10725
       2   10704   10722       2   10686   10704       2   10680   10695       4
   10674   10695       4   10665   10686       2   10662   10680       4   10659
   10674       4   10650   10665       2   10647   10659       5   10647   10662
       5   10638   10650       2   10629   10647       6   10620   10638       2
   10611   10629       5   10608   10629       5   10602   10620       2   10596
   10611       4   10593   10608       4   10590   10599       4   10584   10599
       4   10584   10602       7   10581   10593       4   10581   10596       4
   10578   10593       8   10575   10590       4   10572   10584       4   10569
   10581       9   10566   10569      10   10566   10575      11   10566   10578
      12   10563   10572       4   10563   10575       4   10560   10563      13
   10560   10566      14   10560   10569      15   10917   10929       2   10914
   10917       2   10896   10914       2   10878   10896       2   10872   10887
       4   10866   10887       4   10857   10878       2   10854   10872       4
   10851   10866       4   10842   10857       2   10839   10851       5   10839
   10854       5   10830   10842       2   10821   10839       6   10812   10830
       2   10803   10821       5   10800   10821       5   10794   10812       2
   10788   10803       4   10785   10800       4   10782   10791       4   10776
   10791       4   10776   10794       7   10773   10785       4   10773   10788
       4   10770   10785       8   10767   10782       4   10764   10776       4
   10761   10773       9   10758   10761      10   10758   10767      11   10758
   10770      12   10755   10764       4   10755   10767       4   10752   10755
      13   10752   10758      14   10752   10761      15   11109   11121       2
   11106   11109       2   11088   11106       2   11070   11088       2   11064
   11079       4   11058   11079       4   11049   11070       2   11046   11064
       4   11043   11058       4   11034   11049       2   11031   11043       5
   11031   11046       5   11022   11034       2   11013   11031       6   11004
   11022       2   10995   11013       5   10992   11013       5   10986   11004
       2   10980   10995       4   10977   10992       4   10974   10983       4
   10968   10983       4   10968   10986       7   10965   10977       4   10965
   10980       4   10962   10977       8   10959   10974       4   10956   10968
       4   10953   10965       9   10950   10953      10   10950   10959      11
   10950   10962      12   10947   10956       4   10947   10959       4   10944
   10947      13   10944   10950      14   10944   10953      15   11301   11313
       2   11298   11301       2   11280   11298       2   11262   11280       2
   11256   11271       4   11250   11271       4   11241   11262       2   11238
   11256       4   11235   11250       4   11226   11241       2   11223   11235
       5   11223   11238       5   11214   11226       2   11205   11223       6
   11196   11214       2   11187   11205       5   11184   11205       5   11178
   11196       2   11172   11187       4   11169   11184       4   11166   11175
       4   11160   11175       4   11160   11178       7   11157   11169       4
   11157   11172       4   11154   11169       8   11151   11166       4   11148
   11160       4   11145   11157       9   11142   11145      10   11142   11151
      11   11142   11154      12   11139   11148       4   11139   11151       4
   11136   11139      13   11136   11142      14   11136   11145      15   11493
   11505       2   11490   11493       2   11472   11490       2   11454   11472
       2   11448   11463       4   11442   11463       4   11433   11454       2
   11430   11448       4   11427   11442       4   11418   11433       2   11415
   11427       5   11415   11430       5   11406   11418       2   11397   11415
       6   11388   11406       2   11379   11397       5   11376   11397       5
   11370   11388       2   11364   11379       4   11361   11376       4   11358
   11367       4   11352   11367       4   11352   11370       7   11349   11361
       4   11349   11364       4   11346   11361       8   11343   11358       4
   11340   11352       4   11337   11349       9   11334   11337      10   11334
   11343      11   11334   11346      12   11331   11340       4   11331   11343
       4   11328   11331      13   11328   11334      14   11328   11337      15
   11685   11697       2   11682   11685       2   11664   11682       2   11646
   11664       2   11640   11655       4   11634   11655       4   11625   11646
       2   11622   11640       4   11619   11634       4   11610   11625       2
   11607   11619       5   11607   11622       5   11598   11610       2   11589
   11607       6   11580   11598       2   11571   11589       5   11568   11589
       5   11562   11580       2   11556   11571       4   11553   11568       4
   11550   11559       4   11544   11559       4   11544   11562       7   11541
   11553       4   11541   11556       4   11538   11553       8   11535   11550
       4   11532   11544       4   11529   11541       9   11526   11529      10
   11526   11535      11   11526   11538      12   11523   11532       4   11523
   11535       4   11520   11523      13   11520   11526      14   11520   11529
      15   11877   11889       2   11874   11877       2   11856   11874       2
   11838   11856       2   11832   11847       4   11826   11847       4   11817
   11838       2   11814   11832       4   11811   11826       4   11802   11817
       2   11799   11811       5   11799   11814       5   11790   11802       2
   11781   11799       6   11772   11790       2   11763   11781       5   11760
   11781       5   11754   11772       2   11748   11763       4   11745   11760
       4   11742   11751       4   11736   11751       4   11736   11754       7
   11733   11745       4   11733   11748       4   11730   11745       8   11727
   11742       4   11724   11736       4   11721   11733       9   11718   11721
      10   11718   11727      11   11718   11730      12   11715   11724       4
   11715   11727       4   11712   11715      13   11712   11718      14   11712
   11721      15   12069   12081       2   12066   12069       2   12048   12066
       2   12030   12048       2   12024   12039       4   12018   12039       4
   12009   12030       2   12006   12024       4   12003   12018       4   11994
   12009       2   11991   12003       5   11991   12006       5   11982   11994
       2   11973   11991       6   11964   11982       2   11955   11973       5
   11952   11973       5   11946   11964       2   11940   11955       4   11937
   11952       4   11934   11943       4   11928   11943       4   11928   11946
       7   11925   11937       4   11925   11940       4   11922   11937       8
   11919   11934       4   11916   11928       4   11913   11925       9   11910
   11913      10   11910   11919      11   11910   11922      12   11907   11916
       4   11907   11919       4   11904   11907      13   11904   11910      14
   11904   11913      15   12261   12273       2   12258   12261       2   12240
   12258       2   12222   12240       2   12216   12231       4   12210   12231
       4   12201   12222       2   12198   12216       4   12195   12210       4
   12186   12201       2   12183   12195       5   12183   12198       5   12174
   12186       2   12165   12183       6   12156   12174       2   12147   12165
       5   12144   12165       5   12138   12156       2   12132   12147       4
   12129   12144       4   12126   12135       4   12120   12135       4   12120
   12138       7   12117   12129       4   12117   12132       4   12114   12129
       8   12111   12126       4   12108   12120       4   12105   12117       9
   12102   12105      10   12102   12111      11   12102   12114      12   12099
   12108       4   12099   12111       4   12096   12099      13   12096   12102
      14   12096   12105      15   12453   12465       2   12450   12453       2
   12432   12450       2   12414   12432       2   12408   12423       4   12402
   12423       4   12393   12414       2   12390   12408       4   12387   12402
       4   12378   12393       2   12375   12387       5   12375   12390       5
   12366   12378       2   12357   12375       6   12348   12366       2   12339
   12357       5   12336   12357       5   12330   12348       2   12324   12339
       4   12321   12336       4   12318   12327       4   12312   12327       4
   12312   12330       7   12309   12321       4   12309   12324       4   12306
   12321       8   12303   12318       4   12300   12312       4   12297   12309
       9   12294   12297      10   12294   12303      11   12294   12306      12
   12291   12300       4   12291   12303       4   12288   12291      13   12288
   12294      14   12288   12297      15   12645   12657       2   12642   12645
       2   12624   12642       2   12606   12624       2   12600   12615       4
   12594   12615       4   12585   12606       2   12582   12600       4   12579
   12594       4   12570   12585       2   12567   12579       5   12567   12582
       5   12558   12570       2   12549   12567       6   12540   12558       2
   12531   12549       5   12528   12549       5   12522   12540       2   12516
   12531       4   12513   12528       4   12510   12519       4   12504   12519
       4   12504   12522       7   12501   12513       4   12501   12516       4
   12498   12513       8   12495   12510       4   12492   12504       4   12489
   12501       9   12486   12489      10   12486   12495      11   12486   12498
      12   12483   12492       4   12483   12495       4   12480   12483      13
   12480   12486      14   12480   12489      15   12837   12849       2   12834
   12837       2   12816   12834       2   12798   12816       2   12792   12807
       4   12786   12807       4   12777   12798       2   12774   12792       4
   12771   12786       4   12762   12777       2   12759   12771       5   12759
   12774       5   12750   12762       2   12741   12759       6   12732   12750
       2   12723   12741       5   12720   12741       5   12714   12732       2
   12708   12723       4   12705   12720       4   12702   12711       4   12696
   12711       4   12696   12714       7   12693   12705       4   12693   12708
       4   12690   12705       8   12687   12702       4   12684   12696       4
   12681   12693       9   12678   12681      10   12678   12687      11   12678
   12690      12   12675   12684       4   12675   12687       4   12672   12675
      13   12672   12678      14   12672   12681      15   13029   13041       2
   13026   13029       2   13008   13026       2   12990   13008       2   12984
   12999       4   12978   12999       4   12969   12990       2   12966   12984
       4   12963   12978       4   12954   12969       2   12951   12963       5
   12951   12966       5   12942   12954       2   12933   12951       6   12924
   12942       2   12915   12933       5   12912   12933       5   12906   12924
       2   12900   12915       4   12897   12912       4   12894   12903       4
   12888   12903       4   12888   12906       7   12885   12897       4   12885
   12900       4   12882   12897       8   12879   12894       4   12876   12888
       4   12873   12885       9   12870   12873      10   12870   12879      11
   12870   12882      12   12867   12876       4   12867   12879       4   12864
   12867      13   12864   12870      14   12864   12873      15   13221   13233
       2   13218   13221       2   13200   13218       2   13182   13200       2
   13176   13191       4   13170   13191       4   13161   13182       2   13158
   13176       4   13155   13170       4   13146   13161       2   13143   13155
       5   13143   13158       5   13134   13146       2   13125   13143       6
   13116   13134       2   13107   13125       5   13104   13125       5   13098
   13116       2   13092   13107       4   13089   13104       4   13086   13095
       4   13080   13095       4   13080   13098       7   13077   13089       4
   13077   13092       4   13074   13089       8   13071   13086       4   13068
   13080       4   13065   13077       9   13062   13065      10   13062   13071
      11   13062   13074      12   13059   13068       4   13059   13071       4
   13056   13059      13   13056   13062      14   13056   13065      15   13413
   13425       2   13410   13413       2   13392   13410       2   13374   13392
       2   13368   13383       4   13362   13383       4   13353   13374       2
   13350   13368       4   13347   13362       4   13338   13353       2   13335
   13347       5   13335   13350       5   13326   13338       2   13317   13335
       6   13308   13326       2   13299   13317       5   13296   13317       5
   13290   13308       2   13284   13299       4   13281   13296       4   13278
   13287       4   13272   13287       4   13272   13290       7   13269   13281
       4   13269   13284       4   13266   13281       8   13263   13278       4
   13260   13272       4   13257   13269       9   13254   13257      10   13254
   13263      11   13254   13266      12   13251   13260       4   13251   13263
       4   13248   13251      13   13248   13254      14   13248   13257      15
   13605   13617       2   13602   13605       2   13584   13602       2   13566
   13584       2   13560   13575       4   13554   13575       4   13545   13566
       2   13542   13560       4   13539   13554       4   13530   13545       2
   13527   13539       5   13527   13542       5   13518   13530       2   13509
   13527       6   13500   13518       2   13491   13509       5   13488   13509
       5   13482   13500       2   13476   13491       4   13473   13488       4
   13470   13479       4   13464   13479       4   13464   13482       7   13461
   13473       4   13461   13476       4   13458   13473       8   13455   13470
       4   13452   13464       4   13449   13461       9   13446   13449      10
   13446   13455      11   13446   13458      12   13443   13452       4   13443
   13455       4   13440   13443      13   13440   13446      14   13440   13449
      15   13797   13809       2   13794   13797       2   13776   13794       2
   13758   13776       2   13752   13767       4   13746   13767       4   13737
   13758       2   13734   13752       4   13731   13746       4   13722   13737
       2   13719   13731       5   13719   13734       5   13710   13722       2
   13701   13719       6   13692   13710       2   13683   13701       5   13680
   13701       5   13674   13692       2   13668   13683       4   13665   13680
       4   13662   13671       4   13656   13671       4   13656   13674       7
   13653   13665       4   13653   13668       4   13650   13665       8   13647
   13662       4   13644   13656       4   13641   13653       9   13638   13641
      10   13638   13647      11   13638   13650      12   13635   13644       4
   13635   13647       4   13632   13635      13   13632   13638      14   13632
   13641      15   13989   14001       2   13986   13989       2   13968   13986
       2   13950   13968       2   13944   13959       4   13938   13959       4
   13929   13950       2   13926   13944       4   13923   13938       4   13914
   13929       2   13911   13923       5   13911   13926       5   13902   13914
       2   13893   13911       6   13884   13902       2   13875   13893       5
   13872   13893       5   13866   13884       2   13860   13875       4   13857
   13872       4   13854   13863       4   13848   13863       4   13848   13866
       7   13845   13857       4   13845   13860       4   13842   13857       8
   13839   13854       4   13836   13848       4   13833   13845       9   13830
   13833      10   13830   13839      11   13830   13842      12   13827   13836
       4   13827   13839       4   13824   13827      13   13824   13830      14
   13824   13833      15   14181   14193       2   14178   14181       2   14160
   14178       2   14142   14160       2   14136   14151       4   14130   14151
       4   14121   14142       2   14118   14136       4   14115   14130       4
   14106   14121       2   14103   14115       5   14103   14118       5   14094
   14106       2   14085   14103       6   14076   14094       2   14067   14085
       5   14064   14085       5   14058   14076       2   14052   14067       4
   14049   14064       4   14046   14055       4   14040   14055       4   14040
   14058       7   14037   14049       4   14037   14052       4   14034   14049
       8   14031   14046       4   14028   14040       4   14025   14037       9
   14022   14025      10   14022   14031      11   14022   14034      12   14019
   14028       4   14019   14031       4   14016   14019      13   14016   14022
      14   14016   14025      15   14373   14385       2   14370   14373       2
   14352   14370       2   14334   14352       2   14328   14343       4   14322
   14343       4   14313   14334       2   14310   14328       4   14307   14322
       4   14298   14313       2   14295   14307       5   14295   14310       5
   14286   14298       2   14277   14295       6   14268   14286       2   14259
   14277       5   14256   14277       5   14250   14268       2   14244   14259
       4   14241   14256       4   14238   14247       4   14232   14247       4
   14232   14250       7   14229   14241       4   14229   14244       4   14226
   14241       8   14223   14238       4   14220   14232       4   14217   14229
       9   14214   14217      10   14214   14223      11   14214   14226      12
   14211   14220       4   14211   14223       4   14208   14211      13   14208
   14214      14   14208   14217      15   14565   14577       2   14562   14565
       2   14544   14562       2   14526   14544       2   14520   14535       4
   14514   14535       4   14505   14526       2   14502   14520       4   14499
   14514       4   14490   14505       2   14487   14499       5   14487   14502
       5   14478   14490       2   14469   14487       6   14460   14478       2
   14451   14469       5   14448   14469       5   14442   14460       2   14436
   14451       4   14433   14448       4   14430   14439       4   14424   14439
       4   14424   14442       7   14421   14433       4   14421   14436       4
   14418   14433       8   14415   14430       4   14412   14424       4   14409
   14421       9   14406   14409      10   14406   14415      11   14406   14418
      12   14403   14412       4   14403   14415       4   14400   14403      13
   14400   14406      14   14400   14409      15   14757   14769       2   14754
   14757       2   14736   14754       2   14718   14736       2   14712   14727
       4   14706   14727       4   14697   14718       2   14694   14712       4
   14691   14706       4   14682   14697       2   14679   14691       5   14679
   14694       5   14670   14682       2   14661   14679       6   14652   14670
       2   14643   14661       5   14640   14661       5   14634   14652       2
   14628   14643       4   14625   14640       4   14622   14631       4   14616
   14631       4   14616   14634       7   14613   14625       4   14613   14628
       4   14610   14625       8   14607   14622       4   14604   14616       4
   14601   14613       9   14598   14601      10   14598   14607      11   14598
   14610      12   14595   14604       4   14595   14607       4   14592   14595
      13   14592   14598      14   14592   14601      15   14949   14961       2
   14946   14949       2   14928   14946       2   14910   14928       2   14904
   14919       4   14898   14919       4   14889   14910       2   14886   14904
       4   14883   14898       4   14874   14889       2   14871   14883       5
   14871   14886       5   14862   14874       2   14853   14871       6   14844
   14862       2   14835   14853       5   14832   14853       5   14826   14844
       2   14820   14835       4   14817   14832       4   14814   14823       4
   14808   14823       4   14808   14826       7   14805   14817       4   14805
   14820       4   14802   14817       8   14799   14814       4   14796   14808
       4   14793   14805       9   14790   14793      10   14790   14799      11
   14790   14802      12   14787   14796       4   14787   14799       4   14784
   14787      13   14784   14790      14   14784   14793      15   15141   15153
       2   15138   15141       2   15120   15138       2   15102   15120       2
   15096   15111       4   15090   15111       4   15081   15102       2   15078
   15096       4   15075   15090       4   15066   15081       2   15063   15075
       5   15063   15078       5   15054   15066       2   15045   15063       6
   15036   15054       2   15027   15045       5   15024   15045       5   15018
   15036       2   15012   15027       4   15009   15024       4   15006   15015
       4   15000   15015       4   15000   15018       7   14997   15009       4
   14997   15012       4   14994   15009       8   14991   15006       4   14988
   15000       4   14985   14997       9   14982   14985      10   14982   14991
      11   14982   14994      12   14979   14988       4   14979   14991       4
   14976   14979      13   14976   14982      14   14976   14985      15   15333
   15345       2   15330   15333       2   15312   15330       2   15294   15312
       2   15288   15303       4   15282   15303       4   15273   15294       2
   15270   15288       4   15267   15282       4   15258   15273       2   15255
   15267       5   15255   15270       5   15246   15258       2   15237   15255
       6   15228   15246       2   15219   15237       5   15216   15237       5
   15210   15228       2   15204   15219       4   15201   15216       4   15198
   15207       4   15192   15207       4   15192   15210       7   15189   15201
       4   15189   15204       4   15186   15201       8   15183   15198       4
   15180   15192       4   15177   15189       9   15174   15177      10   15174
   15183      11   15174   15186      12   15171   15180       4   15171   15183
       4   15168   15171      13   15168   15174      14   15168   15177      15
   15525   15537       2   15522   15525       2   15504   15522       2   15486
   15504       2   15480   15495       4   15474   15495       4   15465   15486
       2   15462   15480       4   15459   15474       4   15450   15465       2
   15447   15459       5   15447   15462       5   15438   15450       2   15429
   15447       6   15420   15438       2   15411   15429       5   15408   15429
       5   15402   15420       2   15396   15411       4   15393   15408       4
   15390   15399       4   15384   15399       4   15384   15402       7   15381
   15393       4   15381   15396       4   15378   15393       8   15375   15390
       4   15372   15384       4   15369   15381       9   15366   15369      10
   15366   15375      11   15366   15378      12   15363   15372       4   15363
   15375       4   15360   15363      13   15360   15366      14   15360   15369
      15   15717   15729       2   15714   15717       2   15696   15714       2
   15678   15696       2   15672   15687       4   15666   15687       4   15657
   15678       2   15654   15672       4   15651   15666       4   15642   15657
       2   15639   15651       5   15639   15654       5   15630   15642       2
   15621   15639       6   15612   15630       2   15603   15621       5   15600
   15621       5   15594   15612       2   15588   15603       4   15585   15600
       4   15582   15591       4   15576   15591       4   15576   15594       7
   15573   15585       4   15573   15588       4   15570   15585       8   15567
   15582       4   15564   15576       4   15561   15573       9   15558   15561
      10   15558   15567      11   15558   15570      12   15555   15564       4
   15555   15567       4   15552   15555      13   15552   15558      14   15552
   15561      15   15909   15921       2   15906   15909       2   15888   15906
       2   15870   15888       2   15864   15879       4   15858   15879       4
   15849   15870       2   15846   15864       4   15843   15858       4   15834
   15849       2   15831   15843       5   15831   15846       5   15822   15834
       2   15813   15831       6   15804   15822       2   15795   15813       5
   15792   15813       5   15786   15804       2   15780   15795       4   15777
   15792       4   15774   15783       4   15768   15783       4   15768   15786
       7   15765   15777       4   15765   15780       4   15762   15777       8
   15759   15774       4   15756   15768       4   15753   15765       9   15750
   15753      10   15750   15759      11   15750   15762      12   15747   15756
       4   15747   15759       4   15744   15747      13   15744   15750      14
   15744   15753      15   16101   16113       2   16098   16101       2   16080
   16098       2   16062   16080       2   16056   16071       4   16050   16071
       4   16041   16062       2   16038   16056       4   16035   16050       4
   16026   16041       2   16023   16035       5   16023   16038       5   16014
   16026       2   16005   16023       6   15996   16014       2   15987   16005
       5   15984   16005       5   15978   15996       2   15972   15987       4
   15969   15984       4   15966   15975       4   15960   15975       4   15960
   15978       7   15957   15969       4   15957   15972       4   15954   15969
       8   15951   15966       4   15948   15960       4   15945   15957       9
   15942   15945      10   15942   15951      11   15942   15954      12   15939
   15948       4   15939   15951       4   15936   15939      13   15936   15942
      14   15936   15945      15   16293   16305       2   16290   16293       2
   16272   16290       2   16254   16272       2   16248   16263       4   16242
   16263       4   16233   16254       2   16230   16248       4   16227   16242
       4   16218   16233       2   16215   16227       5   16215   16230       5
   16206   16218       2   16197   16215       6   16188   16206       2   16179
   16197       5   16176   16197       5   16170   16188       2   16164   16179
       4   16161   16176       4   16158   16167       4   16152   16167       4
   16152   16170       7   16149   16161       4   16149   16164       4   16146
   16161       8   16143   16158       4   16140   16152       4   16137   16149
       9   16134   16137      10   16134   16143      11   16134   16146      12
   16131   16140       4   16131   16143       4   16128   16131      13   16128
   16134      14   16128   16137      15   16485   16497       2   16482   16485
       2   16464   16482       2   16446   16464       2   16440   16455       4
   16434   16455       4   16425   16446       2   16422   16440       4   16419
   16434       4   16410   16425       2   16407   16419       5   16407   16422
       5   16398   16410       2   16389   16407       6   16380   16398       2
   16371   16389       5   16368   16389       5   16362   16380       2   16356
   16371       4   16353   16368       4   16350   16359       4   16344   16359
       4   16344   16362       7   16341   16353       4   16341   16356       4
   16338   16353       8   16335   16350       4   16332   16344       4   16329
   16341       9   16326   16329      10   16326   16335      11   16326   16338
      12   16323   16332       4   16323   16335       4   16320   16323      13
   16320   16326      14   16320   16329      15   16677   16689       2   16674
   16677       2   16656   16674       2   16638   16656       2   16632   16647
       4   16626   16647       4   16617   16638       2   16614   16632       4
   16611   16626       4   16602   16617       2   16599   16611       5   16599
   16614       5   16590   16602       2   16581   16599       6   16572   16590
       2   16563   16581       5   16560   16581       5   16554   16572       2
   16548   16563       4   16545   16560       4   16542   16551       4   16536
   16551       4   16536   16554       7   16533   16545       4   16533   16548
       4   16530   16545       8   16527   16542       4   16524   16536       4
   16521   16533       9   16518   16521      10   16518   16527      11   16518
   16530      12   16515   16524       4   16515   16527       4   16512   16515
      13   16512   16518      14   16512   16521      15   16869   16881       2
   16866   16869       2   16848   16866       2   16830   16848       2   16824
   16839       4   16818   16839       4   16809   16830       2   16806   16824
       4   16803   16818       4   16794   16809       2   16791   16803       5
   16791   16806       5   16782   16794       2   16773   16791       6   16764
   16782       2   16755   16773       5   16752   16773       5   16746   16764
       2   16740   16755       4   16737   16752       4   16734   16743       4
   16728   16743       4   16728   16746       7   16725   16737       4   16725
   16740       4   16722   16737       8   16719   16734       4   16716   16728
       4   16713   16725       9   16710   16713      10   16710   16719      11
   16710   16722      12   16707   16716       4   16707   16719       4   16704
   16707      13   16704   16710      14   16704   16713      15   17061   17073
       2   17058   17061       2   17040   17058       2   17022   17040       2
   17016   17031       4   17010   17031       4   17001   17022       2   16998
   17016       4   16995   17010       4   16986   17001       2   16983   16995
       5   16983   16998       5   16974   16986       2   16965   16983       6
   16956   16974       2   16947   16965       5   16944   16965       5   16938
   16956       2   16932   16947       4   16929   16944       4   16926   16935
       4   16920   16935       4   16920   16938       7   16917   16929       4
   16917   16932       4   16914   16929       8   16911   16926       4   16908
   16920       4   16905   16917       9   16902   16905      10   16902   16911
      11   16902   16914      12   16899   16908       4   16899   16911       4
   16896   16899      13   16896   16902      14   16896   16905      15   17253
   17265       2   17250   17253       2   17232   17250       2   17214   17232
       2   17208   17223       4   17202   17223       4   17193   17214       2
   17190   17208       4   17187   17202       4   17178   17193       2   17175
   17187       5   17175   17190       5   17166   17178       2   17157   17175
       6   17148   17166       2   17139   17157       5   17136   17157       5
   17130   17148       2   17124   17139       4   17121   17136       4   17118
   17127       4   17112   17127       4   17112   17130       7   17109   17121
       4   17109   17124       4   17106   17121       8   17103   17118       4
   17100   17112       4   17097   17109       9   17094   17097      10   17094
   17103      11   17094   17106      12   17091   17100       4   17091   17103
       4   17088   17091      13   17088   17094      14   17088   17097      15
   17445   17457       2   17442   17445       2   17424   17442       2   17406
   17424       2   17400   17415       4   17394   17415       4   17385   17406
       2   17382   17400       4   17379   17394       4   17370   17385       2
   17367   17379       5   17367   17382       5   17358   17370       2   17349
   17367       6   17340   17358       2   17331   17349       5   17328   17349
       5   17322   17340       2   17316   17331       4   17313   17328       4
   17310   17319       4   17304   17319       4   17304   17322       7   17301
   17313       4   17301   17316       4   17298   17313       8   17295   17310
       4   17292   17304       4   17289   17301       9   17286   17289      10
   17286   17295      11   17286   17298      12   17283   17292       4   17283
   17295       4   17280   17283      13   17280   17286      14   17280   17289
      15   17637   17649       2   17634   17637       2   17616   17634       2
   17598   17616       2   17592   17607       4   17586   17607       4   17577
   17598       2   17574   17592       4   17571   17586       4   17562   17577
       2   17559   17571       5   17559   17574       5   17550   17562       2
   17541   17559       6   17532   17550       2   17523   17541       5   17520
   17541       5   17514   17532       2   17508   17523       4   17505   17520
       4   17502   17511       4   17496   17511       4   17496   17514       7
   17493   17505       4   17493   17508       4   17490   17505       8   17487
   17502       4   17484   17496       4   17481   17493       9   17478   17481
      10   17478   17487      11   17478   17490      12   17475   17484       4
   17475   17487       4   17472   17475      13   17472   17478      14   17472
   17481      15   17829   17841       2   17826   17829       2   17808   17826
       2   17790   17808       2   17784   17799       4   17778   17799       4
   17769   17790       2   17766   17784       4   17763   17778       4   17754
   17769       2   17751   17763       5   17751   17766       5   17742   17754
       2   17733   17751       6   17724   17742       2   17715   17733       5
   17712   17733       5   17706   17724       2   17700   17715       4   17697
   17712       4   17694   17703       4   17688   17703       4   17688   17706
       7   17685   17697       4   17685   17700       4   17682   17697       8
   17679   17694       4   17676   17688       4   17673   17685       9   17670
   17673      10   17670   17679      11   17670   17682      12   17667   17676
       4   17667   17679       4   17664   17667      13   17664   17670      14
   17664   17673      15   18021   18033       2   18018   18021       2   18000
   18018       2   17982   18000       2   17976   17991       4   17970   17991
       4   17961   17982       2   17958   17976       4   17955   17970       4
   17946   17961       2   17943   17955       5   17943   17958       5   17934
   17946       2   17925   17943       6   17916   17934       2   17907   17925
       5   17904   17925       5   17898   17916       2   17892   17907       4
   17889   17904       4   17886   17895       4   17880   17895       4   17880
   17898       7   17877   17889       4   17877   17892       4   17874   17889
       8   17871   17886       4   17868   17880       4   17865   17877       9
   17862   17865      10   17862   17871      11   17862   17874      12   17859
   17868       4   17859   17871       4   17856   17859      13   17856   17862
      14   17856   17865      15   18213   18225       2   18210   18213       2
   18192   18210       2   18174   18192       2   18168   18183       4   18162
   18183       4   18153   18174       2   18150   18168       4   18147   18162
       4   18138   18153       2   18135   18147       5   18135   18150       5
   18126   18138       2   18117   18135       6   18108   18126       2   18099
   18117       5   18096   18117       5   18090   18108       2   18084   18099
       4   18081   18096       4   18078   18087       4   18072   18087       4
   18072   18090       7   18069   18081       4   18069   18084       4   18066
   18081       8   18063   18078       4   18060   18072       4   18057   18069
       9   18054   18057      10   18054   18063      11   18054   18066      12
   18051   18060       4   18051   18063       4   18048   18051      13   18048
   18054      14   18048   18057      15   18405   18417       2   18402   18405
       2   18384   18402       2   18366   18384       2   18360   18375       4
   18354   18375       4   18345   18366       2   18342   18360       4   18339
   18354       4   18330   18345       2   18327   18339       5   18327   18342
       5   18318   18330       2   18309   18327       6   18300   18318       2
   18291   18309       5   18288   18309       5   18282   18300       2   18276
   18291       4   18273   18288       4   18270   18279       4   18264   18279
       4   18264   18282       7   18261   18273       4   18261   18276       4
   18258   18273       8   18255   18270       4   18252   18264       4   18249
   18261       9   18246   18249      10   18246   18255      11   18246   18258
      12   18243   18252       4   18243   18255       4   18240   18243      13
   18240   18246      14   18240   18249      15   18597   18609       2   18594
   18597       2   18576   18594       2   18558   18576       2   18552   18567
       4   18546   18567       4   18537   18558       2   18534   18552       4
   18531   18546       4   18522   18537       2   18519   18531       5   18519
   18534       5   18510   18522       2   18501   18519       6   18492   18510
       2   18483   18501       5   18480   18501       5   18474   18492       2
   18468   18483       4   18465   18480       4   18462   18471       4   18456
   18471       4   18456   18474       7   18453   18465       4   18453   18468
       4   18450   18465       8   18447   18462       4   18444   18456       4
   18441   18453       9   18438   18441      10   18438   18447      11   18438
   18450      12   18435   18444       4   18435   18447       4   18432   18435
      13   18432   18438      14   18432   18441      15   18789   18801       2
   18786   18789       2   18768   18786       2   18750   18768       2   18744
   18759       4   18738   18759       4   18729   18750       2   18726   18744
       4   18723   18738       4   18714   18729       2   18711   18723       5
   18711   18726       5   18702   18714       2   18693   18711       6   18684
   18702       2   18675   18693       5   18672   18693       5   18666   18684
       2   18660   18675       4   18657   18672       4   18654   18663       4
   18648   18663       4   18648   18666       7   18645   18657       4   18645
   18660       4   18642   18657       8   18639   18654       4   18636   18648
       4   18633   18645       9   18630   18633      10   18630   18639      11
   18630   18642      12   18627   18636       4   18627   18639       4   18624
   18627      13   18624   18630      14   18624   18633      15   18981   18993
       2   18978   18981       2   18960   18978       2   18942   18960       2
   18936   18951       4   18930   18951       4   18921   18942       2   18918
   18936       4   18915   18930       4   18906   18921       2   18903   18915
       5   18903   18918       5   18894   18906       2   18885   18903       6
   18876   18894       2   18867   18885       5   18864   18885       5   18858
   18876       2   18852   18867       4   18849   18864       4   18846   18855
       4   18840   18855       4   18840   18858       7   18837   18849       4
   18837   18852       4   18834   18849       8   18831   18846       4   18828
   18840       4   18825   18837       9   18822   18825      10   18822   18831
      11   18822   18834      12   18819   18828       4   18819   18831       4
   18816   18819      13   18816   18822      14   18816   18825      15   19173
   19185       2   19170   19173       2   19152   19170       2   19134   19152
       2   19128   19143       4   19122   19143       4   19113   19134       2
   19110   19128       4   19107   19122       4   19098   19113       2   19095
   19107       5   19095   19110       5   19086   19098       2   19077   19095
       6   19068   19086       2   19059   19077       5   19056   19077       5
   19050   19068       2   19044   19059       4   19041   19056       4   19038
   19047       4   19032   19047       4   19032   19050       7   19029   19041
       4   19029   19044       4   19026   19041       8   19023   19038       4
   19020   19032       4   19017   19029       9   19014   19017      10   19014
   19023      11   19014   19026      12   19011   19020       4   19011   19023
       4   19008   19011      13   19008   19014      14   19008   19017      15
   19365   19377       2   19362   19365       2   19344   19362       2   19326
   19344       2   19320   19335       4   19314   19335       4   19305   19326
       2   19302   19320       4   19299   19314       4   19290   19305       2
   19287   19299       5   19287   19302       5   19278   19290       2   19269
   19287       6   19260   19278       2   19251   19269       5   19248   19269
       5   19242   19260       2   19236   19251       4   19233   19248       4
   19230   19239       4   19224   19239       4   19224   19242       7   19221
   19233       4   19221   19236       4   19218   19233       8   19215   19230
       4   19212   19224       4   19209   19221       9   19206   19209      10
   19206   19215      11   19206   19218      12   19203   19212       4   19203
   19215       4   19200   19203      13   19200   19206      14   19200   19209
      15   19557   19569       2   19554   19557       2   19536   19554       2
   19518   19536       2   19512   19527       4   19506   19527       4   19497
   19518       2   19494   19512       4   19491   19506       4   19482   19497
       2   19479   19491       5   19479   19494       5   19470   19482       2
   19461   19479       6   19452   19470       2   19443   19461       5   19440
   19461       5   19434   19452       2   19428   19443       4   19425   19440
       4   19422   19431       4   19416   19431       4   19416   19434       7
   19413   19425       4   19413   19428       4   19410   19425       8   19407
   19422       4   19404   19416       4   19401   19413       9   19398   19401
      10   19398   19407      11   19398   19410      12   19395   19404       4
   19395   19407       4   19392   19395      13   19392   19398      14   19392
   19401      15   19749   19761       2   19746   19749       2   19728   19746
       2   19710   19728       2   19704   19719       4   19698   19719       4
   19689   19710       2   19686   19704       4   19683   19698       4   19674
   19689       2   19671   19683       5   19671   19686       5   19662   19674
       2   19653   19671       6   19644   19662       2   19635   19653       5
   19632   19653       5   19626   19644       2   19620   19635       4   19617
   19632       4   19614   19623       4   19608   19623       4   19608   19626
       7   19605   19617       4   19605   19620       4   19602   19617       8
   19599   19614       4   19596   19608       4   19593   19605       9   19590
   19593      10   19590   19599      11   19590   19602      12   19587   19596
       4   19587   19599       4   19584   19587      13   19584   19590      14
   19584   19593      15   19941   19953       2   19938   19941       2   19920
   19938       2   19902   19920       2   19896   19911       4   19890   19911
       4   19881   19902       2   19878   19896       4   19875   19890       4
   19866   19881       2   19863   19875       5   19863   19878       5   19854
   19866       2   19845   19863       6   19836   19854       2   19827   19845
       5   19824   19845       5   19818   19836       2   19812   19827       4
   19809   19824       4   19806   19815       4   19800   19815       4   19800
   19818       7   19797   19809       4   19797   19812       4   19794   19809
       8   19791   19806       4   19788   19800       4   19785   19797       9
   19782   19785      10   19782   19791      11   19782   19794      12   19779
   19788       4   19779   19791       4   19776   19779      13   19776   19782
      14   19776   19785      15   20133   20145       2   20130   20133       2
   20112   20130       2   20094   20112       2   20088   20103       4   20082
   20103       4   20073   20094       2   20070   20088       4   20067   20082
       4   20058   20073       2   20055   20067       5   20055   20070       5
   20046   20058       2   20037   20055       6   20028   20046       2   20019
   20037       5   20016   20037       5   20010   20028       2   20004   20019
       4   20001   20016       4   19998   20007       4   19992   20007       4
   19992   20010       7   19989   20001       4   19989   20004       4   19986
   20001       8   19983   19998       4   19980   19992       4   19977   19989
       9   19974   19977      10   19974   19983      11   19974   19986      12
   19971   19980       4   19971   19983       4   19968   19971      13   19968
   19974      14   19968   19977      15   20325   20337       2   20322   20325
       2   20304   20322       2   20286   20304       2   20280   20295       4
   20274   20295       4   20265   20286       2   20262   20280       4   20259
   20274       4   20250   20265       2   20247   20259       5   20247   20262
       5   20238   20250       2   20229   20247       6   20220   20238       2
   20211   20229       5   20208   20229       5   20202   20220       2   20196
   20211       4   20193   20208       4   20190   20199       4   20184   20199
       4   20184   20202       7   20181   20193       4   20181   20196       4
   20178   20193       8   20175   20190       4   20172   20184       4   20169
   20181       9   20166   20169      10   20166   20175      11   20166   20178
      12   20163   20172       4   20163   20175       4   20160   20163      13
   20160   20166      14   20160   20169      15   20517   20529       2   20514
   20517       2   20496   20514       2   20478   20496       2   20472   20487
       4   20466   20487       4   20457   20478       2   20454   20472       4
   20451   20466       4   20442   20457       2   20439   20451       5   20439
   20454       5   20430   20442       2   20421   20439       6   20412   20430
       2   20403   20421       5   20400   20421       5   20394   20412       2
   20388   20403       4   20385   20400       4   20382   20391       4   20376
   20391       4   20376   20394       7   20373   20385       4   20373   20388
       4   20370   20385       8   20367   20382       4   20364   20376       4
   20361   20373       9   20358   20361      10   20358   20367      11   20358
   20370      12   20355   20364       4   20355   20367       4   20352   20355
      13   20352   20358      14   20352   20361      15   20709   20721       2
   20706   20709       2   20688   20706       2   20670   20688       2   20664
   20679       4   20658   20679       4   20649   20670       2   20646   20664
       4   20643   20658       4   20634   20649       2   20631   20643       5
   20631   20646       5   20622   20634       2   20613   20631       6   20604
   20622       2   20595   20613       5   20592   20613       5   20586   20604
       2   20580   20595       4   20577   20592       4   20574   20583       4
   20568   20583       4   20568   20586       7   20565   20577       4   20565
   20580       4   20562   20577       8   20559   20574       4   20556   20568
       4   20553   20565       9   20550   20553      10   20550   20559      11
   20550   20562      12   20547   20556       4   20547   20559       4   20544
   20547      13   20544   20550      14   20544   20553      15   20901   20913
       2   20898   20901       2   20880   20898       2   20862   20880       2
   20856   20871       4   20850   20871       4   20841   20862       2   20838
   20856       4   20835   20850       4   20826   20841       2   20823   20835
       5   20823   20838       5   20814   20826       2   20805   20823       6
   20796   20814       2   20787   20805       5   20784   20805       5   20778
   20796       2   20772   20787       4   20769   20784       4   20766   20775
       4   20760   20775       4   20760   20778       7   20757   20769       4
   20757   20772       4   20754   20769       8   20751   20766       4   20748
   20760       4   20745   20757       9   20742   20745      10   20742   20751
      11   20742   20754      12   20739   20748       4   20739   20751       4
   20736   20739      13   20736   20742      14   20736   20745      15   21093
   21105       2   21090   21093       2   21072   21090       2   21054   21072
       2   21048   21063       4   21042   21063       4   21033   21054       2
   21030   21048       4   21027   21042       4   21018   21033       2   21015
   21027       5   21015   21030       5   21006   21018       2   20997   21015
       6   20988   21006       2   20979   20997       5   20976   20997       5
   20970   20988       2   20964   20979       4   20961   20976       4   20958
   20967       4   20952   20967       4   20952   20970       7   20949   20961
       4   20949   20964       4   20946   20961       8   20943   20958       4
   20940   20952       4   20937   20949       9   20934   20937      10   20934
   20943      11   20934   20946      12   20931   20940       4   20931   20943
       4   20928   20931      13   20928   20934      14   20928   20937      15
   21285   21297       2   21282   21285       2   21264   21282       2   21246
   21264       2   21240   21255       4   21234   21255       4   21225   21246
       2   21222   21240       4   21219   21234       4   21210   21225       2
   21207   21219       5   21207   21222       5   21198   21210       2   21189
   21207       6   21180   21198       2   21171   21189       5   21168   21189
       5   21162   21180       2   21156   21171       4   21153   21168       4
   21150   21159       4   21144   21159       4   21144   21162       7   21141
   21153       4   21141   21156       4   21138   21153       8   21135   21150
       4   21132   21144       4   21129   21141       9   21126   21129      10
   21126   21135      11   21126   21138      12   21123   21132       4   21123
   21135       4   21120   21123      13   21120   21126      14   21120   21129
      15   21477   21489       2   21474   21477       2   21456   21474       2
   21438   21456       2   21432   21447       4   21426   21447       4   21417
   21438       2   21414   21432       4   21411   21426       4   21402   21417
       2   21399   21411       5   21399   21414       5   21390   21402       2
   21381   21399       6   21372   21390       2   21363   21381       5   21360
   21381       5   21354   21372       2   21348   21363       4   21345   21360
       4   21342   21351       4   21336   21351       4   21336   21354       7
   21333   21345       4   21333   21348       4   21330   21345       8   21327
   21342       4   21324   21336       4   21321   21333       9   21318   21321
      10   21318   21327      11   21318   21330      12   21315   21324       4
   21315   21327       4   21312   21315      13   21312   21318      14   21312
   21321      15   21669   21681       2   21666   21669       2   21648   21666
       2   21630   21648       2   21624   21639       4   21618   21639       4
   21609   21630       2   21606   21624       4   21603   21618       4   21594
   21609       2   21591   21603       5   21591   21606       5   21582   21594
       2   21573   21591       6   21564   21582       2   21555   21573       5
   21552   21573       5   21546   21564       2   21540   21555       4   21537
   21552       4   21534   21543       4   21528   21543       4   21528   21546
       7   21525   21537       4   21525   21540       4   21522   21537       8
   21519   21534       4   21516   21528       4   21513   21525       9   21510
   21513      10   21510   21519      11   21510   21522      12   21507   21516
       4   21507   21519       4   21504   21507      13   21504   21510      14
   21504   21513      15   21861   21873       2   21858   21861       2   21840
   21858       2   21822   21840       2   21816   21831       4   21810   21831
       4   21801   21822       2   21798   21816       4   21795   21810       4
   21786   21801       2   21783   21795       5   21783   21798       5   21774
   21786       2   21765   21783       6   21756   21774       2   21747   21765
       5   21744   21765       5   21738   21756       2   21732   21747       4
   21729   21744       4   21726   21735       4   21720   21735       4   21720
   21738       7   21717   21729       4   21717   21732       4   21714   21729
       8   21711   21726       4   21708   21720       4   21705   21717       9
   21702   21705      10   21702   21711      11   21702   21714      12   21699
   21708       4   21699   21711       4   21696   21699      13   21696   21702
      14   21696   21705      15   22053   22065       2   22050   22053       2
   22032   22050       2   22014   22032       2   22008   22023       4   22002
   22023       4   21993   22014       2   21990   22008       4   21987   22002
       4   21978   21993       2   21975   21987       5   21975   21990       5
   21966   21978       2   21957   21975       6   21948   21966       2   21939
   21957       5   21936   21957       5   21930   21948       2   21924   21939
       4   21921   21936       4   21918   21927       4   21912   21927       4
   21912   21930       7   21909   21921       4   21909   21924       4   21906
   21921       8   21903   21918       4   21900   21912       4   21897   21909
       9   21894   21897      10   21894   21903      11   21894   21906      12
   21891   21900       4   21891   21903       4   21888   21891      13   21888
   21894      14   21888   21897      15   22245   22257       2   22242   22245
       2   22224   22242       2   22206   22224       2   22200   22215       4
   22194   22215       4   22185   22206       2   22182   22200       4   22179
   22194       4   22170   22185       2   22167   22179       5   22167   22182
       5   22158   22170       2   22149   22167       6   22140   22158       2
   22131   22149       5   22128   22149       5   22122   22140       2   22116
   22131       4   22113   22128       4   22110   22119       4   22104   22119
       4   22104   22122       7   22101   22113       4   22101   22116       4
   22098   22113       8   22095   22110       4   22092   22104       4   22089
   22101       9   22086   22089      10   22086   22095      11   22086   22098
      12   22083   22092       4   22083   22095       4   22080   22083      13
   22080   22086      14   22080   22089      15   22437   22449       2   22434
   22437       2   22416   22434       2   22398   22416       2   22392   22407
       4   22386   22407       4   22377   22398       2   22374   22392       4
   22371   22386       4   22362   22377       2   22359   22371       5   22359
   22374       5   22350   22362       2   22341   22359       6   22332   22350
       2   22323   22341       5   22320   22341       5   22314   22332       2
   22308   22323       4   22305   22320       4   22302   22311       4   22296
   22311       4   22296   22314       7   22293   22305       4   22293   22308
       4   22290   22305       8   22287   22302       4   22284   22296       4
   22281   22293       9   22278   22281      10   22278   22287      11   22278
   22290      12   22275   22284       4   22275   22287       4   22272   22275
      13   22272   22278      14   22272   22281      15   22629   22641       2
   22626   22629       2   22608   22626       2   22590   22608       2   22584
   22599       4   22578   22599       4   22569   22590       2   22566   22584
       4   22563   22578       4   22554   22569       2   22551   22563       5
   22551   22566       5   22542   22554       2   22533   22551       6   22524
   22542       2   22515   22533       5   22512   22533       5   22506   22524
       2   22500   22515       4   22497   22512       4   22494   22503       4
   22488   22503       4   22488   22506       7   22485   22497       4   22485
   22500       4   22482   22497       8   22479   22494       4   22476   22488
       4   22473   22485       9   22470   22473      10   22470   22479      11
   22470   22482      12   22467   22476       4   22467   22479       4   22464
   22467      13   22464   22470      14   22464   22473      15   22821   22833
       2   22818   22821       2   22800   22818       2   22782   22800       2
   22776   22791       4   22770   22791       4   22761   22782       2   22758
   22776       4   22755   22770       4   22746   22761       2   22743   22755
       5   22743   22758       5   22734   22746       2   22725   22743       6
   22716   22734       2   22707   22725       5   22704   22725       5   22698
   22716       2   22692   22707       4   22689   22704       4   22686   22695
       4   22680   22695       4   22680   22698       7   22677   22689       4
   22677   22692       4   22674   22689       8   22671   22686       4   22668
   22680       4   22665   22677       9   22662   22665      10   22662   22671
      11   22662   22674      12   22659   22668       4   22659   22671       4
   22656   22659      13   22656   22662      14   22656   22665      15   23013
   23025       2   23010   23013       2   22992   23010       2   22974   22992
       2   22968   22983       4   22962   22983       4   22953   22974       2
   22950   22968       4   22947   22962       4   22938   22953       2   22935
   22947       5   22935   22950       5   22926   22938       2   22917   22935
       6   22908   22926       2   22899   22917       5   22896   22917       5
   22890   22908       2   22884   22899       4   22881   22896       4   22878
   22887       4   22872   22887       4   22872   22890       7   22869   22881
       4   22869   22884       4   22866   22881       8   22863   22878       4
   22860   22872       4   22857   22869       9   22854   22857      10   22854
   22863      11   22854   22866      12   22851   22860       4   22851   22863
       4   22848   22851      13   22848   22854      14   22848   22857      15
   23205   23217       2   23202   23205       2   23184   23202       2   23166
   23184       2   23160   23175       4   23154   23175       4   23145   23166
       2   23142   23160       4   23139   23154       4   23130   23145       2
   23127   23139       5   23127   23142       5   23118   23130       2   23109
   23127       6   23100   23118       2   23091   23109       5   23088   23109
       5   23082   23100       2   23076   23091       4   23073   23088       4
   23070   23079       4   23064   23079       4   23064   23082       7   23061
   23073       4   23061   23076       4   23058   23073       8   23055   23070
       4   23052   23064       4   23049   23061       9   23046   23049      10
   23046   23055      11   23046   23058      12   23043   23052       4   23043
   23055       4   23040   23043      13   23040   23046      14   23040   23049
      15   23397   23409       2   23394   23397       2   23376   23394       2
   23358   23376       2   23352   23367       4   23346   23367       4   23337
   23358       2   23334   23352       4   23331   23346       4   23322   23337
       2   23319   23331       5   23319   23334       5   23310   23322       2
   23301   23319       6   23292   23310       2   23283   23301       5   23280
   23301       5   23274   23292       2   23268   23283       4   23265   23280
       4   23262   23271       4   23256   23271       4   23256   23274       7
   23253   23265       4   23253   23268       4   23250   23265       8   23247
   23262       4   23244   23256       4   23241   23253       9   23238   23241
      10   23238   23247      11   23238   23250      12   23235   23244       4
   23235   23247       4   23232   23235      13   23232   23238      14   23232
   23241      15   23589   23601       2   23586   23589       2   23568   23586
       2   23550   23568       2   23544   23559       4   23538   23559       4
   23529   23550       2   23526   23544       4   23523   23538       4   23514
   23529       2   23511   23523       5   23511   23526       5   23502   23514
       2   23493   23511       6   23484   23502       2   23475   23493       5
   23472   23493       5   23466   23484       2   23460   23475       4   23457
   23472       4   23454   23463       4   23448   23463       4   23448   23466
       7   23445   23457       4   23445   23460       4   23442   23457       8
   23439   23454       4   23436   23448       4   23433   23445       9   23430
   23433      10   23430   23439      11   23430   23442      12   23427   23436
       4   23427   23439       4   23424   23427      13   23424   23430      14
   23424   23433      15   23781   23793       2   23778   23781       2   23760
   23778       2   23742   23760       2   23736   23751       4   23730   23751
       4   23721   23742       2   23718   23736       4   23715   23730       4
   23706   23721       2   23703   23715       5   23703   23718       5   23694
   23706       2   23685   23703       6   23676   23694       2   23667   23685
       5   23664   23685       5   23658   23676       2   23652   23667       4
   23649   23664       4   23646   23655       4   23640   23655       4   23640
   23658       7   23637   23649       4   23637   23652       4   23634   23649
       8   23631   23646       4   23628   23640       4   23625   23637       9
   23622   23625      10   23622   23631      11   23622   23634      12   23619
   23628       4   23619   23631       4   23616   23619      13   23616   23622
      14   23616   23625      15   23973   23985       2   23970   23973       2
   23952   23970       2   23934   23952       2   23928   23943       4   23922
   23943       4   23913   23934       2   23910   23928       4   23907   23922
       4   23898   23913       2   23895   23907       5   23895   23910       5
   23886   23898       2   23877   23895       6   23868   23886       2   23859
   23877       5   23856   23877       5   23850   23868       2   23844   23859
       4   23841   23856       4   23838   23847       4   23832   23847       4
   23832   23850       7   23829   23841       4   23829   23844       4   23826
   23841       8   23823   23838       4   23820   23832       4   23817   23829
       9   23814   23817      10   23814   23823      11   23814   23826      12
   23811   23820       4   23811   23823       4   23808   23811      13   23808
   23814      14   23808   23817      15   24165   24177       2   24162   24165
       2   24144   24162       2   24126   24144       2   24120   24135       4
   24114   24135       4   24105   24126       2   24102   24120       4   24099
   24114       4   24090   24105       2   24087   24099       5   24087   24102
       5   24078   24090       2   24069   24087       6   24060   24078       2
   24051   24069       5   24048   24069       5   24042   24060       2   24036
   24051       4   24033   24048       4   24030   24039       4   24024   24039
       4   24024   24042       7   24021   24033       4   24021   24036       4
   24018   24033       8   24015   24030       4   24012   24024       4   24009
   24021       9   24006   24009      10   24006   24015      11   24006   24018
      12   24003   24012       4   24003   24015       4   24000   24003      13
   24000   24006      14   24000   24009      15   24357   24369       2   24354
   24357       2   24336   24354       2   24318   24336       2   24312   24327
       4   24306   24327       4   24297   24318       2   24294   24312       4
   24291   24306       4   24282   24297       2   24279   24291       5   24279
   24294       5   24270   24282       2   24261   24279       6   24252   24270
       2   24243   24261       5   24240   24261       5   24234   24252       2
   24228   24243       4   24225   24240       4   24222   24231       4   24216
   24231       4   24216   24234       7   24213   24225       4   24213   24228
       4   24210   24225       8   24207   24222       4   24204   24216       4
   24201   24213       9   24198   24201      10   24198   24207      11   24198
   24210      12   24195   24204       4   24195   24207       4   24192   24195
      13   24192   24198      14   24192   24201      15   24549   24561       2
   24546   24549       2   24528   24546       2   24510   24528       2   24504
   24519       4   24498   24519       4   24489   24510       2   24486   24504
       4   24483   24498       4   24474   24489       2   24471   24483       5
   24471   24486       5   24462   24474       2   24453   24471       6   24444
   24462       2   24435   24453       5   24432   24453       5   24426   24444
       2   24420   24435       4   24417   24432       4   24414   24423       4
   24408   24423       4   24408   24426       7   24405   24417       4   24405
   24420       4   24402   24417       8   24399   24414       4   24396   24408
       4   24393   24405       9   24390   24393      10   24390   24399      11
   24390   24402      12   24387   24396       4   24387   24399       4   24384
   24387      13   24384   24390      14   24384   24393      15   24741   24753
       2   24738   24741       2   24720   24738       2   24702   24720       2
   24696   24711       4   24690   24711       4   24681   24702       2   24678
   24696       4   24675   24690       4   24666   24681       2   24663   24675
       5   24663   24678       5   24654   24666       2   24645   24663       6
   24636   24654       2   24627   24645       5   24624   24645       5   24618
   24636       2   24612   24627       4   24609   24624       4   24606   24615
       4   24600   24615       4   24600   24618       7   24597   24609       4
   24597   24612       4   24594   24609       8   24591   24606       4   24588
   24600       4   24585   24597       9   24582   24585      10   24582   24591
      11   24582   24594      12   24579   24588       4   24579   24591       4
   24576   24579      13   24576   24582      14   24576   24585      15   24933
   24945       2   24930   24933       2   24912   24930       2   24894   24912
       2   24888   24903       4   24882   24903       4   24873   24894       2
   24870   24888       4   24867   24882       4   24858   24873       2   24855
   24867       5   24855   24870       5   24846   24858       2   24837   24855
       6   24828   24846       2   24819   24837       5   24816   24837       5
   24810   24828       2   24804   24819       4   24801   24816       4   24798
   24807       4   24792   24807       4   24792   24810       7   24789   24801
       4   24789   24804       4   24786   24801       8   24783   24798       4
   24780   24792       4   24777   24789       9   24774   24777      10   24774
   24783      11   24774   24786      12   24771   24780       4   24771   24783
       4   24768   24771      13   24768   24774      14   24768   24777      15
   25125   25137       2   25122   25125       2   25104   25122       2   25086
   25104       2   25080   25095       4   25074   25095       4   25065   25086
       2   25062   25080       4   25059   25074       4   25050   25065       2
   25047   25059       5   25047   25062       5   25038   25050       2   25029
   25047       6   25020   25038       2   25011   25029       5   25008   25029
       5   25002   25020       2   24996   25011       4   24993   25008       4
   24990   24999       4   24984   24999       4   24984   25002       7   24981
   24993       4   24981   24996       4   24978   24993       8   24975   24990
       4   24972   24984       4   24969   24981       9   24966   24969      10
   24966   24975      11   24966   24978      12   24963   24972       4   24963
   24975       4   24960   24963      13   24960   24966      14   24960   24969
      15   25317   25329       2   25314   25317       2   25296   25314       2
   25278   25296       2   25272   25287       4   25266   25287       4   25257
   25278       2   25254   25272       4   25251   25266       4   25242   25257
       2   25239   25251       5   25239   25254       5   25230   25242       2
   25221   25239       6   25212   25230       2   25203   25221       5   25200
   25221       5   25194   25212       2   25188   25203       4   25185   25200
       4   25182   25191       4   25176   25191       4   25176   25194       7
   25173   25185       4   25173   25188       4   25170   25185       8   25167
   25182       4   25164   25176       4   25161   25173       9   25158   25161
      10   25158   25167      11   25158   25170      12   25155   25164       4
   25155   25167       4   25152   25155      13   25152   25158      14   25152
   25161      15   25509   25521       2   25506   25509       2   25488   25506
       2   25470   25488       2   25464   25479       4   25458   25479       4
   25449   25470       2   25446   25464       4   25443   25458       4   25434
   25449       2   25431   25443       5   25431   25446       5   25422   25434
       2   25413   25431       6   25404   25422       2   25395   25413       5
   25392   25413       5   25386   25404       2   25380   25395       4   25377
   25392       4   25374   25383       4   25368   25383       4   25368   25386
       7   25365   25377       4   25365   25380       4   25362   25377       8
   25359   25374       4   25356   25368       4   25353   25365       9   25350
   25353      10   25350   25359      11   25350   25362      12   25347   25356
       4   25347   25359       4   25344   25347      13   25344   25350      14
   25344   25353      15   25701   25713       2   25698   25701       2   25680
   25698       2   25662   25680       2   25656   25671       4   25650   25671
       4   25641   25662       2   25638   25656       4   25635   25650       4
   25626   25641       2   25623   25635       5   25623   25638       5   25614
   25626       2   25605   25623       6   25596   25614       2   25587   25605
       5   25584   25605       5   25578   25596       2   25572   25587       4
   25569   25584       4   25566   25575       4   25560   25575       4   25560
   25578       7   25557   25569       4   25557   25572       4   25554   25569
       8   25551   25566       4   25548   25560       4   25545   25557       9
   25542   25545      10   25542   25551      11   25542   25554      12   25539
   25548       4   25539   25551       4   25536   25539      13   25536   25542
      14   25536   25545      15   25893   25905       2   25890   25893       2
   25872   25890       2   25854   25872       2   25848   25863       4   25842
   25863       4   25833   25854       2   25830   25848       4   25827   25842
       4   25818   25833       2   25815   25827       5   25815   25830       5
   25806   25818       2   25797   25815       6   25788   25806       2   25779
   25797       5   25776   25797       5   25770   25788       2   25764   25779
       4   25761   25776       4   25758   25767       4   25752   25767       4
   25752   25770       7   25749   25761       4   25749   25764       4   25746
   25761       8   25743   25758       4   25740   25752       4   25737   25749
       9   25734   25737      10   25734   25743      11   25734   25746      12
   25731   25740       4   25731   25743       4   25728   25731      13   25728
   25734      14   25728   25737      15   26085   26097       2   26082   26085
       2   26064   26082       2   26046   26064       2   26040   26055       4
   26034   26055       4   26025   26046       2   26022   26040       4   26019
   26034       4   26010   26025       2   26007   26019       5   26007   26022
       5   25998   26010       2   25989   26007       6   25980   25998       2
   25971   25989       5   25968   25989       5   25962   25980       2   25956
   25971       4   25953   25968       4   25950   25959       4   25944   25959
       4   25944   25962       7   25941   25953       4   25941   25956       4
   25938   25953       8   25935   25950       4   25932   25944       4   25929
   25941       9   25926   25929      10   25926   25935      11   25926   25938
      12   25923   25932       4   25923   25935       4   25920   25923      13
   25920   25926      14   25920   25929      15   26277   26289       2   26274
   26277       2   26256   26274       2   26238   26256       2   26232   26247
       4   26226   26247       4   26217   26238       2   26214   26232       4
   26211   26226       4   26202   26217       2   26199   26211       5   26199
   26214       5   26190   26202       2   26181   26199       6   26172   26190
       2   26163   26181       5   26160   26181       5   26154   26172       2
   26148   26163       4   26145   26160       4   26142   26151       4   26136
   26151       4   26136   26154       7   26133   26145       4   26133   26148
       4   26130   26145       8   26127   26142       4   26124   26136       4
   26121   26133       9   26118   26121      10   26118   26127      11   26118
   26130      12   26115   26124       4   26115   26127       4   26112   26115
      13   26112   26118      14   26112   26121      15   26469   26481       2
   26466   26469       2   26448   26466       2   26430   26448       2   26424
   26439       4   26418   26439       4   26409   26430       2   26406   26424
       4   26403   26418       4   26394   26409       2   26391   26403       5
   26391   26406       5   26382   26394       2   26373   26391       6   26364
   26382       2   26355   26373       5   26352   26373       5   26346   26364
       2   26340   26355       4   26337   26352       4   26334   26343       4
   26328   26343       4   26328   26346       7   26325   26337       4   26325
   26340       4   26322   26337       8   26319   26334       4   26316   26328
       4   26313   26325       9   26310   26313      10   26310   26319      11
   26310   26322      12   26307   26316       4   26307   26319       4   26304
   26307      13   26304   26310      14   26304   26313      15   26661   26673
       2   26658   26661       2   26640   26658       2   26622   26640       2
   26616   26631       4   26610   26631       4   26601   26622       2   26598
   26616       4   26595   26610       4   26586   26601       2   26583   26595
       5   26583   26598       5   26574   26586       2   26565   26583       6
   26556   26574       2   26547   26565       5   26544   26565       5   26538
   26556       2   26532   26547       4   26529   26544       4   26526   26535
       4   26520   26535       4   26520   26538       7   26517   26529       4
   26517   26532       4   26514   26529       8   26511   26526       4   26508
   26520       4   26505   26517       9   26502   26505      10   26502   26511
      11   26502   26514      12   26499   26508       4   26499   26511       4
   26496   26499      13   26496   26502      14   26496   26505      15   26853
   26865       2   26850   26853       2   26832   26850       2   26814   26832
       2   26808   26823       4   26802   26823       4   26793   26814       2
   26790   26808       4   26787   26802       4   26778   26793       2   26775
   26787       5   26775   26790       5   26766   26778       2   26757   26775
       6   26748   26766       2   26739   26757       5   26736   26757       5
   26730   26748       2   26724   26739       4   26721   26736       4   26718
   26727       4   26712   26727       4   26712   26730       7   26709   26721
       4   26709   26724       4   26706   26721       8   26703   26718       4
   26700   26712       4   26697   26709       9   26694   26697      10   26694
   26703      11   26694   26706      12   26691   26700       4   26691   26703
       4   26688   26691      13   26688   26694      14   26688   26697      15
   27045   27057       2   27042   27045       2   27024   27042       2   27006
   27024       2   27000   27015       4   26994   27015       4   26985   27006
       2   26982   27000       4   26979   26994       4   26970   26985       2
   26967   26979       5   26967   26982       5   26958   26970       2   26949
   26967       6   26940   26958       2   26931   26949       5   26928   26949
       5   26922   26940       2   26916   26931       4   26913   26928       4
   26910   26919       4   26904   26919       4   26904   26922       7   26901
   26913       4   26901   26916       4   26898   26913       8   26895   26910
       4   26892   26904       4   26889   26901       9   26886   26889      10
   26886   26895      11   26886   26898      12   26883   26892       4   26883
   26895       4   26880   26883      13   26880   26886      14   26880   26889
      15   27237   27249       2   27234   27237       2   27216   27234       2
   27198   27216       2   27192   27207       4   27186   27207       4   27177
   27198       2   27174   27192       4   27171   27186       4   27162   27177
       2   27159   27171       5   27159   27174       5   27150   27162       2
   27141   27159       6   27132   27150       2   27123   27141       5   27120
   27141       5   27114   27132       2   27108   27123       4   27105   27120
       4   27102   27111       4   27096   27111       4   27096   27114       7
   27093   27105       4   27093   27108       4   27090   27105       8   27087
   27102       4   27084   27096       4   27081   27093       9   27078   27081
      10   27078   27087      11   27078   27090      12   27075   27084       4
   27075   27087       4   27072   27075      13   27072   27078      14   27072
   27081      15   27429   27441       2   27426   27429       2   27408   27426
       2   27390   27408       2   27384   27399       4   27378   27399       4
   27369   27390       2   27366   27384       4   27363   27378       4   27354
   27369       2   27351   27363       5   27351   27366       5   27342   27354
       2   27333   27351       6   27324   27342       2   27315   27333       5
   27312   27333       5   27306   27324       2   27300   27315       4   27297
   27312       4   27294   27303       4   27288   27303       4   27288   27306
       7   27285   27297       4   27285   27300       4   27282   27297       8
   27279   27294       4   27276   27288       4   27273   27285       9   27270
   27273      10   27270   27279      11   27270   27282      12   27267   27276
       4   27267   27279       4   27264   27267      13   27264   27270      14
   27264   27273      15   27621   27633       2   27618   27621       2   27600
   27618       2   27582   27600       2   27576   27591       4   27570   27591
       4   27561   27582       2   27558   27576       4   27555   27570       4
   27546   27561       2   27543   27555       5   27543   27558       5   27534
   27546       2   27525   27543       6   27516   27534       2   27507   27525
       5   27504   27525       5   27498   27516       2   27492   27507       4
   27489   27504       4   27486   27495       4   27480   27495       4   27480
   27498       7   27477   27489       4   27477   27492       4   27474   27489
       8   27471   27486       4   27468   27480       4   27465   27477       9
   27462   27465      10   27462   27471      11   27462   27474      12   27459
   27468       4   27459   27471       4   27456   27459      13   27456   27462
      14   27456   27465      15   27813   27825       2   27810   27813       2
   27792   27810       2   27774   27792       2   27768   27783       4   27762
   27783       4   27753   27774       2   27750   27768       4   27747   27762
       4   27738   27753       2   27735   27747       5   27735   27750       5
   27726   27738       2   27717   27735       6   27708   27726       2   27699
   27717       5   27696   27717       5   27690   27708       2   27684   27699
       4   27681   27696       4   27678   27687       4   27672   27687       4
   27672   27690       7   27669   27681       4   27669   27684       4   27666
   27681       8   27663   27678       4   27660   27672       4   27657   27669
       9   27654   27657      10   27654   27663      11   27654   27666      12
   27651   27660       4   27651   27663       4   27648   27651      13   27648
   27654      14   27648   27657      15   28005   28017       2   28002   28005
       2   27984   28002       2   27966   27984       2   27960   27975       4
   27954   27975       4   27945   27966       2   27942   27960       4   27939
   27954       4   27930   27945       2   27927   27939       5   27927   27942
       5   27918   27930       2   27909   27927       6   27900   27918       2
   27891   27909       5   27888   27909       5   27882   27900       2   27876
   27891       4   27873   27888       4   27870   27879       4   27864   27879
       4   27864   27882       7   27861   27873       4   27861   27876       4
   27858   27873       8   27855   27870       4   27852   27864       4   27849
   27861       9   27846   27849      10   27846   27855      11   27846   27858
      12   27843   27852       4   27843   27855       4   27840   27843      13
   27840   27846      14   27840   27849      15   28197   28209       2   28194
   28197       2   28176   28194       2   28158   28176       2   28152   28167
       4   28146   28167       4   28137   28158       2   28134   28152       4
   28131   28146       4   28122   28137       2   28119   28131       5   28119
   28134       5   28110   28122       2   28101   28119       6   28092   28110
       2   28083   28101       5   28080   28101       5   28074   28092       2
   28068   28083       4   28065   28080       4   28062   28071       4   28056
   28071       4   28056   28074       7   28053   28065       4   28053   28068
       4   28050   28065       8   28047   28062       4   28044   28056       4
   28041   28053       9   28038   28041      10   28038   28047      11   28038
   28050      12   28035   28044       4   28035   28047       4   28032   28035
      13   28032   28038      14   28032   28041      15   28389   28401       2
   28386   28389       2   28368   28386       2   28350   28368       2   28344
   28359       4   28338   28359       4   28329   28350       2   28326   28344
       4   28323   28338       4   28314   28329       2   28311   28323       5
   28311   28326       5   28302   28314       2   28293   28311       6   28284
   28302       2   28275   28293       5   28272   28293       5   28266   28284
       2   28260   28275       4   28257   28272       4   28254   28263       4
   28248   28263       4   28248   28266       7   28245   28257       4   28245
   28260       4   28242   28257       8   28239   28254       4   28236   28248
       4   28233   28245       9   28230   28233      10   28230   28239      11
   28230   28242      12   28227   28236       4   28227   28239       4   28224
   28227      13   28224   28230      14   28224   28233      15   28581   28593
       2   28578   28581       2   28560   28578       2   28542   28560       2
   28536   28551       4   28530   28551       4   28521   28542       2   28518
   28536       4   28515   28530       4   28506   28521       2   28503   28515
       5   28503   28518       5   28494   28506       2   28485   28503       6
   28476   28494       2   28467   28485       5   28464   28485       5   28458
   28476       2   28452   28467       4   28449   28464       4   28446   28455
       4   28440   28455       4   28440   28458       7   28437   28449       4
   28437   28452       4   28434   28449       8   28431   28446       4   28428
   28440       4   28425   28437       9   28422   28425      10   28422   28431
      11   28422   28434      12   28419   28428       4   28419   28431       4
   28416   28419      13   28416   28422      14   28416   28425      15   28773
   28785       2   28770   28773       2   28752   28770       2   28734   28752
       2   28728   28743       4   28722   28743       4   28713   28734       2
   28710   28728       4   28707   28722       4   28698   28713       2   28695
   28707       5   28695   28710       5   28686   28698       2   28677   28695
       6   28668   28686       2   28659   28677       5   28656   28677       5
   28650   28668       2   28644   28659       4   28641   28656       4   28638
   28647       4   28632   28647       4   28632   28650       7   28629   28641
       4   28629   28644       4   28626   28641       8   28623   28638       4
   28620   28632       4   28617   28629       9   28614   28617      10   28614
   28623      11   28614   28626      12   28611   28620       4   28611   28623
       4   28608   28611      13   28608   28614      14   28608   28617      15
   28965   28977       2   28962   28965       2   28944   28962       2   28926
   28944       2   28920   28935       4   28914   28935       4   28905   28926
       2   28902   28920       4   28899   28914       4   28890   28905       2
   28887   28899       5   28887   28902       5   28878   28890       2   28869
   28887       6   28860   28878       2   28851   28869       5   28848   28869
       5   28842   28860       2   28836   28851       4   28833   28848       4
   28830   28839       4   28824   28839       4   28824   28842       7   28821
   28833       4   28821   28836       4   28818   28833       8   28815   28830
       4   28812   28824       4   28809   28821       9   28806   28809      10
   28806   28815      11   28806   28818      12   28803   28812       4   28803
   28815       4   28800   28803      13   28800   28806      14   28800   28809
      15   29157   29169       2   29154   29157       2   29136   29154       2
   29118   29136       2   29112   29127       4   29106   29127       4   29097
   29118       2   29094   29112       4   29091   29106       4   29082   29097
       2   29079   29091       5   29079   29094       5   29070   29082       2
   29061   29079       6   29052   29070       2   29043   29061       5   29040
   29061       5   29034   29052       2   29028   29043       4   29025   29040
       4   29022   29031       4   29016   29031       4   29016   29034       7
   29013   29025       4   29013   29028       4   29010   29025       8   29007
   29022       4   29004   29016       4   29001   29013       9   28998   29001
      10   28998   29007      11   28998   29010      12   28995   29004       4
   28995   29007       4   28992   28995      13   28992   28998      14   28992
   29001      15   29349   29361       2   29346   29349       2   29328   29346
       2   29310   29328       2   29304   29319       4   29298   29319       4
   29289   29310       2   29286   29304       4   29283   29298       4   29274
   29289       2   29271   29283       5   29271   29286       5   29262   29274
       2   29253   29271       6   29244   29262       2   29235   29253       5
   29232   29253       5   29226   29244       2   29220   29235       4   29217
   29232       4   29214   29223       4   29208   29223       4   29208   29226
       7   29205   29217       4   29205   29220       4   29202   29217       8
   29199   29214       4   29196   29208       4   29193   29205       9   29190
   29193      10   29190   29199      11   29190   29202      12   29187   29196
       4   29187   29199       4   29184   29187      13   29184   29190      14
   29184   29193      15   29541   29553       2   29538   29541       2   29520
   29538       2   29502   29520       2   29496   29511       4   29490   29511
       4   29481   29502       2   29478   29496       4   29475   29490       4
   29466   29481       2   29463   29475       5   29463   29478       5   29454
   29466       2   29445   29463       6   29436   29454       2   29427   29445
       5   29424   29445       5   29418   29436       2   29412   29427       4
   29409   29424       4   29406   29415       4   29400   29415       4   29400
   29418       7   29397   29409       4   29397   29412       4   29394   29409
       8   29391   29406       4   29388   29400       4   29385   29397       9
   29382   29385      10   29382   29391      11   29382   29394      12   29379
   29388       4   29379   29391       4   29376   29379      13   29376   29382
      14   29376   29385      15   29733   29745       2   29730   29733       2
   29712   29730       2   29694   29712       2   29688   29703       4   29682
   29703       4   29673   29694       2   29670   29688       4   29667   29682
       4   29658   29673       2   29655   29667       5   29655   29670       5
   29646   29658       2   29637   29655       6   29628   29646       2   29619
   29637       5   29616   29637       5   29610   29628       2   29604   29619
       4   29601   29616       4   29598   29607       4   29592   29607       4
   29592   29610       7   29589   29601       4   29589   29604       4   29586
   29601       8   29583   29598       4   29580   29592       4   29577   29589
       9   29574   29577      10   29574   29583      11   29574   29586      12
   29571   29580       4   29571   29583       4   29568   29571      13   29568
   29574      14   29568   29577      15   29925   29937       2   29922   29925
       2   29904   29922       2   29886   29904       2   29880   29895       4
   29874   29895       4   29865   29886       2   29862   29880       4   29859
   29874       4   29850   29865       2   29847   29859       5   29847   29862
       5   29838   29850       2   29829   29847       6   29820   29838       2
   29811   29829       5   29808   29829       5   29802   29820       2   29796
   29811       4   29793   29808       4   29790   29799       4   29784   29799
       4   29784   29802       7   29781   29793       4   29781   29796       4
   29778   29793       8   29775   29790       4   29772   29784       4   29769
   29781       9   29766   29769      10   29766   29775      11   29766   29778
      12   29763   29772       4   29763   29775       4   29760   29763      13
   29760   29766      14   29760   29769      15   30117   30129       2   30114
   30117       2   30096   30114       2   30078   30096       2   30072   30087
       4   30066   30087       4   30057   30078       2   30054   30072       4
   30051   30066       4   30042   30057       2   30039   30051       5   30039
   30054       5   30030   30042       2   30021   30039       6   30012   30030
       2   30003   30021       5   30000   30021       5   29994   30012       2
   29988   30003       4   29985   30000       4   29982   29991       4   29976
   29991       4   29976   29994       7   29973   29985       4   29973   29988
       4   29970   29985       8   29967   29982       4   29964   29976       4
   29961   29973       9   29958   29961      10   29958   29967      11   29958
   29970      12   29955   29964       4   29955   29967       4   29952   29955
      13   29952   29958      14   29952   29961      15   30309   30321       2
   30306   30309       2   30288   30306       2   30270   30288       2   30264
   30279       4   30258   30279       4   30249   30270       2   30246   30264
       4   30243   30258       4   30234   30249       2   30231   30243       5
   30231   30246       5   30222   30234       2   30213   30231       6   30204
   30222       2   30195   30213       5   30192   30213       5   30186   30204
       2   30180   30195       4   30177   30192       4   30174   30183       4
   30168   30183       4   30168   30186       7   30165   30177       4   30165
   30180       4   30162   30177       8   30159   30174       4   30156   30168
       4   30153   30165       9   30150   30153      10   30150   30159      11
   30150   30162      12   30147   30156       4   30147   30159       4   30144
   30147      13   30144   30150      14   30144   30153      15   30501   30513
       2   30498   30501       2   30480   30498       2   30462   30480       2
   30456   30471       4   30450   30471       4   30441   30462       2   30438
   30456       4   30435   30450       4   30426   30441       2   30423   30435
       5   30423   30438       5   30414   30426       2   30405   30423       6
   30396   30414       2   30387   30405       5   30384   30405       5   30378
   30396       2   30372   30387       4   30369   30384       4   30366   30375
       4   30360   30375       4   30360   30378       7   30357   30369       4
   30357   30372       4   30354   30369       8   30351   30366       4   30348
   30360       4   30345   30357       9   30342   30345      10   30342   30351
      11   30342   30354      12   30339   30348       4   30339   30351       4
   30336   30339      13   30336   30342      14   30336   30345      15   30693
   30705       2   30690   30693       2   30672   30690       2   30654   30672
       2   30648   30663       4   30642   30663       4   30633   30654       2
   30630   30648       4   30627   30642       4   30618   30633       2   30615
   30627       5   30615   30630       5   30606   30618       2   30597   30615
       6   30588   30606       2   30579   30597       5   30576   30597       5
   30570   30588       2   30564   30579       4   30561   30576       4   30558
   30567       4   30552   30567       4   30552   30570       7   30549   30561
       4   30549   30564       4   30546   30561       8   30543   30558       4
   30540   30552       4   30537   30549       9   30534   30537      10   30534
   30543      11   30534   30546      12   30531   30540       4   30531   30543
       4   30528   30531      13   30528   30534      14   30528   30537      15
   30885   30897       2   30882   30885       2   30864   30882       2   30846
   30864       2   30840   30855       4   30834   30855       4   30825   30846
       2   30822   30840       4   30819   30834       4   30810   30825       2
   30807   30819       5   30807   30822       5   30798   30810       2   30789
   30807       6   30780   30798       2   30771   30789       5   30768   30789
       5   30762   30780       2   30756   30771       4   30753   30768       4
   30750   30759       4   30744   30759       4   30744   30762       7   30741
   30753       4   30741   30756       4   30738   30753       8   30735   30750
       4   30732   30744       4   30729   30741       9   30726   30729      10
   30726   30735      11   30726   30738      12   30723   30732       4   30723
   30735       4   30720   30723      13   30720   30726      14   30720   30729
      15   31077   31089       2   31074   31077       2   31056   31074       2
   31038   31056       2   31032   31047       4   31026   31047       4   31017
   31038       2   31014   31032       4   31011   31026       4   31002   31017
       2   30999   31011       5   30999   31014       5   30990   31002       2
   30981   30999       6   30972   30990       2   30963   30981       5   30960
   30981       5   30954   30972       2   30948   30963       4   30945   30960
       4   30942   30951       4   30936   30951       4   30936   30954       7
   30933   30945       4   30933   30948       4   30930   30945       8   30927
   30942       4   30924   30936       4   30921   30933       9   30918   30921
      10   30918   30927      11   30918   30930      12   30915   30924       4
   30915   30927       4   30912   30915      13   30912   30918      14   30912
   30921      15   31269   31281       2   31266   31269       2   31248   31266
       2   31230   31248       2   31224   31239       4   31218   31239       4
   31209   31230       2   31206   31224       4   31203   31218       4   31194
   31209       2   31191   31203       5   31191   31206       5   31182   31194
       2   31173   31191       6   31164   31182       2   31155   31173       5
   31152   31173       5   31146   31164       2   31140   31155       4   31137
   31152       4   31134   31143       4   31128   31143       4   31128   31146
       7   31125   31137       4   31125   31140       4   31122   31137       8
   31119   31134       4   31116   31128       4   31113   31125       9   31110
   31113      10   31110   31119      11   31110   31122      12   31107   31116
       4   31107   31119       4   31104   31107      13   31104   31110      14
   31104   31113      15   31461   31473       2   31458   31461       2   31440
   31458       2   31422   31440       2   31416   31431       4   31410   31431
       4   31401   31422       2   31398   31416       4   31395   31410       4
   31386   31401       2   31383   31395       5   31383   31398       5   31374
   31386       2   31365   31383       6   31356   31374       2   31347   31365
       5   31344   31365       5   31338   31356       2   31332   31347       4
   31329   31344       4   31326   31335       4   31320   31335       4   31320
   31338       7   31317   31329       4   31317   31332       4   31314   31329
       8   31311   31326       4   31308   31320       4   31305   31317       9
   31302   31305      10   31302   31311      11   31302   31314      12   31299
   31308       4   31299   31311       4   31296   31299      13   31296   31302
      14   31296   31305      15   31653   31665       2   31650   31653       2
   31632   31650       2   31614   31632       2   31608   31623       4   31602
   31623       4   31593   31614       2   31590   31608       4   31587   31602
       4   31578   31593       2   31575   31587       5   31575   31590       5
   31566   31578       2   31557   31575       6   31548   31566       2   31539
   31557       5   31536   31557       5   31530   31548       2   31524   31539
       4   31521   31536       4   31518   31527       4   31512   31527       4
   31512   31530       7   31509   31521       4   31509   31524       4   31506
   31521       8   31503   31518       4   31500   31512       4   31497   31509
       9   31494   31497      10   31494   31503      11   31494   31506      12
   31491   31500       4   31491   31503       4   31488   31491      13   31488
   31494      14   31488   31497      15   31845   31857       2   31842   31845
       2   31824   31842       2   31806   31824       2   31800   31815       4
   31794   31815       4   31785   31806       2   31782   31800       4   31779
   31794       4   31770   31785       2   31767   31779       5   31767   31782
       5   31758   31770       2   31749   31767       6   31740   31758       2
   31731   31749       5   31728   31749       5   31722   31740       2   31716
   31731       4   31713   31728       4   31710   31719       4   31704   31719
       4   31704   31722       7   31701   31713       4   31701   31716       4
   31698   31713       8   31695   31710       4   31692   31704       4   31689
   31701       9   31686   31689      10   31686   31695      11   31686   31698
      12   31683   31692       4   31683   31695       4   31680   31683      13
   31680   31686      14   31680   31689      15   32037   32049       2   32034
   32037       2   32016   32034       2   31998   32016       2   31992   32007
       4   31986   32007       4   31977   31998       2   31974   31992       4
   31971   31986       4   31962   31977       2   31959   31971       5   31959
   31974       5   31950   31962       2   31941   31959       6   31932   31950
       2   31923   31941       5   31920   31941       5   31914   31932       2
   31908   31923       4   31905   31920       4   31902   31911       4   31896
   31911       4   31896   31914       7   31893   31905       4   31893   31908
       4   31890   31905       8   31887   31902       4   31884   31896       4
   31881   31893       9   31878   31881      10   31878   31887      11   31878
   31890      12   31875   31884       4   31875   31887       4   31872   31875
      13   31872   31878      14   31872   31881      15   32229   32241       2
   32226   32229       2   32208   32226       2   32190   32208       2   32184
   32199       4   32178   32199       4   32169   32190       2   32166   32184
       4   32163   32178       4   32154   32169       2   32151   32163       5
   32151   32166       5   32142   32154       2   32133   32151       6   32124
   32142       2   32115   32133       5   32112   32133       5   32106   32124
       2   32100   32115       4   32097   32112       4   32094   32103       4
   32088   32103       4   32088   32106       7   32085   32097       4   32085
   32100       4   32082   32097       8   32079   32094       4   32076   32088
       4   32073   32085       9   32070   32073      10   32070   32079      11
   32070   32082      12   32067   32076       4   32067   32079       4   32064
   32067      13   32064   32070      14   32064   32073      15   32421   32433
       2   32418   32421       2   32400   32418       2   32382   32400       2
   32376   32391       4   32370   32391       4   32361   32382       2   32358
   32376       4   32355   32370       4   32346   32361       2   32343   32355
       5   32343   32358       5   32334   32346       2   32325   32343       6
   32316   32334       2   32307   32325       5   32304   32325       5   32298
   32316       2   32292   32307       4   32289   32304       4   32286   32295
       4   32280   32295       4   32280   32298       7   32277   32289       4
   32277   32292       4   32274   32289       8   32271   32286       4   32268
   32280       4   32265   32277       9   32262   32265      10   32262   32271
      11   32262   32274      12   32259   32268       4   32259   32271       4
   32256   32259      13   32256   32262      14   32256   32265      15   32613
   32625       2   32610   32613       2   32592   32610       2   32574   32592
       2   32568   32583       4   32562   32583       4   32553   32574       2
   32550   32568       4   32547   32562       4   32538   32553       2   32535
   32547       5   32535   32550       5   32526   32538       2   32517   32535
       6   32508   32526       2   32499   32517       5   32496   32517       5
   32490   32508       2   32484   32499       4   32481   32496       4   32478
   32487       4   32472   32487       4   32472   32490       7   32469   32481
       4   32469   32484       4   32466   32481       8   32463   32478       4
   32460   32472       4   32457   32469       9   32454   32457      10   32454
   32463      11   32454   32466      12   32451   32460       4   32451   32463
       4   32448   32451      13   32448   32454      14   32448   32457      15
   32805   32817       2   32802   32805       2   32784   32802       2   32766
   32784       2   32760   32775       4   32754   32775       4   32745   32766
       2   32742   32760       4   32739   32754       4   32730   32745       2
   32727   32739       5   32727   32742       5   32718   32730       2   32709
   32727       6   32700   32718       2   32691   32709       5   32688   32709
       5   32682   32700       2   32676   32691       4   32673   32688       4
   32670   32679       4   32664   32679       4   32664   32682       7   32661
   32673       4   32661   32676       4   32658   32673       8   32655   32670
       4   32652   32664       4   32649   32661       9   32646   32649      10
   32646   32655      11   32646   32658      12   32643   32652       4   32643
   32655       4   32640   32643      13   32640   32646      14   32640   32649
      15   32997   33009       2   32994   32997       2   32976   32994       2
   32958   32976       2   32952   32967       4   32946   32967       4   32937
   32958       2   32934   32952       4   32931   32946       4   32922   32937
       2   32919   32931       5   32919   32934       5   32910   32922       2
   32901   32919       6   32892   32910       2   32883   32901       5   32880
   32901       5   32874   32892       2   32868   32883       4   32865   32880
       4   32862   32871       4   32856   32871       4   32856   32874       7
   32853   32865       4   32853   32868       4   32850   32865       8   32847
   32862       4   32844   32856       4   32841   32853       9   32838   32841
      10   32838   32847      11   32838   32850      12   32835   32844       4
   32835   32847       4   32832   32835      13   32832   32838      14   32832
   32841      15   33189   33201       2   33186   33189       2   33168   33186
       2   33150   33168       2   33144   33159       4   33138   33159       4
   33129   33150       2   33126   33144       4   33123   33138       4   33114
   33129       2   33111   33123       5   33111   33126       5   33102   33114
       2   33093   33111       6   33084   33102       2   33075   33093       5
   33072   33093       5   33066   33084       2   33060   33075       4   33057
   33072       4   33054   33063       4   33048   33063       4   33048   33066
       7   33045   33057       4   33045   33060       4   33042   33057       8
   33039   33054       4   33036   33048       4   33033   33045       9   33030
   33033      10   33030   33039      11   33030   33042      12   33027   33036
       4   33027   33039       4   33024   33027      13   33024   33030      14
   33024   33033      15   33381   33393       2   33378   33381       2   33360
   33378       2   33342   33360       2   33336   33351       4   33330   33351
       4   33321   33342       2   33318   33336       4   33315   33330       4
   33306   33321       2   33303   33315       5   33303   33318       5   33294
   33306       2   33285   33303       6   33276   33294       2   33267   33285
       5   33264   33285       5   33258   33276       2   33252   33267       4
   33249   33264       4   33246   33255       4   33240   33255       4   33240
   33258       7   33237   33249       4   33237   33252       4   33234   33249
       8   33231   33246       4   33228   33240       4   33225   33237       9
   33222   33225      10   33222   33231      11   33222   33234      12   33219
   33228       4   33219   33231       4   33216   33219      13   33216   33222
      14   33216   33225      15   33573   33585       2   33570   33573       2
   33552   33570       2   33534   33552       2   33528   33543       4   33522
   33543       4   33513   33534       2   33510   33528       4   33507   33522
       4   33498   33513       2   33495   33507       5   33495   33510       5
   33486   33498       2   33477   33495       6   33468   33486       2   33459
   33477       5   33456   33477       5   33450   33468       2   33444   33459
       4   33441   33456       4   33438   33447       4   33432   33447       4
   33432   33450       7   33429   33441       4   33429   33444       4   33426
   33441       8   33423   33438       4   33420   33432       4   33417   33429
       9   33414   33417      10   33414   33423      11   33414   33426      12
   33411   33420       4   33411   33423       4   33408   33411      13   33408
   33414      14   33408   33417      15   33765   33777       2   33762   33765
       2   33744   33762       2   33726   33744       2   33720   33735       4
   33714   33735       4   33705   33726       2   33702   33720       4   33699
   33714       4   33690   33705       2   33687   33699       5   33687   33702
       5   33678   33690       2   33669   33687       6   33660   33678       2
   33651   33669       5   33648   33669       5   33642   33660       2   33636
   33651       4   33633   33648       4   33630   33639       4   33624   33639
       4   33624   33642       7   33621   33633       4   33621   33636       4
   33618   33633       8   33615   33630       4   33612   33624       4   33609
   33621       9   33606   33609      10   33606   33615      11   33606   33618
      12   33603   33612       4   33603   33615       4   33600   33603      13
   33600   33606      14   33600   33609      15   33957   33969       2   33954
   33957       2   33936   33954       2   33918   33936       2   33912   33927
       4   33906   33927       4   33897   33918       2   33894   33912       4
   33891   33906       4   33882   33897       2   33879   33891       5   33879
   33894       5   33870   33882       2   33861   33879       6   33852   33870
       2   33843   33861       5   33840   33861       5   33834   33852       2
   33828   33843       4   33825   33840       4   33822   33831       4   33816
   33831       4   33816   33834       7   33813   33825       4   33813   33828
       4   33810   33825       8   33807   33822       4   33804   33816       4
   33801   33813       9   33798   33801      10   33798   33807      11   33798
   33810      12   33795   33804       4   33795   33807       4   33792   33795
      13   33792   33798      14   33792   33801      15   34149   34161       2
   34146   34149       2   34128   34146       2   34110   34128       2   34104
   34119       4   34098   34119       4   34089   34110       2   34086   34104
       4   34083   34098       4   34074   34089       2   34071   34083       5
   34071   34086       5   34062   34074       2   34053   34071       6   34044
   34062       2   34035   34053       5   34032   34053       5   34026   34044
       2   34020   34035       4   34017   34032       4   34014   34023       4
   34008   34023       4   34008   34026       7   34005   34017       4   34005
   34020       4   34002   34017       8   33999   34014       4   33996   34008
       4   33993   34005       9   33990   33993      10   33990   33999      11
   33990   34002      12   33987   33996       4   33987   33999       4   33984
   33987      13   33984   33990      14   33984   33993      15   34341   34353
       2   34338   34341       2   34320   34338       2   34302   34320       2
   34296   34311       4   34290   34311       4   34281   34302       2   34278
   34296       4   34275   34290       4   34266   34281       2   34263   34275
       5   34263   34278       5   34254   34266       2   34245   34263       6
   34236   34254       2   34227   34245       5   34224   34245       5   34218
   34236       2   34212   34227       4   34209   34224       4   34206   34215
       4   34200   34215       4   34200   34218       7   34197   34209       4
   34197   34212       4   34194   34209       8   34191   34206       4   34188
   34200       4   34185   34197       9   34182   34185      10   34182   34191
      11   34182   34194      12   34179   34188       4   34179   34191       4
   34176   34179      13   34176   34182      14   34176   34185      15   34533
   34545       2   34530   34533       2   34512   34530       2   34494   34512
       2   34488   34503       4   34482   34503       4   34473   34494       2
   34470   34488       4   34467   34482       4   34458   34473       2   34455
   34467       5   34455   34470       5   34446   34458       2   34437   34455
       6   34428   34446       2   34419   34437       5   34416   34437       5
   34410   34428       2   34404   34419       4   34401   34416       4   34398
   34407       4   34392   34407       4   34392   34410       7   34389   34401
       4   34389   34404       4   34386   34401       8   34383   34398       4
   34380   34392       4   34377   34389       9   34374   34377      10   34374
   34383      11   34374   34386      12   34371   34380       4   34371   34383
       4   34368   34371      13   34368   34374      14   34368   34377      15
   34725   34737       2   34722   34725       2   34704   34722       2   34686
   34704       2   34680   34695       4   34674   34695       4   34665   34686
       2   34662   34680       4   34659   34674       4   34650   34665       2
   34647   34659       5   34647   34662       5   34638   34650       2   34629
   34647       6   34620   34638       2   34611   34629       5   34608   34629
       5   34602   34620       2   34596   34611       4   34593   34608       4
   34590   34599       4   34584   34599       4   34584   34602       7   34581
   34593       4   34581   34596       4   34578   34593       8   34575   34590
       4   34572   34584       4   34569   34581       9   34566   34569      10
   34566   34575      11   34566   34578      12   34563   34572       4   34563
   34575       4   34560   34563      13   34560   34566      14   34560   34569
      15   34917   34929       2   34914   34917       2   34896   34914       2
   34878   34896       2   34872   34887       4   34866   34887       4   34857
   34878       2   34854   34872       4   34851   34866       4   34842   34857
       2   34839   34851       5   34839   34854       5   34830   34842       2
   34821   34839       6   34812   34830       2   34803   34821       5   34800
   34821       5   34794   34812       2   34788   34803       4   34785   34800
       4   34782   34791       4   34776   34791       4   34776   34794       7
   34773   34785       4   34773   34788       4   34770   34785       8   34767
   34782       4   34764   34776       4   34761   34773       9   34758   34761
      10   34758   34767      11   34758   34770      12   34755   34764       4
   34755   34767       4   34752   34755      13   34752   34758      14   34752
   34761      15   35109   35121       2   35106   35109       2   35088   35106
       2   35070   35088       2   35064   35079       4   35058   35079       4
   35049   35070       2   35046   35064       4   35043   35058       4   35034
   35049       2   35031   35043       5   35031   35046       5   35022   35034
       2   35013   35031       6   35004   35022       2   34995   35013       5
   34992   35013       5   34986   35004       2   34980   34995       4   34977
   34992       4   34974   34983       4   34968   34983       4   34968   34986
       7   34965   34977       4   34965   34980       4   34962   34977       8
   34959   34974       4   34956   34968       4   34953   34965       9   34950
   34953      10   34950   34959      11   34950   34962      12   34947   34956
       4   34947   34959       4   34944   34947      13   34944   34950      14
   34944   34953      15   35301   35313       2   35298   35301       2   35280
   35298       2   35262   35280       2   35256   35271       4   35250   35271
       4   35241   35262       2   35238   35256       4   35235   35250       4
   35226   35241       2   35223   35235       5   35223   35238       5   35214
   35226       2   35205   35223       6   35196   35214       2   35187   35205
       5   35184   35205       5   35178   35196       2   35172   35187       4
   35169   35184       4   35166   35175       4   35160   35175       4   35160
   35178       7   35157   35169       4   35157   35172       4   35154   35169
       8   35151   35166       4   35148   35160       4   35145   35157       9
   35142   35145      10   35142   35151      11   35142   35154      12   35139
   35148       4   35139   35151       4   35136   35139      13   35136   35142
      14   35136   35145      15   35493   35505       2   35490   35493       2
   35472   35490       2   35454   35472       2   35448   35463       4   35442
   35463       4   35433   35454       2   35430   35448       4   35427   35442
       4   35418   35433       2   35415   35427       5   35415   35430       5
   35406   35418       2   35397   35415       6   35388   35406       2   35379
   35397       5   35376   35397       5   35370   35388       2   35364   35379
       4   35361   35376       4   35358   35367       4   35352   35367       4
   35352   35370       7   35349   35361       4   35349   35364       4   35346
   35361       8   35343   35358       4   35340   35352       4   35337   35349
       9   35334   35337      10   35334   35343      11   35334   35346      12
   35331   35340       4   35331   35343       4   35328   35331      13   35328
   35334      14   35328   35337      15   35685   35697       2   35682   35685
       2   35664   35682       2   35646   35664       2   35640   35655       4
   35634   35655       4   35625   35646       2   35622   35640       4   35619
   35634       4   35610   35625       2   35607   35619       5   35607   35622
       5   35598   35610       2   35589   35607       6   35580   35598       2
   35571   35589       5   35568   35589       5   35562   35580       2   35556
   35571       4   35553   35568       4   35550   35559       4   35544   35559
       4   35544   35562       7   35541   35553       4   35541   35556       4
   35538   35553       8   35535   35550       4   35532   35544       4   35529
   35541       9   35526   35529      10   35526   35535      11   35526   35538
      12   35523   35532       4   35523   35535       4   35520   35523      13
   35520   35526      14   35520   35529      15   35877   35889       2   35874
   35877       2   35856   35874       2   35838   35856       2   35832   35847
       4   35826   35847       4   35817   35838       2   35814   35832       4
   35811   35826       4   35802   35817       2   35799   35811       5   35799
   35814       5   35790   35802       2   35781   35799       6   35772   35790
       2   35763   35781       5   35760   35781       5   35754   35772       2
   35748   35763       4   35745   35760       4   35742   35751       4   35736
   35751       4   35736   35754       7   35733   35745       4   35733   35748
       4   35730   35745       8   35727   35742       4   35724   35736       4
   35721   35733       9   35718   35721      10   35718   35727      11   35718
   35730      12   35715   35724       4   35715   35727       4   35712   35715
      13   35712   35718      14   35712   35721      15   36069   36081       2
   36066   36069       2   36048   36066       2   36030   36048       2   36024
   36039       4   36018   36039       4   36009   36030       2   36006   36024
       4   36003   36018       4   35994   36009       2   35991   36003       5
   35991   36006       5   35982   35994       2   35973   35991       6   35964
   35982       2   35955   35973       5   35952   35973       5   35946   35964
       2   35940   35955       4   35937   35952       4   35934   35943       4
   35928   35943       4   35928   35946       7   35925   35937       4   35925
   35940       4   35922   35937       8   35919   35934       4   35916   35928
       4   35913   35925       9   35910   35913      10   35910   35919      11
   35910   35922      12   35907   35916       4   35907   35919       4   35904
   35907      13   35904   35910      14   35904   35913      15   36261   36273
       2   36258   36261       2   36240   36258       2   36222   36240       2
   36216   36231       4   36210   36231       4   36201   36222       2   36198
   36216       4   36195   36210       4   36186   36201       2   36183   36195
       5   36183   36198       5   36174   36186       2   36165   36183       6
   36156   36174       2   36147   36165       5   36144   36165       5   36138
   36156       2   36132   36147       4   36129   36144       4   36126   36135
       4   36120   36135       4   36120   36138       7   36117   36129       4
   36117   36132       4   36114   36129       8   36111   36126       4   36108
   36120       4   36105   36117       9   36102   36105      10   36102   36111
      11   36102   36114      12   36099   36108       4   36099   36111       4
   36096   36099      13   36096   36102      14   36096   36105      15   36453
   36465       2   36450   36453       2   36432   36450       2   36414   36432
       2   36408   36423       4   36402   36423       4   36393   36414       2
   36390   36408       4   36387   36402       4   36378   36393       2   36375
   36387       5   36375   36390       5   36366   36378       2   36357   36375
       6   36348   36366       2   36339   36357       5   36336   36357       5
   36330   36348       2   36324   36339       4   36321   36336       4   36318
   36327       4   36312   36327       4   36312   36330       7   36309   36321
       4   36309   36324       4   36306   36321       8   36303   36318       4
   36300   36312       4   36297   36309       9   36294   36297      10   36294
   36303      11   36294   36306      12   36291   36300       4   36291   36303
       4   36288   36291      13   36288   36294      14   36288   36297      15
   36645   36657       2   36642   36645       2   36624   36642       2   36606
   36624       2   36600   36615       4   36594   36615       4   36585   36606
       2   36582   36600       4   36579   36594       4   36570   36585       2
   36567   36579       5   36567   36582       5   36558   36570       2   36549
   36567       6   36540   36558       2   36531   36549       5   36528   36549
       5   36522   36540       2   36516   36531       4   36513   36528       4
   36510   36519       4   36504   36519       4   36504   36522       7   36501
   36513       4   36501   36516       4   36498   36513       8   36495   36510
       4   36492   36504       4   36489   36501       9   36486   36489      10
   36486   36495      11   36486   36498      12   36483   36492       4   36483
   36495       4   36480   36483      13   36480   36486      14   36480   36489
      15   36837   36849       2   36834   36837       2   36816   36834       2
   36798   36816       2   36792   36807       4   36786   36807       4   36777
   36798       2   36774   36792       4   36771   36786       4   36762   36777
       2   36759   36771       5   36759   36774       5   36750   36762       2
   36741   36759       6   36732   36750       2   36723   36741       5   36720
   36741       5   36714   36732       2   36708   36723       4   36705   36720
       4   36702   36711       4   36696   36711       4   36696   36714       7
   36693   36705       4   36693   36708       4   36690   36705       8   36687
   36702       4   36684   36696       4   36681   36693       9   36678   36681
      10   36678   36687      11   36678   36690      12   36675   36684       4
   36675   36687       4   36672   36675      13   36672   36678      14   36672
   36681      15   37029   37041       2   37026   37029       2   37008   37026
       2   36990   37008       2   36984   36999       4   36978   36999       4
   36969   36990       2   36966   36984       4   36963   36978       4   36954
   36969       2   36951   36963       5   36951   36966       5   36942   36954
       2   36933   36951       6   36924   36942       2   36915   36933       5
   36912   36933       5   36906   36924       2   36900   36915       4   36897
   36912       4   36894   36903       4   36888   36903       4   36888   36906
       7   36885   36897       4   36885   36900       4   36882   36897       8
   36879   36894       4   36876   36888       4   36873   36885       9   36870
   36873      10   36870   36879      11   36870   36882      12   36867   36876
       4   36867   36879       4   36864   36867      13   36864   36870      14
   36864   36873      15   37221   37233       2   37218   37221       2   37200
   37218       2   37182   37200       2   37176   37191       4   37170   37191
       4   37161   37182       2   37158   37176       4   37155   37170       4
   37146   37161       2   37143   37155       5   37143   37158       5   37134
   37146       2   37125   37143       6   37116   37134       2   37107   37125
       5   37104   37125       5   37098   37116       2   37092   37107       4
   37089   37104       4   37086   37095       4   37080   37095       4   37080
   37098       7   37077   37089       4   37077   37092       4   37074   37089
       8   37071   37086       4   37068   37080       4   37065   37077       9
   37062   37065      10   37062   37071      11   37062   37074      12   37059
   37068       4   37059   37071       4   37056   37059      13   37056   37062
      14   37056   37065      15   37413   37425       2   37410   37413       2
   37392   37410       2   37374   37392       2   37368   37383       4   37362
   37383       4   37353   37374       2   37350   37368       4   37347   37362
       4   37338   37353       2   37335   37347       5   37335   37350       5
   37326   37338       2   37317   37335       6   37308   37326       2   37299
   37317       5   37296   37317       5   37290   37308       2   37284   37299
       4   37281   37296       4   37278   37287       4   37272   37287       4
   37272   37290       7   37269   37281       4   37269   37284       4   37266
   37281       8   37263   37278       4   37260   37272       4   37257   37269
       9   37254   37257      10   37254   37263      11   37254   37266      12
   37251   37260       4   37251   37263       4   37248   37251      13   37248
   37254      14   37248   37257      15   37605   37617       2   37602   37605
       2   37584   37602       2   37566   37584       2   37560   37575       4
   37554   37575       4   37545   37566       2   37542   37560       4   37539
   37554       4   37530   37545       2   37527   37539       5   37527   37542
       5   37518   37530       2   37509   37527       6   37500   37518       2
   37491   37509       5   37488   37509       5   37482   37500       2   37476
   37491       4   37473   37488       4   37470   37479       4   37464   37479
       4   37464   37482       7   37461   37473       4   37461   37476       4
   37458   37473       8   37455   37470       4   37452   37464       4   37449
   37461       9   37446   37449      10   37446   37455      11   37446   37458
      12   37443   37452       4   37443   37455       4   37440   37443      13
   37440   37446      14   37440   37449      15   37797   37809       2   37794
   37797       2   37776   37794       2   37758   37776       2   37752   37767
       4   37746   37767       4   37737   37758       2   37734   37752       4
   37731   37746       4   37722   37737       2   37719   37731       5   37719
   37734       5   37710   37722       2   37701   37719       6   37692   37710
       2   37683   37701       5   37680   37701       5   37674   37692       2
   37668   37683       4   37665   37680       4   37662   37671       4   37656
   37671       4   37656   37674       7   37653   37665       4   37653   37668
       4   37650   37665       8   37647   37662       4   37644   37656       4
   37641   37653       9   37638   37641      10   37638   37647      11   37638
   37650      12   37635   37644       4   37635   37647       4   37632   37635
      13   37632   37638      14   37632   37641      15   37989   38001       2
   37986   37989       2   37968   37986       2   37950   37968       2   37944
   37959       4   37938   37959       4   37929   37950       2   37926   37944
       4   37923   37938       4   37914   37929       2   37911   37923       5
   37911   37926       5   37902   37914       2   37893   37911       6   37884
   37902       2   37875   37893       5   37872   37893       5   37866   37884
       2   37860   37875       4   37857   37872       4   37854   37863       4
   37848   37863       4   37848   37866       7   37845   37857       4   37845
   37860       4   37842   37857       8   37839   37854       4   37836   37848
       4   37833   37845       9   37830   37833      10   37830   37839      11
   37830   37842      12   37827   37836       4   37827   37839       4   37824
   37827      13   37824   37830      14   37824   37833      15   38181   38193
       2   38178   38181       2   38160   38178       2   38142   38160       2
   38136   38151       4   38130   38151       4   38121   38142       2   38118
   38136       4   38115   38130       4   38106   38121       2   38103   38115
       5   38103   38118       5   38094   38106       2   38085   38103       6
   38076   38094       2   38067   38085       5   38064   38085       5   38058
   38076       2   38052   38067       4   38049   38064       4   38046   38055
       4   38040   38055       4   38040   38058       7   38037   38049       4
   38037   38052       4   38034   38049       8   38031   38046       4   38028
   38040       4   38025   38037       9   38022   38025      10   38022   38031
      11   38022   38034      12   38019   38028       4   38019   38031       4
   38016   38019      13   38016   38022      14   38016   38025      15   38373
   38385       2   38370   38373       2   38352   38370       2   38334   38352
       2   38328   38343       4   38322   38343       4   38313   38334       2
   38310   38328       4   38307   38322       4   38298   38313       2   38295
   38307       5   38295   38310       5   38286   38298       2   38277   38295
       6   38268   38286       2   38259   38277       5   38256   38277       5
   38250   38268       2   38244   38259       4   38241   38256       4   38238
   38247       4   38232   38247       4   38232   38250       7   38229   38241
       4   38229   38244       4   38226   38241       8   38223   38238       4
   38220   38232       4   38217   38229       9   38214   38217      10   38214
   38223      11   38214   38226      12   38211   38220       4   38211   38223
       4   38208   38211      13   38208   38214      14   38208   38217      15
   38565   38577       2   38562   38565       2   38544   38562       2   38526
   38544       2   38520   38535       4   38514   38535       4   38505   38526
       2   38502   38520       4   38499   38514       4   38490   38505       2
   38487   38499       5   38487   38502       5   38478   38490       2   38469
   38487       6   38460   38478       2   38451   38469       5   38448   38469
       5   38442   38460       2   38436   38451       4   38433   38448       4
   38430   38439       4   38424   38439       4   38424   38442       7   38421
   38433       4   38421   38436       4   38418   38433       8   38415   38430
       4   38412   38424       4   38409   38421       9   38406   38409      10
   38406   38415      11   38406   38418      12   38403   38412       4   38403
   38415       4   38400   38403      13   38400   38406      14   38400   38409
      15   38757   38769       2   38754   38757       2   38736   38754       2
   38718   38736       2   38712   38727       4   38706   38727       4   38697
   38718       2   38694   38712       4   38691   38706       4   38682   38697
       2   38679   38691       5   38679   38694       5   38670   38682       2
   38661   38679       6   38652   38670       2   38643   38661       5   38640
   38661       5   38634   38652       2   38628   38643       4   38625   38640
       4   38622   38631       4   38616   38631       4   38616   38634       7
   38613   38625       4   38613   38628       4   38610   38625       8   38607
   38622       4   38604   38616       4   38601   38613       9   38598   38601
      10   38598   38607      11   38598   38610      12   38595   38604       4
   38595   38607       4   38592   38595      13   38592   38598      14   38592
   38601      15   38949   38961       2   38946   38949       2   38928   38946
       2   38910   38928       2   38904   38919       4   38898   38919       4
   38889   38910       2   38886   38904       4   38883   38898       4   38874
   38889       2   38871   38883       5   38871   38886       5   38862   38874
       2   38853   38871       6   38844   38862       2   38835   38853       5
   38832   38853       5   38826   38844       2   38820   38835       4   38817
   38832       4   38814   38823       4   38808   38823       4   38808   38826
       7   38805   38817       4   38805   38820       4   38802   38817       8
   38799   38814       4   38796   38808       4   38793   38805       9   38790
   38793      10   38790   38799      11   38790   38802      12   38787   38796
       4   38787   38799       4   38784   38787      13   38784   38790      14
   38784   38793      15   39141   39153       2   39138   39141       2   39120
   39138       2   39102   39120       2   39096   39111       4   39090   39111
       4   39081   39102       2   39078   39096       4   39075   39090       4
   39066   39081       2   39063   39075       5   39063   39078       5   39054
   39066       2   39045   39063       6   39036   39054       2   39027   39045
       5   39024   39045       5   39018   39036       2   39012   39027       4
   39009   39024       4   39006   39015       4   39000   39015       4   39000
   39018       7   38997   39009       4   38997   39012       4   38994   39009
       8   38991   39006       4   38988   39000       4   38985   38997       9
   38982   38985      10   38982   38991      11   38982   38994      12   38979
   38988       4   38979   38991       4   38976   38979      13   38976   38982
      14   38976   38985      15   39333   39345       2   39330   39333       2
   39312   39330       2   39294   39312       2   39288   39303       4   39282
   39303       4   39273   39294       2   39270   39288       4   39267   39282
       4   39258   39273       2   39255   39267       5   39255   39270       5
   39246   39258       2   39237   39255       6   39228   39246       2   39219
   39237       5   39216   39237       5   39210   39228       2   39204   39219
       4   39201   39216       4   39198   39207       4   39192   39207       4
   39192   39210       7   39189   39201       4   39189   39204       4   39186
   39201       8   39183   39198       4   39180   39192       4   39177   39189
       9   39174   39177      10   39174   39183      11   39174   39186      12
   39171   39180       4   39171   39183       4   39168   39171      13   39168
   39174      14   39168   39177      15   39525   39537       2   39522   39525
       2   39504   39522       2   39486   39504       2   39480   39495       4
   39474   39495       4   39465   39486       2   39462   39480       4   39459
   39474       4   39450   39465       2   39447   39459       5   39447   39462
       5   39438   39450       2   39429   39447       6   39420   39438       2
   39411   39429       5   39408   39429       5   39402   39420       2   39396
   39411       4   39393   39408       4   39390   39399       4   39384   39399
       4   39384   39402       7   39381   39393       4   39381   39396       4
   39378   39393       8   39375   39390       4   39372   39384       4   39369
   39381       9   39366   39369      10   39366   39375      11   39366   39378
      12   39363   39372       4   39363   39375       4   39360   39363      13
   39360   39366      14   39360   39369      15   39717   39729       2   39714
   39717       2   39696   39714       2   39678   39696       2   39672   39687
       4   39666   39687       4   39657   39678       2   39654   39672       4
   39651   39666       4   39642   39657       2   39639   39651       5   39639
   39654       5   39630   39642       2   39621   39639       6   39612   39630
       2   39603   39621       5   39600   39621       5   39594   39612       2
   39588   39603       4   39585   39600       4   39582   39591       4   39576
   39591       4   39576   39594       7   39573   39585       4   39573   39588
       4   39570   39585       8   39567   39582       4   39564   39576       4
   39561   39573       9   39558   39561      10   39558   39567      11   39558
   39570      12   39555   39564       4   39555   39567       4   39552   39555
      13   39552   39558      14   39552   39561      15   39909   39921       2
   39906   39909       2   39888   39906       2   39870   39888       2   39864
   39879       4   39858   39879       4   39849   39870       2   39846   39864
       4   39843   39858       4   39834   39849       2   39831   39843       5
   39831   39846       5   39822   39834       2   39813   39831       6   39804
   39822       2   39795   39813       5   39792   39813       5   39786   39804
       2   39780   39795       4   39777   39792       4   39774   39783       4
   39768   39783       4   39768   39786       7   39765   39777       4   39765
   39780       4   39762   39777       8   39759   39774       4   39756   39768
       4   39753   39765       9   39750   39753      10   39750   39759      11
   39750   39762      12   39747   39756       4   39747   39759       4   39744
   39747      13   39744   39750      14   39744   39753      15   40101   40113
       2   40098   40101       2   40080   40098       2   40062   40080       2
   40056   40071       4   40050   40071       4   40041   40062       2   40038
   40056       4   40035   40050       4   40026   40041       2   40023   40035
       5   40023   40038       5   40014   40026       2   40005   40023       6
   39996   40014       2   39987   40005       5   39984   40005       5   39978
   39996       2   39972   39987       4   39969   39984       4   39966   39975
       4   39960   39975       4   39960   39978       7   39957   39969       4
   39957   39972       4   39954   39969       8   39951   39966       4   39948
   39960       4   39945   39957       9   39942   39945      10   39942   39951
      11   39942   39954      12   39939   39948       4   39939   39951       4
   39936   39939      13   39936   39942      14   39936   39945      15   40293
   40305       2   40290   40293       2   40272   40290       2   40254   40272
       2   40248   40263       4   40242   40263       4   40233   40254       2
   40230   40248       4   40227   40242       4   40218   40233       2   40215
   40227       5   40215   40230       5   40206   40218       2   40197   40215
       6   40188   40206       2   40179   40197       5   40176   40197       5
   40170   40188       2   40164   40179       4   40161   40176       4   40158
   40167       4   40152   40167       4   40152   40170       7   40149   40161
       4   40149   40164       4   40146   40161       8   40143   40158       4
   40140   40152       4   40137   40149       9   40134   40137      10   40134
   40143      11   40134   40146      12   40131   40140       4   40131   40143
       4   40128   40131      13   40128   40134      14   40128   40137      15
   40485   40497       2   40482   40485       2   40464   40482       2   40446
   40464       2   40440   40455       4   40434   40455       4   40425   40446
       2   40422   40440       4   40419   40434       4   40410   40425       2
   40407   40419       5   40407   40422       5   40398   40410       2   40389
   40407       6   40380   40398       2   40371   40389       5   40368   40389
       5   40362   40380       2   40356   40371       4   40353   40368       4
   40350   40359       4   40344   40359       4   40344   40362       7   40341
   40353       4   40341   40356       4   40338   40353       8   40335   40350
       4   40332   40344       4   40329   40341       9   40326   40329      10
   40326   40335      11   40326   40338      12   40323   40332       4   40323
   40335       4   40320   40323      13   40320   40326      14   40320   40329
      15   40677   40689       2   40674   40677       2   40656   40674       2
   40638   40656       2   40632   40647       4   40626   40647       4   40617
   40638       2   40614   40632       4   40611   40626       4   40602   40617
       2   40599   40611       5   40599   40614       5   40590   40602       2
   40581   40599       6   40572   40590       2   40563   40581       5   40560
   40581       5   40554   40572       2   40548   40563       4   40545   40560
       4   40542   40551       4   40536   40551       4   40536   40554       7
   40533   40545       4   40533   40548       4   40530   40545       8   40527
   40542       4   40524   40536       4   40521   40533       9   40518   40521
      10   40518   40527      11   40518   40530      12   40515   40524       4
   40515   40527       4   40512   40515      13   40512   40518      14   40512
   40521      15   40869   40881       2   40866   40869       2   40848   40866
       2   40830   40848       2   40824   40839       4   40818   40839       4
   40809   40830       2   40806   40824       4   40803   40818       4   40794
   40809       2   40791   40803       5   40791   40806       5   40782   40794
       2   40773   40791       6   40764   40782       2   40755   40773       5
   40752   40773       5   40746   40764       2   40740   40755       4   40737
   40752       4   40734   40743       4   40728   40743       4   40728   40746
       7   40725   40737       4   40725   40740       4   40722   40737       8
   40719   40734       4   40716   40728       4   40713   40725       9   40710
   40713      10   40710   40719      11   40710   40722      12   40707   40716
       4   40707   40719       4   40704   40707      13   40704   40710      14
   40704   40713      15   41061   41073       2   41058   41061       2   41040
   41058       2   41022   41040       2   41016   41031       4   41010   41031
       4   41001   41022       2   40998   41016       4   40995   41010       4
   40986   41001       2   40983   40995       5   40983   40998       5   40974
   40986       2   40965   40983       6   40956   40974       2   40947   40965
       5   40944   40965       5   40938   40956       2   40932   40947       4
   40929   40944       4   40926   40935       4   40920   40935       4   40920
   40938       7   40917   40929       4   40917   40932       4   40914   40929
       8   40911   40926       4   40908   40920       4   40905   40917       9
   40902   40905      10   40902   40911      11   40902   40914      12   40899
   40908       4   40899   40911       4   40896   40899      13   40896   40902
      14   40896   40905      15   41253   41265       2   41250   41253       2
   41232   41250       2   41214   41232       2   41208   41223       4   41202
   41223       4   41193   41214       2   41190   41208       4   41187   41202
       4   41178   41193       2   41175   41187       5   41175   41190       5
   41166   41178       2   41157   41175       6   41148   41166       2   41139
   41157       5   41136   41157       5   41130   41148       2   41124   41139
       4   41121   41136       4   41118   41127       4   41112   41127       4
   41112   41130       7   41109   41121       4   41109   41124       4   41106
   41121       8   41103   41118       4   41100   41112       4   41097   41109
       9   41094   41097      10   41094   41103      11   41094   41106      12
   41091   41100       4   41091   41103       4   41088   41091      13   41088
   41094      14   41088   41097      15   41445   41457       2   41442   41445
       2   41424   41442       2   41406   41424       2   41400   41415       4
   41394   41415       4   41385   41406       2   41382   41400       4   41379
   41394       4   41370   41385       2   41367   41379       5   41367   41382
       5   41358   41370       2   41349   41367       6   41340   41358       2
   41331   41349       5   41328   41349       5   41322   41340       2   41316
   41331       4   41313   41328       4   41310   41319       4   41304   41319
       4   41304   41322       7   41301   41313       4   41301   41316       4
   41298   41313       8   41295   41310       4   41292   41304       4   41289
   41301       9   41286   41289      10   41286   41295      11   41286   41298
      12   41283   41292       4   41283   41295       4   41280   41283      13
   41280   41286      14   41280   41289      15   41637   41649       2   41634
   41637       2   41616   41634       2   41598   41616       2   41592   41607
       4   41586   41607       4   41577   41598       2   41574   41592       4
   41571   41586       4   41562   41577       2   41559   41571       5   41559
   41574       5   41550   41562       2   41541   41559       6   41532   41550
       2   41523   41541       5   41520   41541       5   41514   41532       2
   41508   41523       4   41505   41520       4   41502   41511       4   41496
   41511       4   41496   41514       7   41493   41505       4   41493   41508
       4   41490   41505       8   41487   41502       4   41484   41496       4
   41481   41493       9   41478   41481      10   41478   41487      11   41478
   41490      12   41475   41484       4   41475   41487       4   41472   41475
      13   41472   41478      14   41472   41481      15   41829   41841       2
   41826   41829       2   41808   41826       2   41790   41808       2   41784
   41799       4   41778   41799       4   41769   41790       2   41766   41784
       4   41763   41778       4   41754   41769       2   41751   41763       5
   41751   41766       5   41742   41754       2   41733   41751       6   41724
   41742       2   41715   41733       5   41712   41733       5   41706   41724
       2   41700   41715       4   41697   41712       4   41694   41703       4
   41688   41703       4   41688   41706       7   41685   41697       4   41685
   41700       4   41682   41697       8   41679   41694       4   41676   41688
       4   41673   41685       9   41670   41673      10   41670   41679      11
   41670   41682      12   41667   41676       4   41667   41679       4   41664
   41667      13   41664   41670      14   41664   41673      15   42021   42033
       2   42018   42021       2   42000   42018       2   41982   42000       2
   41976   41991       4   41970   41991       4   41961   41982       2   41958
   41976       4   41955   41970       4   41946   41961       2   41943   41955
       5   41943   41958       5   41934   41946       2   41925   41943       6
   41916   41934       2   41907   41925       5   41904   41925       5   41898
   41916       2   41892   41907       4   41889   41904       4   41886   41895
       4   41880   41895       4   41880   41898       7   41877   41889       4
   41877   41892       4   41874   41889       8   41871   41886       4   41868
   41880       4   41865   41877       9   41862   41865      10   41862   41871
      11   41862   41874      12   41859   41868       4   41859   41871       4
   41856   41859      13   41856   41862      14   41856   41865      15   42213
   42225       2   42210   42213       2   42192   42210       2   42174   42192
       2   42168   42183       4   42162   42183       4   42153   42174       2
   42150   42168       4   42147   42162       4   42138   42153       2   42135
   42147       5   42135   42150       5   42126   42138       2   42117   42135
       6   42108   42126       2   42099   42117       5   42096   42117       5
   42090   42108       2   42084   42099       4   42081   42096       4   42078
   42087       4   42072   42087       4   42072   42090       7   42069   42081
       4   42069   42084       4   42066   42081       8   42063   42078       4
   42060   42072       4   42057   42069       9   42054   42057      10   42054
   42063      11   42054   42066      12   42051   42060       4   42051   42063
       4   42048   42051      13   42048   42054      14   42048   42057      15
   42405   42417       2   42402   42405       2   42384   42402       2   42366
   42384       2   42360   42375       4   42354   42375       4   42345   42366
       2   42342   42360       4   42339   42354       4   42330   42345       2
   42327   42339       5   42327   42342       5   42318   42330       2   42309
   42327       6   42300   42318       2   42291   42309       5   42288   42309
       5   42282   42300       2   42276   42291       4   42273   42288       4
   42270   42279       4   42264   42279       4   42264   42282       7   42261
   42273       4   42261   42276       4   42258   42273       8   42255   42270
       4   42252   42264       4   42249   42261       9   42246   42249      10
   42246   42255      11   42246   42258      12   42243   42252       4   42243
   42255       4   42240   42243      13   42240   42246      14   42240   42249
      15   42597   42609       2   42594   42597       2   42576   42594       2
   42558   42576       2   42552   42567       4   42546   42567       4   42537
   42558       2   42534   42552       4   42531   42546       4   42522   42537
       2   42519   42531       5   42519   42534       5   42510   42522       2
   42501   42519       6   42492   42510       2   42483   42501       5   42480
   42501       5   42474   42492       2   42468   42483       4   42465   42480
       4   42462   42471       4   42456   42471       4   42456   42474       7
   42453   42465       4   42453   42468       4   42450   42465       8   42447
   42462       4   42444   42456       4   42441   42453       9   42438   42441
      10   42438   42447      11   42438   42450      12   42435   42444       4
   42435   42447       4   42432   42435      13   42432   42438      14   42432
   42441      15   42789   42801       2   42786   42789       2   42768   42786
       2   42750   42768       2   42744   42759       4   42738   42759       4
   42729   42750       2   42726   42744       4   42723   42738       4   42714
   42729       2   42711   42723       5   42711   42726       5   42702   42714
       2   42693   42711       6   42684   42702       2   42675   42693       5
   42672   42693       5   42666   42684       2   42660   42675       4   42657
   42672       4   42654   42663       4   42648   42663       4   42648   42666
       7   42645   42657       4   42645   42660       4   42642   42657       8
   42639   42654       4   42636   42648       4   42633   42645       9   42630
   42633      10   42630   42639      11   42630   42642      12   42627   42636
       4   42627   42639       4   42624   42627      13   42624   42630      14
   42624   42633      15   42981   42993       2   42978   42981       2   42960
   42978       2   42942   42960       2   42936   42951       4   42930   42951
       4   42921   42942       2   42918   42936       4   42915   42930       4
   42906   42921       2   42903   42915       5   42903   42918       5   42894
   42906       2   42885   42903       6   42876   42894       2   42867   42885
       5   42864   42885       5   42858   42876       2   42852   42867       4
   42849   42864       4   42846   42855       4   42840   42855       4   42840
   42858       7   42837   42849       4   42837   42852       4   42834   42849
       8   42831   42846       4   42828   42840       4   42825   42837       9
   42822   42825      10   42822   42831      11   42822   42834      12   42819
   42828       4   42819   42831       4   42816   42819      13   42816   42822
      14   42816   42825      15   43173   43185       2   43170   43173       2
   43152   43170       2   43134   43152       2   43128   43143       4   43122
   43143       4   43113   43134       2   43110   43128       4   43107   43122
       4   43098   43113       2   43095   43107       5   43095   43110       5
   43086   43098       2   43077   43095       6   43068   43086       2   43059
   43077       5   43056   43077       5   43050   43068       2   43044   43059
       4   43041   43056       4   43038   43047       4   43032   43047       4
   43032   43050       7   43029   43041       4   43029   43044       4   43026
   43041       8   43023   43038       4   43020   43032       4   43017   43029
       9   43014   43017      10   43014   43023      11   43014   43026      12
   43011   43020       4   43011   43023       4   43008   43011      13   43008
   43014      14   43008   43017      15   43365   43377       2   43362   43365
       2   43344   43362       2   43326   43344       2   43320   43335       4
   43314   43335       4   43305   43326       2   43302   43320       4   43299
   43314       4   43290   43305       2   43287   43299       5   43287   43302
       5   43278   43290       2   43269   43287       6   43260   43278       2
   43251   43269       5   43248   43269       5   43242   43260       2   43236
   43251       4   43233   43248       4   43230   43239       4   43224   43239
       4   43224   43242       7   43221   43233       4   43221   43236       4
   43218   43233       8   43215   43230       4   43212   43224       4   43209
   43221       9   43206   43209      10   43206   43215      11   43206   43218
      12   43203   43212       4   43203   43215       4   43200   43203      13
   43200   43206      14   43200   43209      15   43557   43569       2   43554
   43557       2   43536   43554       2   43518   43536       2   43512   43527
       4   43506   43527       4   43497   43518       2   43494   43512       4
   43491   43506       4   43482   43497       2   43479   43491       5   43479
   43494       5   43470   43482       2   43461   43479       6   43452   43470
       2   43443   43461       5   43440   43461       5   43434   43452       2
   43428   43443       4   43425   43440       4   43422   43431       4   43416
   43431       4   43416   43434       7   43413   43425       4   43413   43428
       4   43410   43425       8   43407   43422       4   43404   43416       4
   43401   43413       9   43398   43401      10   43398   43407      11   43398
   43410      12   43395   43404       4   43395   43407       4   43392   43395
      13   43392   43398      14   43392   43401      15   43749   43761       2
   43746   43749       2   43728   43746       2   43710   43728       2   43704
   43719       4   43698   43719       4   43689   43710       2   43686   43704
       4   43683   43698       4   43674   43689       2   43671   43683       5
   43671   43686       5   43662   43674       2   43653   43671       6   43644
   43662       2   43635   43653       5   43632   43653       5   43626   43644
       2   43620   43635       4   43617   43632       4   43614   43623       4
   43608   43623       4   43608   43626       7   43605   43617       4   43605
   43620       4   43602   43617       8   43599   43614       4   43596   43608
       4   43593   43605       9   43590   43593      10   43590   43599      11
   43590   43602      12   43587   43596       4   43587   43599       4   43584
   43587      13   43584   43590      14   43584   43593      15   43941   43953
       2   43938   43941       2   43920   43938       2   43902   43920       2
   43896   43911       4   43890   43911       4   43881   43902       2   43878
   43896       4   43875   43890       4   43866   43881       2   43863   43875
       5   43863   43878       5   43854   43866       2   43845   43863       6
   43836   43854       2   43827   43845       5   43824   43845       5   43818
   43836       2   43812   43827       4   43809   43824       4   43806   43815
       4   43800   43815       4   43800   43818       7   43797   43809       4
   43797   43812       4   43794   43809       8   43791   43806       4   43788
   43800       4   43785   43797       9   43782   43785      10   43782   43791
      11   43782   43794      12   43779   43788       4   43779   43791       4
   43776   43779      13   43776   43782      14   43776   43785      15   44133
   44145       2   44130   44133       2   44112   44130       2   44094   44112
       2   44088   44103       4   44082   44103       4   44073   44094       2
   44070   44088       4   44067   44082       4   44058   44073       2   44055
   44067       5   44055   44070       5   44046   44058       2   44037   44055
       6   44028   44046       2   44019   44037       5   44016   44037       5
   44010   44028       2   44004   44019       4   44001   44016       4   43998
   44007       4   43992   44007       4   43992   44010       7   43989   44001
       4   43989   44004       4   43986   44001       8   43983   43998       4
   43980   43992       4   43977   43989       9   43974   43977      10   43974
   43983      11   43974   43986      12   43971   43980       4   43971   43983
       4   43968   43971      13   43968   43974      14   43968   43977      15
   44325   44337       2   44322   44325       2   44304   44322       2   44286
   44304       2   44280   44295       4   44274   44295       4   44265   44286
       2   44262   44280       4   44259   44274       4   44250   44265       2
   44247   44259       5   44247   44262       5   44238   44250       2   44229
   44247       6   44220   44238       2   44211   44229       5   44208   44229
       5   44202   44220       2   44196   44211       4   44193   44208       4
   44190   44199       4   44184   44199       4   44184   44202       7   44181
   44193       4   44181   44196       4   44178   44193       8   44175   44190
       4   44172   44184       4   44169   44181       9   44166   44169      10
   44166   44175      11   44166   44178      12   44163   44172       4   44163
   44175       4   44160   44163      13   44160   44166      14   44160   44169
      15   44517   44529       2   44514   44517       2   44496   44514       2
   44478   44496       2   44472   44487       4   44466   44487       4   44457
   44478       2   44454   44472       4   44451   44466       4   44442   44457
       2   44439   44451       5   44439   44454       5   44430   44442       2
   44421   44439       6   44412   44430       2   44403   44421       5   44400
   44421       5   44394   44412       2   44388   44403       4   44385   44400
       4   44382   44391       4   44376   44391       4   44376   44394       7
   44373   44385       4   44373   44388       4   44370   44385       8   44367
   44382       4   44364   44376       4   44361   44373       9   44358   44361
      10   44358   44367      11   44358   44370      12   44355   44364       4
   44355   44367       4   44352   44355      13   44352   44358      14   44352
   44361      15   44709   44721       2   44706   44709       2   44688   44706
       2   44670   44688       2   44664   44679       4   44658   44679       4
   44649   44670       2   44646   44664       4   44643   44658       4   44634
   44649       2   44631   44643       5   44631   44646       5   44622   44634
       2   44613   44631       6   44604   44622       2   44595   44613       5
   44592   44613       5   44586   44604       2   44580   44595       4   44577
   44592       4   44574   44583       4   44568   44583       4   44568   44586
       7   44565   44577       4   44565   44580       4   44562   44577       8
   44559   44574       4   44556   44568       4   44553   44565       9   44550
   44553      10   44550   44559      11   44550   44562      12   44547   44556
       4   44547   44559       4   44544   44547      13   44544   44550      14
   44544   44553      15   44901   44913       2   44898   44901       2   44880
   44898       2   44862   44880       2   44856   44871       4   44850   44871
       4   44841   44862       2   44838   44856       4   44835   44850       4
   44826   44841       2   44823   44835       5   44823   44838       5   44814
   44826       2   44805   44823       6   44796   44814       2   44787   44805
       5   44784   44805       5   44778   44796       2   44772   44787       4
   44769   44784       4   44766   44775       4   44760   44775       4   44760
   44778       7   44757   44769       4   44757   44772       4   44754   44769
       8   44751   44766       4   44748   44760       4   44745   44757       9
   44742   44745      10   44742   44751      11   44742   44754      12   44739
   44748       4   44739   44751       4   44736   44739      13   44736   44742
      14   44736   44745      15   45093   45105       2   45090   45093       2
   45072   45090       2   45054   45072       2   45048   45063       4   45042
   45063       4   45033   45054       2   45030   45048       4   45027   45042
       4   45018   45033       2   45015   45027       5   45015   45030       5
   45006   45018       2   44997   45015       6   44988   45006       2   44979
   44997       5   44976   44997       5   44970   44988       2   44964   44979
       4   44961   44976       4   44958   44967       4   44952   44967       4
   44952   44970       7   44949   44961       4   44949   44964       4   44946
   44961       8   44943   44958       4   44940   44952       4   44937   44949
       9   44934   44937      10   44934   44943      11   44934   44946      12
   44931   44940       4   44931   44943       4   44928   44931      13   44928
   44934      14   44928   44937      15   45285   45297       2   45282   45285
       2   45264   45282       2   45246   45264       2   45240   45255       4
   45234   45255       4   45225   45246       2   45222   45240       4   45219
   45234       4   45210   45225       2   45207   45219       5   45207   45222
       5   45198   45210       2   45189   45207       6   45180   45198       2
   45171   45189       5   45168   45189       5   45162   45180       2   45156
   45171       4   45153   45168       4   45150   45159       4   45144   45159
       4   45144   45162       7   45141   45153       4   45141   45156       4
   45138   45153       8   45135   45150       4   45132   45144       4   45129
   45141       9   45126   45129      10   45126   45135      11   45126   45138
      12   45123   45132       4   45123   45135       4   45120   45123      13
   45120   45126      14   45120   45129      15   45477   45489       2   45474
   45477       2   45456   45474       2   45438   45456       2   45432   45447
       4   45426   45447       4   45417   45438       2   45414   45432       4
   45411   45426       4   45402   45417       2   45399   45411       5   45399
   45414       5   45390   45402       2   45381   45399       6   45372   45390
       2   45363   45381       5   45360   45381       5   45354   45372       2
   45348   45363       4   45345   45360       4   45342   45351       4   45336
   45351       4   45336   45354       7   45333   45345       4   45333   45348
       4   45330   45345       8   45327   45342       4   45324   45336       4
   45321   45333       9   45318   45321      10   45318   45327      11   45318
   45330      12   45315   45324       4   45315   45327       4   45312   45315
      13   45312   45318      14   45312   45321      15   45669   45681       2
   45666   45669       2   45648   45666       2   45630   45648       2   45624
   45639       4   45618   45639       4   45609   45630       2   45606   45624
       4   45603   45618       4   45594   45609       2   45591   45603       5
   45591   45606       5   45582   45594       2   45573   45591       6   45564
   45582       2   45555   45573       5   45552   45573       5   45546   45564
       2   45540   45555       4   45537   45552       4   45534   45543       4
   45528   45543       4   45528   45546       7   45525   45537       4   45525
   45540       4   45522   45537       8   45519   45534       4   45516   45528
       4   45513   45525       9   45510   45513      10   45510   45519      11
   45510   45522      12   45507   45516       4   45507   45519       4   45504
   45507      13   45504   45510      14   45504   45513      15   45861   45873
       2   45858   45861       2   45840   45858       2   45822   45840       2
   45816   45831       4   45810   45831       4   45801   45822       2   45798
   45816       4   45795   45810       4   45786   45801       2   45783   45795
       5   45783   45798       5   45774   45786       2   45765   45783       6
   45756   45774       2   45747   45765       5   45744   45765       5   45738
   45756       2   45732   45747       4   45729   45744       4   45726   45735
       4   45720   45735       4   45720   45738       7   45717   45729       4
   45717   45732       4   45714   45729       8   45711   45726       4   45708
   45720       4   45705   45717       9   45702   45705      10   45702   45711
      11   45702   45714      12   45699   45708       4   45699   45711       4
   45696   45699      13   45696   45702      14   45696   45705      15   46053
   46065       2   46050   46053       2   46032   46050       2   46014   46032
       2   46008   46023       4   46002   46023       4   45993   46014       2
   45990   46008       4   45987   46002       4   45978   45993       2   45975
   45987       5   45975   45990       5   45966   45978       2   45957   45975
       6   45948   45966       2   45939   45957       5   45936   45957       5
   45930   45948       2   45924   45939       4   45921   45936       4   45918
   45927       4   45912   45927       4   45912   45930       7   45909   45921
       4   45909   45924       4   45906   45921       8   45903   45918       4
   45900   45912       4   45897   45909       9   45894   45897      10   45894
   45903      11   45894   45906      12   45891   45900       4   45891   45903
       4   45888   45891      13   45888   45894      14   45888   45897      15
   46245   46257       2   46242   46245       2   46224   46242       2   46206
   46224       2   46200   46215       4   46194   46215       4   46185   46206
       2   46182   46200       4   46179   46194       4   46170   46185       2
   46167   46179       5   46167   46182       5   46158   46170       2   46149
   46167       6   46140   46158       2   46131   46149       5   46128   46149
       5   46122   46140       2   46116   46131       4   46113   46128       4
   46110   46119       4   46104   46119       4   46104   46122       7   46101
   46113       4   46101   46116       4   46098   46113       8   46095   46110
       4   46092   46104       4   46089   46101       9   46086   46089      10
   46086   46095      11   46086   46098      12   46083   46092       4   46083
   46095       4   46080   46083      13   46080   46086      14   46080   46089
      15   46437   46449       2   46434   46437       2   46416   46434       2
   46398   46416       2   46392   46407       4   46386   46407       4   46377
   46398       2   46374   46392       4   46371   46386       4   46362   46377
       2   46359   46371       5   46359   46374       5   46350   46362       2
   46341   46359       6   46332   46350       2   46323   46341       5   46320
   46341       5   46314   46332       2   46308   46323       4   46305   46320
       4   46302   46311       4   46296   46311       4   46296   46314       7
   46293   46305       4   46293   46308       4   46290   46305       8   46287
   46302       4   46284   46296       4   46281   46293       9   46278   46281
      10   46278   46287      11   46278   46290      12   46275   46284       4
   46275   46287       4   46272   46275      13   46272   46278      14   46272
   46281      15   46629   46641       2   46626   46629       2   46608   46626
       2   46590   46608       2   46584   46599       4   46578   46599       4
   46569   46590       2   46566   46584       4   46563   46578       4   46554
   46569       2   46551   46563       5   46551   46566       5   46542   46554
       2   46533   46551       6   46524   46542       2   46515   46533       5
   46512   46533       5   46506   46524       2   46500   46515       4   46497
   46512       4   46494   46503       4   46488   46503       4   46488   46506
       7   46485   46497       4   46485   46500       4   46482   46497       8
   46479   46494       4   46476   46488       4   46473   46485       9   46470
   46473      10   46470   46479      11   46470   46482      12   46467   46476
       4   46467   46479       4   46464   46467      13   46464   46470      14
   46464   46473      15   46821   46833       2   46818   46821       2   46800
   46818       2   46782   46800       2   46776   46791       4   46770   46791
       4   46761   46782       2   46758   46776       4   46755   46770       4
   46746   46761       2   46743   46755       5   46743   46758       5   46734
   46746       2   46725   46743       6   46716   46734       2   46707   46725
       5   46704   46725       5   46698   46716       2   46692   46707       4
   46689   46704       4   46686   46695       4   46680   46695       4   46680
   46698       7   46677   46689       4   46677   46692       4   46674   46689
       8   46671   46686       4   46668   46680       4   46665   46677       9
   46662   46665      10   46662   46671      11   46662   46674      12   46659
   46668       4   46659   46671       4   46656   46659      13   46656   46662
      14   46656   46665      15   47013   47025       2   47010   47013       2
   46992   47010       2   46974   46992       2   46968   46983       4   46962
   46983       4   46953   46974       2   46950   46968       4   46947   46962
       4   46938   46953       2   46935   46947       5   46935   46950       5
   46926   46938       2   46917   46935       6   46908   46926       2   46899
   46917       5   46896   46917       5   46890   46908       2   46884   46899
       4   46881   46896       4   46878   46887       4   46872   46887       4
   46872   46890       7   46869   46881       4   46869   46884       4   46866
   46881       8   46863   46878       4   46860   46872       4   46857   46869
       9   46854   46857      10   46854   46863      11   46854   46866      12
   46851   46860       4   46851   46863       4   46848   46851      13   46848
   46854      14   46848   46857      15   47205   47217       2   47202   47205
       2   47184   47202       2   47166   47184       2   47160   47175       4
   47154   47175       4   47145   47166       2   47142   47160       4   47139
   47154       4   47130   47145       2   47127   47139       5   47127   47142
       5   47118   47130       2   47109   47127       6   47100   47118       2
   47091   47109       5   47088   47109       5   47082   47100       2   47076
   47091       4   47073   47088       4   47070   47079       4   47064   47079
       4   47064   47082       7   47061   47073       4   47061   47076       4
   47058   47073       8   47055   47070       4   47052   47064       4   47049
   47061       9   47046   47049      10   47046   47055      11   47046   47058
      12   47043   47052       4   47043   47055       4   47040   47043      13
   47040   47046      14   47040   47049      15   47397   47409       2   47394
   47397       2   47376   47394       2   47358   47376       2   47352   47367
       4   47346   47367       4   47337   47358       2   47334   47352       4
   47331   47346       4   47322   47337       2   47319   47331       5   47319
   47334       5   47310   47322       2   47301   47319       6   47292   47310
       2   47283   47301       5   47280   47301       5   47274   47292       2
   47268   47283       4   47265   47280       4   47262   47271       4   47256
   47271       4   47256   47274       7   47253   47265       4   47253   47268
       4   47250   47265       8   47247   47262       4   47244   47256       4
   47241   47253       9   47238   47241      10   47238   47247      11   47238
   47250      12   47235   47244       4   47235   47247       4   47232   47235
      13   47232   47238      14   47232   47241      15   47589   47601       2
   47586   47589       2   47568   47586       2   47550   47568       2   47544
   47559       4   47538   47559       4   47529   47550       2   47526   47544
       4   47523   47538       4   47514   47529       2   47511   47523       5
   47511   47526       5   47502   47514       2   47493   47511       6   47484
   47502       2   47475   47493       5   47472   47493       5   47466   47484
       2   47460   47475       4   47457   47472       4   47454   47463       4
   47448   47463       4   47448   47466       7   47445   47457       4   47445
   47460       4   47442   47457       8   47439   47454       4   47436   47448
       4   47433   47445       9   47430   47433      10   47430   47439      11
   47430   47442      12   47427   47436       4   47427   47439       4   47424
   47427      13   47424   47430      14   47424   47433      15   47781   47793
       2   47778   47781       2   47760   47778       2   47742   47760       2
   47736   47751       4   47730   47751       4   47721   47742       2   47718
   47736       4   47715   47730       4   47706   47721       2   47703   47715
       5   47703   47718       5   47694   47706       2   47685   47703       6
   47676   47694       2   47667   47685       5   47664   47685       5   47658
   47676       2   47652   47667       4   47649   47664       4   47646   47655
       4   47640   47655       4   47640   47658       7   47637   47649       4
   47637   47652       4   47634   47649       8   47631   47646       4   47628
   47640       4   47625   47637       9   47622   47625      10   47622   47631
      11   47622   47634      12   47619   47628       4   47619   47631       4
   47616   47619      13   47616   47622      14   47616   47625      15   47973
   47985       2   47970   47973       2   47952   47970       2   47934   47952
       2   47928   47943       4   47922   47943       4   47913   47934       2
   47910   47928       4   47907   47922       4   47898   47913       2   47895
   47907       5   47895   47910       5   47886   47898       2   47877   47895
       6   47868   47886       2   47859   47877       5   47856   47877       5
   47850   47868       2   47844   47859       4   47841   47856       4   47838
   47847       4   47832   47847       4   47832   47850       7   47829   47841
       4   47829   47844       4   47826   47841       8   47823   47838       4
   47820   47832       4   47817   47829       9   47814   47817      10   47814
   47823      11   47814   47826      12   47811   47820       4   47811   47823
       4   47808   47811      13   47808   47814      14   47808   47817      15
   48165   48177       2   48162   48165       2   48144   48162       2   48126
   48144       2   48120   48135       4   48114   48135       4   48105   48126
       2   48102   48120       4   48099   48114       4   48090   48105       2
   48087   48099       5   48087   48102       5   48078   48090       2   48069
   48087       6   48060   48078       2   48051   48069       5   48048   48069
       5   48042   48060       2   48036   48051       4   48033   48048       4
   48030   48039       4   48024   48039       4   48024   48042       7   48021
   48033       4   48021   48036       4   48018   48033       8   48015   48030
       4   48012   48024       4   48009   48021       9   48006   48009      10
   48006   48015      11   48006   48018      12   48003   48012       4   48003
   48015       4   48000   48003      13   48000   48006      14   48000   48009
      15   48357   48369       2   48354   48357       2   48336   48354       2
   48318   48336       2   48312   48327       4   48306   48327       4   48297
   48318       2   48294   48312       4   48291   48306       4   48282   48297
       2   48279   48291       5   48279   48294       5   48270   48282       2
   48261   48279       6   48252   48270       2   48243   48261       5   48240
   48261       5   48234   48252       2   48228   48243       4   48225   48240
       4   48222   48231       4   48216   48231       4   48216   48234       7
   48213   48225       4   48213   48228       4   48210   48225       8   48207
   48222       4   48204   48216       4   48201   48213       9   48198   48201
      10   48198   48207      11   48198   48210      12   48195   48204       4
   48195   48207       4   48192   48195      13   48192   48198      14   48192
   48201      15   48549   48561       2   48546   48549       2   48528   48546
       2   48510   48528       2   48504   48519       4   48498   48519       4
   48489   48510       2   48486   48504       4   48483   48498       4   48474
   48489       2   48471   48483       5   48471   48486       5   48462   48474
       2   48453   48471       6   48444   48462       2   48435   48453       5
   48432   48453       5   48426   48444       2   48420   48435       4   48417
   48432       4   48414   48423       4   48408   48423       4   48408   48426
       7   48405   48417       4   48405   48420       4   48402   48417       8
   48399   48414       4   48396   48408       4   48393   48405       9   48390
   48393      10   48390   48399      11   48390   48402      12   48387   48396
       4   48387   48399       4   48384   48387      13   48384   48390      14
   48384   48393      15   48741   48753       2   48738   48741       2   48720
   48738       2   48702   48720       2   48696   48711       4   48690   48711
       4   48681   48702       2   48678   48696       4   48675   48690       4
   48666   48681       2   48663   48675       5   48663   48678       5   48654
   48666       2   48645   48663       6   48636   48654       2   48627   48645
       5   48624   48645       5   48618   48636       2   48612   48627       4
   48609   48624       4   48606   48615       4   48600   48615       4   48600
   48618       7   48597   48609       4   48597   48612       4   48594   48609
       8   48591   48606       4   48588   48600       4   48585   48597       9
   48582   48585      10   48582   48591      11   48582   48594      12   48579
   48588       4   48579   48591       4   48576   48579      13   48576   48582
      14   48576   48585      15   48933   48945       2   48930   48933       2
   48912   48930       2   48894   48912       2   48888   48903       4   48882
   48903       4   48873   48894       2   48870   48888       4   48867   48882
       4   48858   48873       2   48855   48867       5   48855   48870       5
   48846   48858       2   48837   48855       6   48828   48846       2   48819
   48837       5   48816   48837       5   48810   48828       2   48804   48819
       4   48801   48816       4   48798   48807       4   48792   48807       4
   48792   48810       7   48789   48801       4   48789   48804       4   48786
   48801       8   48783   48798       4   48780   48792       4   48777   48789
       9   48774   48777      10   48774   48783      11   48774   48786      12
   48771   48780       4   48771   48783       4   48768   48771      13   48768
   48774      14   48768   48777      15   49125   49137       2   49122   49125
       2   49104   49122       2   49086   49104       2   49080   49095       4
   49074   49095       4   49065   49086       2   49062   49080       4   49059
   49074       4   49050   49065       2   49047   49059       5   49047   49062
       5   49038   49050       2   49029   49047       6   49020   49038       2
   49011   49029       5   49008   49029       5   49002   49020       2   48996
   49011       4   48993   49008       4   48990   48999       4   48984   48999
       4   48984   49002       7   48981   48993       4   48981   48996       4
   48978   48993       8   48975   48990       4   48972   48984       4   48969
   48981       9   48966   48969      10   48966   48975      11   48966   48978
      12   48963   48972       4   48963   48975       4   48960   48963      13
   48960   48966      14   48960   48969      15   49317   49329       2   49314
   49317       2   49296   49314       2   49278   49296       2   49272   49287
       4   49266   49287       4   49257   49278       2   49254   49272       4
   49251   49266       4   49242   49257       2   49239   49251       5   49239
   49254       5   49230   49242       2   49221   49239       6   49212   49230
       2   49203   49221       5   49200   49221       5   49194   49212       2
   49188   49203       4   49185   49200       4   49182   49191       4   49176
   49191       4   49176   49194       7   49173   49185       4   49173   49188
       4   49170   49185       8   49167   49182       4   49164   49176       4
   49161   49173       9   49158   49161      10   49158   49167      11   49158
   49170      12   49155   49164       4   49155   49167       4   49152   49155
      13   49152   49158      14   49152   49161      15   49509   49521       2
   49506   49509       2   49488   49506       2   49470   49488       2   49464
   49479       4   49458   49479       4   49449   49470       2   49446   49464
       4   49443   49458       4   49434   49449       2   49431   49443       5
   49431   49446       5   49422   49434       2   49413   49431       6   49404
   49422       2   49395   49413       5   49392   49413       5   49386   49404
       2   49380   49395       4   49377   49392       4   49374   49383       4
   49368   49383       4   49368   49386       7   49365   49377       4   49365
   49380       4   49362   49377       8   49359   49374       4   49356   49368
       4   49353   49365       9   49350   49353      10   49350   49359      11
   49350   49362      12   49347   49356       4   49347   49359       4   49344
   49347      13   49344   49350      14   49344   49353      15   49701   49713
       2   49698   49701       2   49680   49698       2   49662   49680       2
   49656   49671       4   49650   49671       4   49641   49662       2   49638
   49656       4   49635   49650       4   49626   49641       2   49623   49635
       5   49623   49638       5   49614   49626       2   49605   49623       6
   49596   49614       2   49587   49605       5   49584   49605       5   49578
   49596       2   49572   49587       4   49569   49584       4   49566   49575
       4   49560   49575       4   49560   49578       7   49557   49569       4
   49557   49572       4   49554   49569       8   49551   49566       4   49548
   49560       4   49545   49557       9   49542   49545      10   49542   49551
      11   49542   49554      12   49539   49548       4   49539   49551       4
   49536   49539      13   49536   49542      14   49536   49545      15   49893
   49905       2   49890   49893       2   49872   49890       2   49854   49872
       2   49848   49863       4   49842   49863       4   49833   49854       2
   49830   49848       4   49827   49842       4   49818   49833       2   49815
   49827       5   49815   49830       5   49806   49818       2   49797   49815
       6   49788   49806       2   49779   49797       5   49776   49797       5
   49770   49788       2   49764   49779       4   49761   49776       4   49758
   49767       4   49752   49767       4   49752   49770       7   49749   49761
       4   49749   49764       4   49746   49761       8   49743   49758       4
   49740   49752       4   49737   49749       9   49734   49737      10   49734
   49743      11   49734   49746      12   49731   49740       4   49731   49743
       4   49728   49731      13   49728   49734      14   49728   49737      15
   50085   50097       2   50082   50085       2   50064   50082       2   50046
   50064       2   50040   50055       4   50034   50055       4   50025   50046
       2   50022   50040       4   50019   50034       4   50010   50025       2
   50007   50019       5   50007   50022       5   49998   50010       2   49989
   50007       6   49980   49998       2   49971   49989       5   49968   49989
       5   49962   49980       2   49956   49971       4   49953   49968       4
   49950   49959       4   49944   49959       4   49944   49962       7   49941
   49953       4   49941   49956       4   49938   49953       8   49935   49950
       4   49932   49944       4   49929   49941       9   49926   49929      10
   49926   49935      11   49926   49938      12   49923   49932       4   49923
   49935       4   49920   49923      13   49920   49926      14   49920   49929
      15   50277   50289       2   50274   50277       2   50256   50274       2
   50238   50256       2   50232   50247       4   50226   50247       4   50217
   50238       2   50214   50232       4   50211   50226       4   50202   50217
       2   50199   50211       5   50199   50214       5   50190   50202       2
   50181   50199       6   50172   50190       2   50163   50181       5   50160
   50181       5   50154   50172       2   50148   50163       4   50145   50160
       4   50142   50151       4   50136   50151       4   50136   50154       7
   50133   50145       4   50133   50148       4   50130   50145       8   50127
   50142       4   50124   50136       4   50121   50133       9   50118   50121
      10   50118   50127      11   50118   50130      12   50115   50124       4
   50115   50127       4   50112   50115      13   50112   50118      14   50112
   50121      15   50469   50481       2   50466   50469       2   50448   50466
       2   50430   50448       2   50424   50439       4   50418   50439       4
   50409   50430       2   50406   50424       4   50403   50418       4   50394
   50409       2   50391   50403       5   50391   50406       5   50382   50394
       2   50373   50391       6   50364   50382       2   50355   50373       5
   50352   50373       5   50346   50364       2   50340   50355       4   50337
   50352       4   50334   50343       4   50328   50343       4   50328   50346
       7   50325   50337       4   50325   50340       4   50322   50337       8
   50319   50334       4   50316   50328       4   50313   50325       9   50310
   50313      10   50310   50319      11   50310   50322      12   50307   50316
       4   50307   50319       4   50304   50307      13   50304   50310      14
   50304   50313      15   50661   50673       2   50658   50661       2   50640
   50658       2   50622   50640       2   50616   50631       4   50610   50631
       4   50601   50622       2   50598   50616       4   50595   50610       4
   50586   50601       2   50583   50595       5   50583   50598       5   50574
   50586       2   50565   50583       6   50556   50574       2   50547   50565
       5   50544   50565       5   50538   50556       2   50532   50547       4
   50529   50544       4   50526   50535       4   50520   50535       4   50520
   50538       7   50517   50529       4   50517   50532       4   50514   50529
       8   50511   50526       4   50508   50520       4   50505   50517       9
   50502   50505      10   50502   50511      11   50502   50514      12   50499
   50508       4   50499   50511       4   50496   50499      13   50496   50502
      14   50496   50505      15   50853   50865       2   50850   50853       2
   50832   50850       2   50814   50832       2   50808   50823       4   50802
   50823       4   50793   50814       2   50790   50808       4   50787   50802
       4   50778   50793       2   50775   50787       5   50775   50790       5
   50766   50778       2   50757   50775       6   50748   50766       2   50739
   50757       5   50736   50757       5   50730   50748       2   50724   50739
       4   50721   50736       4   50718   50727       4   50712   50727       4
   50712   50730       7   50709   50721       4   50709   50724       4   50706
   50721       8   50703   50718       4   50700   50712       4   50697   50709
       9   50694   50697      10   50694   50703      11   50694   50706      12
   50691   50700       4   50691   50703       4   50688   50691      13   50688
   50694      14   50688   50697      15   51045   51057       2   51042   51045
       2   51024   51042       2   51006   51024       2   51000   51015       4
   50994   51015       4   50985   51006       2   50982   51000       4   50979
   50994       4   50970   50985       2   50967   50979       5   50967   50982
       5   50958   50970       2   50949   50967       6   50940   50958       2
   50931   50949       5   50928   50949       5   50922   50940       2   50916
   50931       4   50913   50928       4   50910   50919       4   50904   50919
       4   50904   50922       7   50901   50913       4   50901   50916       4
   50898   50913       8   50895   50910       4   50892   50904       4   50889
   50901       9   50886   50889      10   50886   50895      11   50886   50898
      12   50883   50892       4   50883   50895       4   50880   50883      13
   50880   50886      14   50880   50889      15   51237   51249       2   51234
   51237       2   51216   51234       2   51198   51216       2   51192   51207
       4   51186   51207       4   51177   51198       2   51174   51192       4
   51171   51186       4   51162   51177       2   51159   51171       5   51159
   51174       5   51150   51162       2   51141   51159       6   51132   51150
       2   51123   51141       5   51120   51141       5   51114   51132       2
   51108   51123       4   51105   51120       4   51102   51111       4   51096
   51111       4   51096   51114       7   51093   51105       4   51093   51108
       4   51090   51105       8   51087   51102       4   51084   51096       4
   51081   51093       9   51078   51081      10   51078   51087      11   51078
   51090      12   51075   51084       4   51075   51087       4   51072   51075
      13   51072   51078      14   51072   51081      15   51429   51441       2
   51426   51429       2   51408   51426       2   51390   51408       2   51384
   51399       4   51378   51399       4   51369   51390       2   51366   51384
       4   51363   51378       4   51354   51369       2   51351   51363       5
   51351   51366       5   51342   51354       2   51333   51351       6   51324
   51342       2   51315   51333       5   51312   51333       5   51306   51324
       2   51300   51315       4   51297   51312       4   51294   51303       4
   51288   51303       4   51288   51306       7   51285   51297       4   51285
   51300       4   51282   51297       8   51279   51294       4   51276   51288
       4   51273   51285       9   51270   51273      10   51270   51279      11
   51270   51282      12   51267   51276       4   51267   51279       4   51264
   51267      13   51264   51270      14   51264   51273      15   51621   51633
       2   51618   51621       2   51600   51618       2   51582   51600       2
   51576   51591       4   51570   51591       4   51561   51582       2   51558
   51576       4   51555   51570       4   51546   51561       2   51543   51555
       5   51543   51558       5   51534   51546       2   51525   51543       6
   51516   51534       2   51507   51525       5   51504   51525       5   51498
   51516       2   51492   51507       4   51489   51504       4   51486   51495
       4   51480   51495       4   51480   51498       7   51477   51489       4
   51477   51492       4   51474   51489       8   51471   51486       4   51468
   51480       4   51465   51477       9   51462   51465      10   51462   51471
      11   51462   51474      12   51459   51468       4   51459   51471       4
   51456   51459      13   51456   51462      14   51456   51465      15   51813
   51825       2   51810   51813       2   51792   51810       2   51774   51792
       2   51768   51783       4   51762   51783       4   51753   51774       2
   51750   51768       4   51747   51762       4   51738   51753       2   51735
   51747       5   51735   51750       5   51726   51738       2   51717   51735
       6   51708   51726       2   51699   51717       5   51696   51717       5
   51690   51708       2   51684   51699       4   51681   51696       4   51678
   51687       4   51672   51687       4   51672   51690       7   51669   51681
       4   51669   51684       4   51666   51681       8   51663   51678       4
   51660   51672       4   51657   51669       9   51654   51657      10   51654
   51663      11   51654   51666      12   51651   51660       4   51651   51663
       4   51648   51651      13   51648   51654      14   51648   51657      15
   52005   52017       2   52002   52005       2   51984   52002       2   51966
   51984       2   51960   51975       4   51954   51975       4   51945   51966
       2   51942   51960       4   51939   51954       4   51930   51945       2
   51927   51939       5   51927   51942       5   51918   51930       2   51909
   51927       6   51900   51918       2   51891   51909       5   51888   51909
       5   51882   51900       2   51876   51891       4   51873   51888       4
   51870   51879       4   51864   51879       4   51864   51882       7   51861
   51873       4   51861   51876       4   51858   51873       8   51855   51870
       4   51852   51864       4   51849   51861       9   51846   51849      10
   51846   51855      11   51846   51858      12   51843   51852       4   51843
   51855       4   51840   51843      13   51840   51846      14   51840   51849
      15   52197   52209       2   52194   52197       2   52176   52194       2
   52158   52176       2   52152   52167       4   52146   52167       4   52137
   52158       2   52134   52152       4   52131   52146       4   52122   52137
       2   52119   52131       5   52119   52134       5   52110   52122       2
   52101   52119       6   52092   52110       2   52083   52101       5   52080
   52101       5   52074   52092       2   52068   52083       4   52065   52080
       4   52062   52071       4   52056   52071       4   52056   52074       7
   52053   52065       4   52053   52068       4   52050   52065       8   52047
   52062       4   52044   52056       4   52041   52053       9   52038   52041
      10   52038   52047      11   52038   52050      12   52035   52044       4
   52035   52047       4   52032   52035      13   52032   52038      14   52032
   52041      15   52389   52401       2   52386   52389       2   52368   52386
       2   52350   52368       2   52344   52359       4   52338   52359       4
   52329   52350       2   52326   52344       4   52323   52338       4   52314
   52329       2   52311   52323       5   52311   52326       5   52302   52314
       2   52293   52311       6   52284   52302       2   52275   52293       5
   52272   52293       5   52266   52284       2   52260   52275       4   52257
   52272       4   52254   52263       4   52248   52263       4   52248   52266
       7   52245   52257       4   52245   52260       4   52242   52257       8
   52239   52254       4   52236   52248       4   52233   52245       9   52230
   52233      10   52230   52239      11   52230   52242      12   52227   52236
       4   52227   52239       4   52224   52227      13   52224   52230      14
   52224   52233      15   52581   52593       2   52578   52581       2   52560
   52578       2   52542   52560       2   52536   52551       4   52530   52551
       4   52521   52542       2   52518   52536       4   52515   52530       4
   52506   52521       2   52503   52515       5   52503   52518       5   52494
   52506       2   52485   52503       6   52476   52494       2   52467   52485
       5   52464   52485       5   52458   52476       2   52452   52467       4
   52449   52464       4   52446   52455       4   52440   52455       4   52440
   52458       7   52437   52449       4   52437   52452       4   52434   52449
       8   52431   52446       4   52428   52440       4   52425   52437       9
   52422   52425      10   52422   52431      11   52422   52434      12   52419
   52428       4   52419   52431       4   52416   52419      13   52416   52422
      14   52416   52425      15   52773   52785       2   52770   52773       2
   52752   52770       2   52734   52752       2   52728   52743       4   52722
   52743       4   52713   52734       2   52710   52728       4   52707   52722
       4   52698   52713       2   52695   52707       5   52695   52710       5
   52686   52698       2   52677   52695       6   52668   52686       2   52659
   52677       5   52656   52677       5   52650   52668       2   52644   52659
       4   52641   52656       4   52638   52647       4   52632   52647       4
   52632   52650       7   52629   52641       4   52629   52644       4   52626
   52641       8   52623   52638       4   52620   52632       4   52617   52629
       9   52614   52617      10   52614   52623      11   52614   52626      12
   52611   52620       4   52611   52623       4   52608   52611      13   52608
   52614      14   52608   52617      15   52965   52977       2   52962   52965
       2   52944   52962       2   52926   52944       2   52920   52935       4
   52914   52935       4   52905   52926       2   52902   52920       4   52899
   52914       4   52890   52905       2   52887   52899       5   52887   52902
       5   52878   52890       2   52869   52887       6   52860   52878       2
   52851   52869       5   52848   52869       5   52842   52860       2   52836
   52851       4   52833   52848       4   52830   52839       4   52824   52839
       4   52824   52842       7   52821   52833       4   52821   52836       4
   52818   52833       8   52815   52830       4   52812   52824       4   52809
   52821       9   52806   52809      10   52806   52815      11   52806   52818
      12   52803   52812       4   52803   52815       4   52800   52803      13
   52800   52806      14   52800   52809      15   53157   53169       2   53154
   53157       2   53136   53154       2   53118   53136       2   53112   53127
       4   53106   53127       4   53097   53118       2   53094   53112       4
   53091   53106       4   53082   53097       2   53079   53091       5   53079
   53094       5   53070   53082       2   53061   53079       6   53052   53070
       2   53043   53061       5   53040   53061       5   53034   53052       2
   53028   53043       4   53025   53040       4   53022   53031       4   53016
   53031       4   53016   53034       7   53013   53025       4   53013   53028
       4   53010   53025       8   53007   53022       4   53004   53016       4
   53001   53013       9   52998   53001      10   52998   53007      11   52998
   53010      12   52995   53004       4   52995   53007       4   52992   52995
      13   52992   52998      14   52992   53001      15   53349   53361       2
   53346   53349       2   53328   53346       2   53310   53328       2   53304
   53319       4   53298   53319       4   53289   53310       2   53286   53304
       4   53283   53298       4   53274   53289       2   53271   53283       5
   53271   53286       5   53262   53274       2   53253   53271       6   53244
   53262       2   53235   53253       5   53232   53253       5   53226   53244
       2   53220   53235       4   53217   53232       4   53214   53223       4
   53208   53223       4   53208   53226       7   53205   53217       4   53205
   53220       4   53202   53217       8   53199   53214       4   53196   53208
       4   53193   53205       9   53190   53193      10   53190   53199      11
   53190   53202      12   53187   53196       4   53187   53199       4   53184
   53187      13   53184   53190      14   53184   53193      15   53541   53553
       2   53538   53541       2   53520   53538       2   53502   53520       2
   53496   53511       4   53490   53511       4   53481   53502       2   53478
   53496       4   53475   53490       4   53466   53481       2   53463   53475
       5   53463   53478       5   53454   53466       2   53445   53463       6
   53436   53454       2   53427   53445       5   53424   53445       5   53418
   53436       2   53412   53427       4   53409   53424       4   53406   53415
       4   53400   53415       4   53400   53418       7   53397   53409       4
   53397   53412       4   53394   53409       8   53391   53406       4   53388
   53400       4   53385   53397       9   53382   53385      10   53382   53391
      11   53382   53394      12   53379   53388       4   53379   53391       4
   53376   53379      13   53376   53382      14   53376   53385      15   53733
   53745       2   53730   53733       2   53712   53730       2   53694   53712
       2   53688   53703       4   53682   53703       4   53673   53694       2
   53670   53688       4   53667   53682       4   53658   53673       2   53655
   53667       5   53655   53670       5   53646   53658       2   53637   53655
       6   53628   53646       2   53619   53637       5   53616   53637       5
   53610   53628       2   53604   53619       4   53601   53616       4   53598
   53607       4   53592   53607       4   53592   53610       7   53589   53601
       4   53589   53604       4   53586   53601       8   53583   53598       4
   53580   53592       4   53577   53589       9   53574   53577      10   53574
   53583      11   53574   53586      12   53571   53580       4   53571   53583
       4   53568   53571      13   53568   53574      14   53568   53577      15
   53925   53937       2   53922   53925       2   53904   53922       2   53886
   53904       2   53880   53895       4   53874   53895       4   53865   53886
       2   53862   53880       4   53859   53874       4   53850   53865       2
   53847   53859       5   53847   53862       5   53838   53850       2   53829
   53847       6   53820   53838       2   53811   53829       5   53808   53829
       5   53802   53820       2   53796   53811       4   53793   53808       4
   53790   53799       4   53784   53799       4   53784   53802       7   53781
   53793       4   53781   53796       4   53778   53793       8   53775   53790
       4   53772   53784       4   53769   53781       9   53766   53769      10
   53766   53775      11   53766   53778      12   53763   53772       4   53763
   53775       4   53760   53763      13   53760   53766      14   53760   53769
      15   54117   54129       2   54114   54117       2   54096   54114       2
   54078   54096       2   54072   54087       4   54066   54087       4   54057
   54078       2   54054   54072       4   54051   54066       4   54042   54057
       2   54039   54051       5   54039   54054       5   54030   54042       2
   54021   54039       6   54012   54030       2   54003   54021       5   54000
   54021       5   53994   54012       2   53988   54003       4   53985   54000
       4   53982   53991       4   53976   53991       4   53976   53994       7
   53973   53985       4   53973   53988       4   53970   53985       8   53967
   53982       4   53964   53976       4   53961   53973       9   53958   53961
      10   53958   53967      11   53958   53970      12   53955   53964       4
   53955   53967       4   53952   53955      13   53952   53958      14   53952
   53961      15   54309   54321       2   54306   54309       2   54288   54306
       2   54270   54288       2   54264   54279       4   54258   54279       4
   54249   54270       2   54246   54264       4   54243   54258       4   54234
   54249       2   54231   54243       5   54231   54246       5   54222   54234
       2   54213   54231       6   54204   54222       2   54195   54213       5
   54192   54213       5   54186   54204       2   54180   54195       4   54177
   54192       4   54174   54183       4   54168   54183       4   54168   54186
       7   54165   54177       4   54165   54180       4   54162   54177       8
   54159   54174       4   54156   54168       4   54153   54165       9   54150
   54153      10   54150   54159      11   54150   54162      12   54147   54156
       4   54147   54159       4   54144   54147      13   54144   54150      14
   54144   54153      15   54501   54513       2   54498   54501       2   54480
   54498       2   54462   54480       2   54456   54471       4   54450   54471
       4   54441   54462       2   54438   54456       4   54435   54450       4
   54426   54441       2   54423   54435       5   54423   54438       5   54414
   54426       2   54405   54423       6   54396   54414       2   54387   54405
       5   54384   54405       5   54378   54396       2   54372   54387       4
   54369   54384       4   54366   54375       4   54360   54375       4   54360
   54378       7   54357   54369       4   54357   54372       4   54354   54369
       8   54351   54366       4   54348   54360       4   54345   54357       9
   54342   54345      10   54342   54351      11   54342   54354      12   54339
   54348       4   54339   54351       4   54336   54339      13   54336   54342
      14   54336   54345      15   54693   54705       2   54690   54693       2
   54672   54690       2   54654   54672       2   54648   54663       4   54642
   54663       4   54633   54654       2   54630   54648       4   54627   54642
       4   54618   54633       2   54615   54627       5   54615   54630       5
   54606   54618       2   54597   54615       6   54588   54606       2   54579
   54597       5   54576   54597       5   54570   54588       2   54564   54579
       4   54561   54576       4   54558   54567       4   54552   54567       4
   54552   54570       7   54549   54561       4   54549   54564       4   54546
   54561       8   54543   54558       4   54540   54552       4   54537   54549
       9   54534   54537      10   54534   54543      11   54534   54546      12
   54531   54540       4   54531   54543       4   54528   54531      13   54528
   54534      14   54528   54537      15   54885   54897       2   54882   54885
       2   54864   54882       2   54846   54864       2   54840   54855       4
   54834   54855       4   54825   54846       2   54822   54840       4   54819
   54834       4   54810   54825       2   54807   54819       5   54807   54822
       5   54798   54810       2   54789   54807       6   54780   54798       2
   54771   54789       5   54768   54789       5   54762   54780       2   54756
   54771       4   54753   54768       4   54750   54759       4   54744   54759
       4   54744   54762       7   54741   54753       4   54741   54756       4
   54738   54753       8   54735   54750       4   54732   54744       4   54729
   54741       9   54726   54729      10   54726   54735      11   54726   54738
      12   54723   54732       4   54723   54735       4   54720   54723      13
   54720   54726      14   54720   54729      15   55077   55089       2   55074
   55077       2   55056   55074       2   55038   55056       2   55032   55047
       4   55026   55047       4   55017   55038       2   55014   55032       4
   55011   55026       4   55002   55017       2   54999   55011       5   54999
   55014       5   54990   55002       2   54981   54999       6   54972   54990
       2   54963   54981       5   54960   54981       5   54954   54972       2
   54948   54963       4   54945   54960       4   54942   54951       4   54936
   54951       4   54936   54954       7   54933   54945       4   54933   54948
       4   54930   54945       8   54927   54942       4   54924   54936       4
   54921   54933       9   54918   54921      10   54918   54927      11   54918
   54930      12   54915   54924       4   54915   54927       4   54912   54915
      13   54912   54918      14   54912   54921      15   55269   55281       2
   55266   55269       2   55248   55266       2   55230   55248       2   55224
   55239       4   55218   55239       4   55209   55230       2   55206   55224
       4   55203   55218       4   55194   55209       2   55191   55203       5
   55191   55206       5   55182   55194       2   55173   55191       6   55164
   55182       2   55155   55173       5   55152   55173       5   55146   55164
       2   55140   55155       4   55137   55152       4   55134   55143       4
   55128   55143       4   55128   55146       7   55125   55137       4   55125
   55140       4   55122   55137       8   55119   55134       4   55116   55128
       4   55113   55125       9   55110   55113      10   55110   55119      11
   55110   55122      12   55107   55116       4   55107   55119       4   55104
   55107      13   55104   55110      14   55104   55113      15
%FLAG ANGLES_INC_HYDROGEN                                                       
%FORMAT(10I8)                                                                   
     186     177     189       1     183     177     186       1     183     177
     189       1     177     165     180       2     174     165     177       2
     174     165     180       1     168     162     171       1     165     162
     168       2     165     162     171       2     165     177     183       2
     165     177     186       2     165     177     189       2     162     165
     174       2     162     165     180       2     159     144     162       2
     156     144     159       1     156     144     162       2     147     126
     150       1     144     126     147       2     144     126     150       2
     144     162     168       2     144     162     171       2     135     114
     138       4     135     120     141       4     129     105     132       1
     126     105     129       2     126     105     132       2     126     144
     156       2     126     144     159       2     120     102     123       4
     120     135     153       4     114      99     117       4     114     135
     153       4     108      90     111       1     105      90     108       2
     105      90     111       2     105     126     147       2     105     126
     150       2     102     120     141       4      99     114     138       4
      93      78      96       1      90      78      93       2      90      78
      96       2      90     105     129       2      90     105     132       2
      87      99     117       8      87     102     123       8      81      60
      84       1      78      60      81       2      78      60      84       2
      78      90     108       2      78      90     111       2      69      48
      72       8      69      51      75       8      63      42      66       1
      60      42      63       2      60      42      66       2      60      78
      93       2      60      78      96       2      51      36      54       4
      42      60      81       2      42      60      84       2      39      30
      45       4      36      51      75       4      33      48      72       4
      30      39      57       4      24      12      27       4      24      39
      57       4      24      42      63      12      24      42      66      12
      21      36      54       4      15      30      45       4       3      12
      27       4     378     369     381       1     375     369     378       1
     375     369     381       1     369     357     372       2     366     357
     369       2     366     357     372       1     360     354     363       1
     357     354     360       2     357     354     363       2     357     369
     375       2     357     369     378       2     357     369     381       2
     354     357     366       2     354     357     372       2     351     336
     354       2     348     336     351       1     348     336     354       2
     339     318     342       1     336     318     339       2     336     318
     342       2     336     354     360       2     336     354     363       2
     327     306     330       4     327     312     333       4     321     297
     324       1     318     297     321       2     318     297     324       2
     318     336     348       2     318     336     351       2     312     294
     315       4     312     327     345       4     306     291     309       4
     306     327     345       4     300     282     303       1     297     282
     300       2     297     282     303       2     297     318     339       2
     297     318     342       2     294     312     333       4     291     306
     330       4     285     270     288       1     282     270     285       2
     282     270     288       2     282     297     321       2     282     297
     324       2     279     291     309       8     279     294     315       8
     273     252     276       1     270     252     273       2     270     252
     276       2     270     282     300       2     270     282     303       2
     261     240     264       8     261     243     267       8     255     234
     258       1     252     234     255       2     252     234     258       2
     252     270     285       2     252     270     288       2     243     228
     246       4     234     252     273       2     234     252     276       2
     231     222     237       4     228     243     267       4     225     240
     264       4     222     231     249       4     216     204     219       4
     216     231     249       4     216     234     255      12     216     234
     258      12     213     228     246       4     207     222     237       4
     195     204     219       4     570     561     573       1     567     561
     570       1     567     561     573       1     561     549     564       2
     558     549     561       2     558     549     564       1     552     546
     555       1     549     546     552       2     549     546     555       2
     549     561     567       2     549     561     570       2     549     561
     573       2     546     549     558       2     546     549     564       2
     543     528     546       2     540     528     543       1     540     528
     546       2     531     510     534       1     528     510     531       2
     528     510     534       2     528     546     552       2     528     546
     555       2     519     498     522       4     519     504     525       4
     513     489     516       1     510     489     513       2     510     489
     516       2     510     528     540       2     510     528     543       2
     504     486     507       4     504     519     537       4     498     483
     501       4     498     519     537       4     492     474     495       1
     489     474     492       2     489     474     495       2     489     510
     531       2     489     510     534       2     486     504     525       4
     483     498     522       4     477     462     480       1     474     462
     477       2     474     462     480       2     474     489     513       2
     474     489     516       2     471     483     501       8     471     486
     507       8     465     444     468       1     462     444     465       2
     462     444     468       2     462     474     492       2     462     474
     495       2     453     432     456       8     453     435     459       8
     447     426     450       1     444     426     447       2     444     426
     450       2     444     462     477       2     444     462     480       2
     435     420     438       4     426     444     465       2     426     444
     468       2     423     414     429       4     420     435     459       4
     417     432     456       4     414     423     441       4     408     396
     411       4     408     423     441       4     408     426     447      12
     408     426     450      12     405     420     438       4     399     414
     429       4     387     396     411       4     762     753     765       1
     759     753     762       1     759     753     765       1     753     741
     756       2     750     741     753       2     750     741     756       1
     744     738     747       1     741     738     744       2     741     738
     747       2     741     753     759       2     741     753     762       2
     741     753     765       2     738     741     750       2     738     741
     756       2     735     720     738       2     732     720     735       1
     732     720     738       2     723     702     726       1     720     702
     723       2     720     702     726       2     720     738     744       2
     720     738     747       2     711     690     714       4     711     696
     717       4     705     681     708       1     702     681     705       2
     702     681     708       2     702     720     732       2     702     720
     735       2     696     678     699       4     696     711     729       4
     690     675     693       4     690     711     729       4     684     666
     687       1     681     666     684       2     681     666     687       2
     681     702     723       2     681     702     726       2     678     696
     717       4     675     690     714       4     669     654     672       1
     666     654     669       2     666     654     672       2     666     681
     705       2     666     681     708       2     663     675     693       8
     663     678     699       8     657     636     660       1     654     636
     657       2     654     636     660       2     654     666     684       2
     654     666     687       2     645     624     648       8     645     627
     651       8     639     618     642       1     636     618     639       2
     636     618     642       2     636     654     669       2     636     654
     672       2     627     612     630       4     618     636     657       2
     618     636     660       2     615     606     621       4     612     627
     651       4     609     624     648       4     606     615     633       4
     600     588     603       4     600     615     633       4     600     618
     639      12     600     618     642      12     597     612     630       4
     591     606     621       4     579     588     603       4     954     945
     957       1     951     945     954       1     951     945     957       1
     945     933     948       2     942     933     945       2     942     933
     948       1     936     930     939       1     933     930     936       2
     933     930     939       2     933     945     951       2     933     945
     954       2     933     945     957       2     930     933     942       2
     930     933     948       2     927     912     930       2     924     912
     927       1     924     912     930       2     915     894     918       1
     912     894     915       2     912     894     918       2     912     930
     936       2     912     930     939       2     903     882     906       4
     903     888     909       4     897     873     900       1     894     873
     897       2     894     873     900       2     894     912     924       2
     894     912     927       2     888     870     891       4     888     903
     921       4     882     867     885       4     882     903     921       4
     876     858     879       1     873     858     876       2     873     858
     879       2     873     894     915       2     873     894     918       2
     870     888     909       4     867     882     906       4     861     846
     864       1     858     846     861       2     858     846     864       2
     858     873     897       2     858     873     900       2     855     867
     885       8     855     870     891       8     849     828     852       1
     846     828     849       2     846     828     852       2     846     858
     876       2     846     858     879       2     837     816     840       8
     837     819     843       8     831     810     834       1     828     810
     831       2     828     810     834       2     828     846     861       2
     828     846     864       2     819     804     822       4     810     828
     849       2     810     828     852       2     807     798     813       4
     804     819     843       4     801     816     840       4     798     807
     825       4     792     780     795       4     792     807     825       4
     792     810     831      12     792     810     834      12     789     804
     822       4     783     798     813       4     771     780     795       4
    1146    1137    1149       1    1143    1137    1146       1    1143    1137
    1149       1    1137    1125    1140       2    1134    1125    1137       2
    1134    1125    1140       1    1128    1122    1131       1    1125    1122
    1128       2    1125    1122    1131       2    1125    1137    1143       2
    1125    1137    1146       2    1125    1137    1149       2    1122    1125
    1134       2    1122    1125    1140       2    1119    1104    1122       2
    1116    1104    1119       1    1116    1104    1122       2    1107    1086
    1110       1    1104    1086    1107       2    1104    1086    1110       2
    1104    1122    1128       2    1104    1122    1131       2    1095    1074
    1098       4    1095    1080    1101       4    1089    1065    1092       1
    1086    1065    1089       2    1086    1065    1092       2    1086    1104
    1116       2    1086    1104    1119       2    1080    1062    1083       4
    1080    1095    1113       4    1074    1059    1077       4    1074    1095
    1113       4    1068    1050    1071       1    1065    1050    1068       2
    1065    1050    1071       2    1065    1086    1107       2    1065    1086
    1110       2    1062    1080    1101       4    1059    1074    1098       4
    1053    1038    1056       1    1050    1038    1053       2    1050    1038
    1056       2    1050    1065    1089       2    1050    1065    1092       2
    1047    1059    1077       8    1047    1062    1083       8    1041    1020
    1044       1    1038    1020    1041       2    1038    1020    1044       2
    1038    1050    1068       2    1038    1050    1071       2    1029    1008
    1032       8    1029    1011    1035       8    1023    1002    1026       1
    1020    1002    1023       2    1020    1002    1026       2    1020    1038
    1053       2    1020    1038    1056       2    1011     996    1014       4
    1002    1020    1041       2    1002    1020    1044       2     999     990
    1005       4     996    1011    1035       4     993    1008    1032       4
     990     999    1017       4     984     972     987       4     984     999
    1017       4     984    1002    1023      12     984    1002    1026      12
     981     996    1014       4     975     990    1005       4     963     972
     987       4    1338    1329    1341       1    1335    1329    1338       1
    1335    1329    1341       1    1329    1317    1332       2    1326    1317
    1329       2    1326    1317    1332       1    1320    1314    1323       1
    1317    1314    1320       2    1317    1314    1323       2    1317    1329
    1335       2    1317    1329    1338       2    1317    1329    1341       2
    1314    1317    1326       2    1314    1317    1332       2    1311    1296
    1314       2    1308    1296    1311       1    1308    1296    1314       2
    1299    1278    1302       1    1296    1278    1299       2    1296    1278
    1302       2    1296    1314    1320       2    1296    1314    1323       2
    1287    1266    1290       4    1287    1272    1293       4    1281    1257
    1284       1    1278    1257    1281       2    1278    1257    1284       2
    1278    1296    1308       2    1278    1296    1311       2    1272    1254
    1275       4    1272    1287    1305       4    1266    1251    1269       4
    1266    1287    1305       4    1260    1242    1263       1    1257    1242
    1260       2    1257    1242    1263       2    1257    1278    1299       2
    1257    1278    1302       2    1254    1272    1293       4    1251    1266
    1290       4    1245    1230    1248       1    1242    1230    1245       2
    1242    1230    1248       2    1242    1257    1281       2    1242    1257
    1284       2    1239    1251    1269       8    1239    1254    1275       8
    1233    1212    1236       1    1230    1212    1233       2    1230    1212
    1236       2    1230    1242    1260       2    1230    1242    1263       2
    1221    1200    1224       8    1221    1203    1227       8    1215    1194
    1218       1    1212    1194    1215       2    1212    1194    1218       2
    1212    1230    1245       2    1212    1230    1248       2    1203    1188
    1206       4    1194    1212    1233       2    1194    1212    1236       2
    1191    1182    1197       4    1188    1203    1227       4    1185    1200
    1224       4    1182    1191    1209       4    1176    1164    1179       4
    1176    1191    1209       4    1176    1194    1215      12    1176    1194
    1218      12    1173    1188    1206       4    1167    1182    1197       4
    1155    1164    1179       4    1530    1521    1533       1    1527    1521
    1530       1    1527    1521    1533       1    1521    1509    1524       2
    1518    1509    1521       2    1518    1509    1524       1    1512    1506
    1515       1    1509    1506    1512       2    1509    1506    1515       2
    1509    1521    1527       2    1509    1521    1530       2    1509    1521
    1533       2    1506    1509    1518       2    1506    1509    1524       2
    1503    1488    1506       2    1500    1488    1503       1    1500    1488
    1506       2    1491    1470    1494       1    1488    1470    1491       2
    1488    1470    1494       2    1488    1506    1512       2    1488    1506
    1515       2    1479    1458    1482       4    1479    1464    1485       4
    1473    1449    1476       1    1470    1449    1473       2    1470    1449
    1476       2    1470    1488    1500       2    1470    1488    1503       2
    1464    1446    1467       4    1464    1479    1497       4    1458    1443
    1461       4    1458    1479    1497       4    1452    1434    1455       1
    1449    1434    1452       2    1449    1434    1455       2    1449    1470
    1491       2    1449    1470    1494       2    1446    1464    1485       4
    1443    1458    1482       4    1437    1422    1440       1    1434    1422
    1437       2    1434    1422    1440       2    1434    1449    1473       2
    1434    1449    1476       2    1431    1443    1461       8    1431    1446
    1467       8    1425    1404    1428       1    1422    1404    1425       2
    1422    1404    1428       2    1422    1434    1452       2    1422    1434
    1455       2    1413    1392    1416       8    1413    1395    1419       8
    1407    1386    1410       1    1404    1386    1407       2    1404    1386
    1410       2    1404    1422    1437       2    1404    1422    1440       2
    1395    1380    1398       4    1386    1404    1425       2    1386    1404
    1428       2    1383    1374    1389       4    1380    1395    1419       4
    1377    1392    1416       4    1374    1383    1401       4    1368    1356
    1371       4    1368    1383    1401       4    1368    1386    1407      12
    1368    1386    1410      12    1365    1380    1398       4    1359    1374
    1389       4    1347    1356    1371       4    1722    1713    1725       1
    1719    1713    1722       1    1719    1713    1725       1    1713    1701
    1716       2    1710    1701    1713       2    1710    1701    1716       1
    1704    1698    1707       1    1701    1698    1704       2    1701    1698
    1707       2    1701    1713    1719       2    1701    1713    1722       2
    1701    1713    1725       2    1698    1701    1710       2    1698    1701
    1716       2    1695    1680    1698       2    1692    1680    1695       1
    1692    1680    1698       2    1683    1662    1686       1    1680    1662
    1683       2    1680    1662    1686       2    1680    1698    1704       2
    1680    1698    1707       2    1671    1650    1674       4    1671    1656
    1677       4    1665    1641    1668       1    1662    1641    1665       2
    1662    1641    1668       2    1662    1680    1692       2    1662    1680
    1695       2    1656    1638    1659       4    1656    1671    1689       4
    1650    1635    1653       4    1650    1671    1689       4    1644    1626
    1647       1    1641    1626    1644       2    1641    1626    1647       2
    1641    1662    1683       2    1641    1662    1686       2    1638    1656
    1677       4    1635    1650    1674       4    1629    1614    1632       1
    1626    1614    1629       2    1626    1614    1632       2    1626    1641
    1665       2    1626    1641    1668       2    1623    1635    1653       8
    1623    1638    1659       8    1617    1596    1620       1    1614    1596
    1617       2    1614    1596    1620       2    1614    1626    1644       2
    1614    1626    1647       2    1605    1584    1608       8    1605    1587
    1611       8    1599    1578    1602       1    1596    1578    1599       2
    1596    1578    1602       2    1596    1614    1629       2    1596    1614
    1632       2    1587    1572    1590       4    1578    1596    1617       2
    1578    1596    1620       2    1575    1566    1581       4    1572    1587
    1611       4    1569    1584    1608       4    1566    1575    1593       4
    1560    1548    1563       4    1560    1575    1593       4    1560    1578
    1599      12    1560    1578    1602      12    1557    1572    1590       4
    1551    1566    1581       4    1539    1548    1563       4    1914    1905
    1917       1    1911    1905    1914       1    1911    1905    1917       1
    1905    1893    1908       2    1902    1893    1905       2    1902    1893
    1908       1    1896    1890    1899       1    1893    1890    1896       2
    1893    1890    1899       2    1893    1905    1911       2    1893    1905
    1914       2    1893    1905    1917       2    1890    1893    1902       2
    1890    1893    1908       2    1887    1872    1890       2    1884    1872
    1887       1    1884    1872    1890       2    1875    1854    1878       1
    1872    1854    1875       2    1872    1854    1878       2    1872    1890
    1896       2    1872    1890    1899       2    1863    1842    1866       4
    1863    1848    1869       4    1857    1833    1860       1    1854    1833
    1857       2    1854    1833    1860       2    1854    1872    1884       2
    1854    1872    1887       2    1848    1830    1851       4    1848    1863
    1881       4    1842    1827    1845       4    1842    1863    1881       4
    1836    1818    1839       1    1833    1818    1836       2    1833    1818
    1839       2    1833    1854    1875       2    1833    1854    1878       2
    1830    1848    1869       4    1827    1842    1866       4    1821    1806
    1824       1    1818    1806    1821       2    1818    1806    1824       2
    1818    1833    1857       2    1818    1833    1860       2    1815    1827
    1845       8    1815    1830    1851       8    1809    1788    1812       1
    1806    1788    1809       2    1806    1788    1812       2    1806    1818
    1836       2    1806    1818    1839       2    1797    1776    1800       8
    1797    1779    1803       8    1791    1770    1794       1    1788    1770
    1791       2    1788    1770    1794       2    1788    1806    1821       2
    1788    1806    1824       2    1779    1764    1782       4    1770    1788
    1809       2    1770    1788    1812       2    1767    1758    1773       4
    1764    1779    1803       4    1761    1776    1800       4    1758    1767
    1785       4    1752    1740    1755       4    1752    1767    1785       4
    1752    1770    1791      12    1752    1770    1794      12    1749    1764
    1782       4    1743    1758    1773       4    1731    1740    1755       4
    2106    2097    2109       1    2103    2097    2106       1    2103    2097
    2109       1    2097    2085    2100       2    2094    2085    2097       2
    2094    2085    2100       1    2088    2082    2091       1    2085    2082
    2088       2    2085    2082    2091       2    2085    2097    2103       2
    2085    2097    2106       2    2085    2097    2109       2    2082    2085
    2094       2    2082    2085    2100       2    2079    2064    2082       2
    2076    2064    2079       1    2076    2064    2082       2    2067    2046
    2070       1    2064    2046    2067       2    2064    2046    2070       2
    2064    2082    2088       2    2064    2082    2091       2    2055    2034
    2058       4    2055    2040    2061       4    2049    2025    2052       1
    2046    2025    2049       2    2046    2025    2052       2    2046    2064
    2076       2    2046    2064    2079       2    2040    2022    2043       4
    2040    2055    2073       4    2034    2019    2037       4    2034    2055
    2073       4    2028    2010    2031       1    2025    2010    2028       2
    2025    2010    2031       2    2025    2046    2067       2    2025    2046
    2070       2    2022    2040    2061       4    2019    2034    2058       4
    2013    1998    2016       1    2010    1998    2013       2    2010    1998
    2016       2    2010    2025    2049       2    2010    2025    2052       2
    2007    2019    2037       8    2007    2022    2043       8    2001    1980
    2004       1    1998    1980    2001       2    1998    1980    2004       2
    1998    2010    2028       2    1998    2010    2031       2    1989    1968
    1992       8    1989    1971    1995       8    1983    1962    1986       1
    1980    1962    1983       2    1980    1962    1986       2    1980    1998
    2013       2    1980    1998    2016       2    1971    1956    1974       4
    1962    1980    2001       2    1962    1980    2004       2    1959    1950
    1965       4    1956    1971    1995       4    1953    1968    1992       4
    1950    1959    1977       4    1944    1932    1947       4    1944    1959
    1977       4    1944    1962    1983      12    1944    1962    1986      12
    1941    1956    1974       4    1935    1950    1965       4    1923    1932
    1947       4    2298    2289    2301       1    2295    2289    2298       1
    2295    2289    2301       1    2289    2277    2292       2    2286    2277
    2289       2    2286    2277    2292       1    2280    2274    2283       1
    2277    2274    2280       2    2277    2274    2283       2    2277    2289
    2295       2    2277    2289    2298       2    2277    2289    2301       2
    2274    2277    2286       2    2274    2277    2292       2    2271    2256
    2274       2    2268    2256    2271       1    2268    2256    2274       2
    2259    2238    2262       1    2256    2238    2259       2    2256    2238
    2262       2    2256    2274    2280       2    2256    2274    2283       2
    2247    2226    2250       4    2247    2232    2253       4    2241    2217
    2244       1    2238    2217    2241       2    2238    2217    2244       2
    2238    2256    2268       2    2238    2256    2271       2    2232    2214
    2235       4    2232    2247    2265       4    2226    2211    2229       4
    2226    2247    2265       4    2220    2202    2223       1    2217    2202
    2220       2    2217    2202    2223       2    2217    2238    2259       2
    2217    2238    2262       2    2214    2232    2253       4    2211    2226
    2250       4    2205    2190    2208       1    2202    2190    2205       2
    2202    2190    2208       2    2202    2217    2241       2    2202    2217
    2244       2    2199    2211    2229       8    2199    2214    2235       8
    2193    2172    2196       1    2190    2172    2193       2    2190    2172
    2196       2    2190    2202    2220       2    2190    2202    2223       2
    2181    2160    2184       8    2181    2163    2187       8    2175    2154
    2178       1    2172    2154    2175       2    2172    2154    2178       2
    2172    2190    2205       2    2172    2190    2208       2    2163    2148
    2166       4    2154    2172    2193       2    2154    2172    2196       2
    2151    2142    2157       4    2148    2163    2187       4    2145    2160
    2184       4    2142    2151    2169       4    2136    2124    2139       4
    2136    2151    2169       4    2136    2154    2175      12    2136    2154
    2178      12    2133    2148    2166       4    2127    2142    2157       4
    2115    2124    2139       4    2490    2481    2493       1    2487    2481
    2490       1    2487    2481    2493       1    2481    2469    2484       2
    2478    2469    2481       2    2478    2469    2484       1    2472    2466
    2475       1    2469    2466    2472       2    2469    2466    2475       2
    2469    2481    2487       2    2469    2481    2490       2    2469    2481
    2493       2    2466    2469    2478       2    2466    2469    2484       2
    2463    2448    2466       2    2460    2448    2463       1    2460    2448
    2466       2    2451    2430    2454       1    2448    2430    2451       2
    2448    2430    2454       2    2448    2466    2472       2    2448    2466
    2475       2    2439    2418    2442       4    2439    2424    2445       4
    2433    2409    2436       1    2430    2409    2433       2    2430    2409
    2436       2    2430    2448    2460       2    2430    2448    2463       2
    2424    2406    2427       4    2424    2439    2457       4    2418    2403
    2421       4    2418    2439    2457       4    2412    2394    2415       1
    2409    2394    2412       2    2409    2394    2415       2    2409    2430
    2451       2    2409    2430    2454       2    2406    2424    2445       4
    2403    2418    2442       4    2397    2382    2400       1    2394    2382
    2397       2    2394    2382    2400       2    2394    2409    2433       2
    2394    2409    2436       2    2391    2403    2421       8    2391    2406
    2427       8    2385    2364    2388       1    2382    2364    2385       2
    2382    2364    2388       2    2382    2394    2412       2    2382    2394
    2415       2    2373    2352    2376       8    2373    2355    2379       8
    2367    2346    2370       1    2364    2346    2367       2    2364    2346
    2370       2    2364    2382    2397       2    2364    2382    2400       2
    2355    2340    2358       4    2346    2364    2385       2    2346    2364
    2388       2    2343    2334    2349       4    2340    2355    2379       4
    2337    2352    2376       4    2334    2343    2361       4    2328    2316
    2331       4    2328    2343    2361       4    2328    2346    2367      12
    2328    2346    2370      12    2325    2340    2358       4    2319    2334
    2349       4    2307    2316    2331       4    2682    2673    2685       1
    2679    2673    2682       1    2679    2673    2685       1    2673    2661
    2676       2    2670    2661    2673       2    2670    2661    2676       1
    2664    2658    2667       1    2661    2658    2664       2    2661    2658
    2667       2    2661    2673    2679       2    2661    2673    2682       2
    2661    2673    2685       2    2658    2661    2670       2    2658    2661
    2676       2    2655    2640    2658       2    2652    2640    2655       1
    2652    2640    2658       2    2643    2622    2646       1    2640    2622
    2643       2    2640    2622    2646       2    2640    2658    2664       2
    2640    2658    2667       2    2631    2610    2634       4    2631    2616
    2637       4    2625    2601    2628       1    2622    2601    2625       2
    2622    2601    2628       2    2622    2640    2652       2    2622    2640
    2655       2    2616    2598    2619       4    2616    2631    2649       4
    2610    2595    2613       4    2610    2631    2649       4    2604    2586
    2607       1    2601    2586    2604       2    2601    2586    2607       2
    2601    2622    2643       2    2601    2622    2646       2    2598    2616
    2637       4    2595    2610    2634       4    2589    2574    2592       1
    2586    2574    2589       2    2586    2574    2592       2    2586    2601
    2625       2    2586    2601    2628       2    2583    2595    2613       8
    2583    2598    2619       8    2577    2556    2580       1    2574    2556
    2577       2    2574    2556    2580       2    2574    2586    2604       2
    2574    2586    2607       2    2565    2544    2568       8    2565    2547
    2571       8    2559    2538    2562       1    2556    2538    2559       2
    2556    2538    2562       2    2556    2574    2589       2    2556    2574
    2592       2    2547    2532    2550       4    2538    2556    2577       2
    2538    2556    2580       2    2535    2526    2541       4    2532    2547
    2571       4    2529    2544    2568       4    2526    2535    2553       4
    2520    2508    2523       4    2520    2535    2553       4    2520    2538
    2559      12    2520    2538    2562      12    2517    2532    2550       4
    2511    2526    2541       4    2499    2508    2523       4    2874    2865
    2877       1    2871    2865    2874       1    2871    2865    2877       1
    2865    2853    2868       2    2862    2853    2865       2    2862    2853
    2868       1    2856    2850    2859       1    2853    2850    2856       2
    2853    2850    2859       2    2853    2865    2871       2    2853    2865
    2874       2    2853    2865    2877       2    2850    2853    2862       2
    2850    2853    2868       2    2847    2832    2850       2    2844    2832
    2847       1    2844    2832    2850       2    2835    2814    2838       1
    2832    2814    2835       2    2832    2814    2838       2    2832    2850
    2856       2    2832    2850    2859       2    2823    2802    2826       4
    2823    2808    2829       4    2817    2793    2820       1    2814    2793
    2817       2    2814    2793    2820       2    2814    2832    2844       2
    2814    2832    2847       2    2808    2790    2811       4    2808    2823
    2841       4    2802    2787    2805       4    2802    2823    2841       4
    2796    2778    2799       1    2793    2778    2796       2    2793    2778
    2799       2    2793    2814    2835       2    2793    2814    2838       2
    2790    2808    2829       4    2787    2802    2826       4    2781    2766
    2784       1    2778    2766    2781       2    2778    2766    2784       2
    2778    2793    2817       2    2778    2793    2820       2    2775    2787
    2805       8    2775    2790    2811       8    2769    2748    2772       1
    2766    2748    2769       2    2766    2748    2772       2    2766    2778
    2796       2    2766    2778    2799       2    2757    2736    2760       8
    2757    2739    2763       8    2751    2730    2754       1    2748    2730
    2751       2    2748    2730    2754       2    2748    2766    2781       2
    2748    2766    2784       2    2739    2724    2742       4    2730    2748
    2769       2    2730    2748    2772       2    2727    2718    2733       4
    2724    2739    2763       4    2721    2736    2760       4    2718    2727
    2745       4    2712    2700    2715       4    2712    2727    2745       4
    2712    2730    2751      12    2712    2730    2754      12    2709    2724
    2742       4    2703    2718    2733       4    2691    2700    2715       4
    3066    3057    3069       1    3063    3057    3066       1    3063    3057
    3069       1    3057    3045    3060       2    3054    3045    3057       2
    3054    3045    3060       1    3048    3042    3051       1    3045    3042
    3048       2    3045    3042    3051       2    3045    3057    3063       2
    3045    3057    3066       2    3045    3057    3069       2    3042    3045
    3054       2    3042    3045    3060       2    3039    3024    3042       2
    3036    3024    3039       1    3036    3024    3042       2    3027    3006
    3030       1    3024    3006    3027       2    3024    3006    3030       2
    3024    3042    3048       2    3024    3042    3051       2    3015    2994
    3018       4    3015    3000    3021       4    3009    2985    3012       1
    3006    2985    3009       2    3006    2985    3012       2    3006    3024
    3036       2    3006    3024    3039       2    3000    2982    3003       4
    3000    3015    3033       4    2994    2979    2997       4    2994    3015
    3033       4    2988    2970    2991       1    2985    2970    2988       2
    2985    2970    2991       2    2985    3006    3027       2    2985    3006
    3030       2    2982    3000    3021       4    2979    2994    3018       4
    2973    2958    2976       1    2970    2958    2973       2    2970    2958
    2976       2    2970    2985    3009       2    2970    2985    3012       2
    2967    2979    2997       8    2967    2982    3003       8    2961    2940
    2964       1    2958    2940    2961       2    2958    2940    2964       2
    2958    2970    2988       2    2958    2970    2991       2    2949    2928
    2952       8    2949    2931    2955       8    2943    2922    2946       1
    2940    2922    2943       2    2940    2922    2946       2    2940    2958
    2973       2    2940    2958    2976       2    2931    2916    2934       4
    2922    2940    2961       2    2922    2940    2964       2    2919    2910
    2925       4    2916    2931    2955       4    2913    2928    2952       4
    2910    2919    2937       4    2904    2892    2907       4    2904    2919
    2937       4    2904    2922    2943      12    2904    2922    2946      12
    2901    2916    2934       4    2895    2910    2925       4    2883    2892
    2907       4    3258    3249    3261       1    3255    3249    3258       1
    3255    3249    3261       1    3249    3237    3252       2    3246    3237
    3249       2    3246    3237    3252       1    3240    3234    3243       1
    3237    3234    3240       2    3237    3234    3243       2    3237    3249
    3255       2    3237    3249    3258       2    3237    3249    3261       2
    3234    3237    3246       2    3234    3237    3252       2    3231    3216
    3234       2    3228    3216    3231       1    3228    3216    3234       2
    3219    3198    3222       1    3216    3198    3219       2    3216    3198
    3222       2    3216    3234    3240       2    3216    3234    3243       2
    3207    3186    3210       4    3207    3192    3213       4    3201    3177
    3204       1    3198    3177    3201       2    3198    3177    3204       2
    3198    3216    3228       2    3198    3216    3231       2    3192    3174
    3195       4    3192    3207    3225       4    3186    3171    3189       4
    3186    3207    3225       4    3180    3162    3183       1    3177    3162
    3180       2    3177    3162    3183       2    3177    3198    3219       2
    3177    3198    3222       2    3174    3192    3213       4    3171    3186
    3210       4    3165    3150    3168       1    3162    3150    3165       2
    3162    3150    3168       2    3162    3177    3201       2    3162    3177
    3204       2    3159    3171    3189       8    3159    3174    3195       8
    3153    3132    3156       1    3150    3132    3153       2    3150    3132
    3156       2    3150    3162    3180       2    3150    3162    3183       2
    3141    3120    3144       8    3141    3123    3147       8    3135    3114
    3138       1    3132    3114    3135       2    3132    3114    3138       2
    3132    3150    3165       2    3132    3150    3168       2    3123    3108
    3126       4    3114    3132    3153       2    3114    3132    3156       2
    3111    3102    3117       4    3108    3123    3147       4    3105    3120
    3144       4    3102    3111    3129       4    3096    3084    3099       4
    3096    3111    3129       4    3096    3114    3135      12    3096    3114
    3138      12    3093    3108    3126       4    3087    3102    3117       4
    3075    3084    3099       4    3450    3441    3453       1    3447    3441
    3450       1    3447    3441    3453       1    3441    3429    3444       2
    3438    3429    3441       2    3438    3429    3444       1    3432    3426
    3435       1    3429    3426    3432       2    3429    3426    3435       2
    3429    3441    3447       2    3429    3441    3450       2    3429    3441
    3453       2    3426    3429    3438       2    3426    3429    3444       2
    3423    3408    3426       2    3420    3408    3423       1    3420    3408
    3426       2    3411    3390    3414       1    3408    3390    3411       2
    3408    3390    3414       2    3408    3426    3432       2    3408    3426
    3435       2    3399    3378    3402       4    3399    3384    3405       4
    3393    3369    3396       1    3390    3369    3393       2    3390    3369
    3396       2    3390    3408    3420       2    3390    3408    3423       2
    3384    3366    3387       4    3384    3399    3417       4    3378    3363
    3381       4    3378    3399    3417       4    3372    3354    3375       1
    3369    3354    3372       2    3369    3354    3375       2    3369    3390
    3411       2    3369    3390    3414       2    3366    3384    3405       4
    3363    3378    3402       4    3357    3342    3360       1    3354    3342
    3357       2    3354    3342    3360       2    3354    3369    3393       2
    3354    3369    3396       2    3351    3363    3381       8    3351    3366
    3387       8    3345    3324    3348       1    3342    3324    3345       2
    3342    3324    3348       2    3342    3354    3372       2    3342    3354
    3375       2    3333    3312    3336       8    3333    3315    3339       8
    3327    3306    3330       1    3324    3306    3327       2    3324    3306
    3330       2    3324    3342    3357       2    3324    3342    3360       2
    3315    3300    3318       4    3306    3324    3345       2    3306    3324
    3348       2    3303    3294    3309       4    3300    3315    3339       4
    3297    3312    3336       4    3294    3303    3321       4    3288    3276
    3291       4    3288    3303    3321       4    3288    3306    3327      12
    3288    3306    3330      12    3285    3300    3318       4    3279    3294
    3309       4    3267    3276    3291       4    3642    3633    3645       1
    3639    3633    3642       1    3639    3633    3645       1    3633    3621
    3636       2    3630    3621    3633       2    3630    3621    3636       1
    3624    3618    3627       1    3621    3618    3624       2    3621    3618
    3627       2    3621    3633    3639       2    3621    3633    3642       2
    3621    3633    3645       2    3618    3621    3630       2    3618    3621
    3636       2    3615    3600    3618       2    3612    3600    3615       1
    3612    3600    3618       2    3603    3582    3606       1    3600    3582
    3603       2    3600    3582    3606       2    3600    3618    3624       2
    3600    3618    3627       2    3591    3570    3594       4    3591    3576
    3597       4    3585    3561    3588       1    3582    3561    3585       2
    3582    3561    3588       2    3582    3600    3612       2    3582    3600
    3615       2    3576    3558    3579       4    3576    3591    3609       4
    3570    3555    3573       4    3570    3591    3609       4    3564    3546
    3567       1    3561    3546    3564       2    3561    3546    3567       2
    3561    3582    3603       2    3561    3582    3606       2    3558    3576
    3597       4    3555    3570    3594       4    3549    3534    3552       1
    3546    3534    3549       2    3546    3534    3552       2    3546    3561
    3585       2    3546    3561    3588       2    3543    3555    3573       8
    3543    3558    3579       8    3537    3516    3540       1    3534    3516
    3537       2    3534    3516    3540       2    3534    3546    3564       2
    3534    3546    3567       2    3525    3504    3528       8    3525    3507
    3531       8    3519    3498    3522       1    3516    3498    3519       2
    3516    3498    3522       2    3516    3534    3549       2    3516    3534
    3552       2    3507    3492    3510       4    3498    3516    3537       2
    3498    3516    3540       2    3495    3486    3501       4    3492    3507
    3531       4    3489    3504    3528       4    3486    3495    3513       4
    3480    3468    3483       4    3480    3495    3513       4    3480    3498
    3519      12    3480    3498    3522      12    3477    3492    3510       4
    3471    3486    3501       4    3459    3468    3483       4    3834    3825
    3837       1    3831    3825    3834       1    3831    3825    3837       1
    3825    3813    3828       2    3822    3813    3825       2    3822    3813
    3828       1    3816    3810    3819       1    3813    3810    3816       2
    3813    3810    3819       2    3813    3825    3831       2    3813    3825
    3834       2    3813    3825    3837       2    3810    3813    3822       2
    3810    3813    3828       2    3807    3792    3810       2    3804    3792
    3807       1    3804    3792    3810       2    3795    3774    3798       1
    3792    3774    3795       2    3792    3774    3798       2    3792    3810
    3816       2    3792    3810    3819       2    3783    3762    3786       4
    3783    3768    3789       4    3777    3753    3780       1    3774    3753
    3777       2    3774    3753    3780       2    3774    3792    3804       2
    3774    3792    3807       2    3768    3750    3771       4    3768    3783
    3801       4    3762    3747    3765       4    3762    3783    3801       4
    3756    3738    3759       1    3753    3738    3756       2    3753    3738
    3759       2    3753    3774    3795       2    3753    3774    3798       2
    3750    3768    3789       4    3747    3762    3786       4    3741    3726
    3744       1    3738    3726    3741       2    3738    3726    3744       2
    3738    3753    3777       2    3738    3753    3780       2    3735    3747
    3765       8    3735    3750    3771       8    3729    3708    3732       1
    3726    3708    3729       2    3726    3708    3732       2    3726    3738
    3756       2    3726    3738    3759       2    3717    3696    3720       8
    3717    3699    3723       8    3711    3690    3714       1    3708    3690
    3711       2    3708    3690    3714       2    3708    3726    3741       2
    3708    3726    3744       2    3699    3684    3702       4    3690    3708
    3729       2    3690    3708    3732       2    3687    3678    3693       4
    3684    3699    3723       4    3681    3696    3720       4    3678    3687
    3705       4    3672    3660    3675       4    3672    3687    3705       4
    3672    3690    3711      12    3672    3690    3714      12    3669    3684
    3702       4    3663    3678    3693       4    3651    3660    3675       4
    4026    4017    4029       1    4023    4017    4026       1    4023    4017
    4029       1    4017    4005    4020       2    4014    4005    4017       2
    4014    4005    4020       1    4008    4002    4011       1    4005    4002
    4008       2    4005    4002    4011       2    4005    4017    4023       2
    4005    4017    4026       2    4005    4017    4029       2    4002    4005
    4014       2    4002    4005    4020       2    3999    3984    4002       2
    3996    3984    3999       1    3996    3984    4002       2    3987    3966
    3990       1    3984    3966    3987       2    3984    3966    3990       2
    3984    4002    4008       2    3984    4002    4011       2    3975    3954
    3978       4    3975    3960    3981       4    3969    3945    3972       1
    3966    3945    3969       2    3966    3945    3972       2    3966    3984
    3996       2    3966    3984    3999       2    3960    3942    3963       4
    3960    3975    3993       4    3954    3939    3957       4    3954    3975
    3993       4    3948    3930    3951       1    3945    3930    3948       2
    3945    3930    3951       2    3945    3966    3987       2    3945    3966
    3990       2    3942    3960    3981       4    3939    3954    3978       4
    3933    3918    3936       1    3930    3918    3933       2    3930    3918
    3936       2    3930    3945    3969       2    3930    3945    3972       2
    3927    3939    3957       8    3927    3942    3963       8    3921    3900
    3924       1    3918    3900    3921       2    3918    3900    3924       2
    3918    3930    3948       2    3918    3930    3951       2    3909    3888
    3912       8    3909    3891    3915       8    3903    3882    3906       1
    3900    3882    3903       2    3900    3882    3906       2    3900    3918
    3933       2    3900    3918    3936       2    3891    3876    3894       4
    3882    3900    3921       2    3882    3900    3924       2    3879    3870
    3885       4    3876    3891    3915       4    3873    3888    3912       4
    3870    3879    3897       4    3864    3852    3867       4    3864    3879
    3897       4    3864    3882    3903      12    3864    3882    3906      12
    3861    3876    3894       4    3855    3870    3885       4    3843    3852
    3867       4    4218    4209    4221       1    4215    4209    4218       1
    4215    4209    4221       1    4209    4197    4212       2    4206    4197
    4209       2    4206    4197    4212       1    4200    4194    4203       1
    4197    4194    4200       2    4197    4194    4203       2    4197    4209
    4215       2    4197    4209    4218       2    4197    4209    4221       2
    4194    4197    4206       2    4194    4197    4212       2    4191    4176
    4194       2    4188    4176    4191       1    4188    4176    4194       2
    4179    4158    4182       1    4176    4158    4179       2    4176    4158
    4182       2    4176    4194    4200       2    4176    4194    4203       2
    4167    4146    4170       4    4167    4152    4173       4    4161    4137
    4164       1    4158    4137    4161       2    4158    4137    4164       2
    4158    4176    4188       2    4158    4176    4191       2    4152    4134
    4155       4    4152    4167    4185       4    4146    4131    4149       4
    4146    4167    4185       4    4140    4122    4143       1    4137    4122
    4140       2    4137    4122    4143       2    4137    4158    4179       2
    4137    4158    4182       2    4134    4152    4173       4    4131    4146
    4170       4    4125    4110    4128       1    4122    4110    4125       2
    4122    4110    4128       2    4122    4137    4161       2    4122    4137
    4164       2    4119    4131    4149       8    4119    4134    4155       8
    4113    4092    4116       1    4110    4092    4113       2    4110    4092
    4116       2    4110    4122    4140       2    4110    4122    4143       2
    4101    4080    4104       8    4101    4083    4107       8    4095    4074
    4098       1    4092    4074    4095       2    4092    4074    4098       2
    4092    4110    4125       2    4092    4110    4128       2    4083    4068
    4086       4    4074    4092    4113       2    4074    4092    4116       2
    4071    4062    4077       4    4068    4083    4107       4    4065    4080
    4104       4    4062    4071    4089       4    4056    4044    4059       4
    4056    4071    4089       4    4056    4074    4095      12    4056    4074
    4098      12    4053    4068    4086       4    4047    4062    4077       4
    4035    4044    4059       4    4410    4401    4413       1    4407    4401
    4410       1    4407    4401    4413       1    4401    4389    4404       2
    4398    4389    4401       2    4398    4389    4404       1    4392    4386
    4395       1    4389    4386    4392       2    4389    4386    4395       2
    4389    4401    4407       2    4389    4401    4410       2    4389    4401
    4413       2    4386    4389    4398       2    4386    4389    4404       2
    4383    4368    4386       2    4380    4368    4383       1    4380    4368
    4386       2    4371    4350    4374       1    4368    4350    4371       2
    4368    4350    4374       2    4368    4386    4392       2    4368    4386
    4395       2    4359    4338    4362       4    4359    4344    4365       4
    4353    4329    4356       1    4350    4329    4353       2    4350    4329
    4356       2    4350    4368    4380       2    4350    4368    4383       2
    4344    4326    4347       4    4344    4359    4377       4    4338    4323
    4341       4    4338    4359    4377       4    4332    4314    4335       1
    4329    4314    4332       2    4329    4314    4335       2    4329    4350
    4371       2    4329    4350    4374       2    4326    4344    4365       4
    4323    4338    4362       4    4317    4302    4320       1    4314    4302
    4317       2    4314    4302    4320       2    4314    4329    4353       2
    4314    4329    4356       2    4311    4323    4341       8    4311    4326
    4347       8    4305    4284    4308       1    4302    4284    4305       2
    4302    4284    4308       2    4302    4314    4332       2    4302    4314
    4335       2    4293    4272    4296       8    4293    4275    4299       8
    4287    4266    4290       1    4284    4266    4287       2    4284    4266
    4290       2    4284    4302    4317       2    4284    4302    4320       2
    4275    4260    4278       4    4266    4284    4305       2    4266    4284
    4308       2    4263    4254    4269       4    4260    4275    4299       4
    4257    4272    4296       4    4254    4263    4281       4    4248    4236
    4251       4    4248    4263    4281       4    4248    4266    4287      12
    4248    4266    4290      12    4245    4260    4278       4    4239    4254
    4269       4    4227    4236    4251       4    4602    4593    4605       1
    4599    4593    4602       1    4599    4593    4605       1    4593    4581
    4596       2    4590    4581    4593       2    4590    4581    4596       1
    4584    4578    4587       1    4581    4578    4584       2    4581    4578
    4587       2    4581    4593    4599       2    4581    4593    4602       2
    4581    4593    4605       2    4578    4581    4590       2    4578    4581
    4596       2    4575    4560    4578       2    4572    4560    4575       1
    4572    4560    4578       2    4563    4542    4566       1    4560    4542
    4563       2    4560    4542    4566       2    4560    4578    4584       2
    4560    4578    4587       2    4551    4530    4554       4    4551    4536
    4557       4    4545    4521    4548       1    4542    4521    4545       2
    4542    4521    4548       2    4542    4560    4572       2    4542    4560
    4575       2    4536    4518    4539       4    4536    4551    4569       4
    4530    4515    4533       4    4530    4551    4569       4    4524    4506
    4527       1    4521    4506    4524       2    4521    4506    4527       2
    4521    4542    4563       2    4521    4542    4566       2    4518    4536
    4557       4    4515    4530    4554       4    4509    4494    4512       1
    4506    4494    4509       2    4506    4494    4512       2    4506    4521
    4545       2    4506    4521    4548       2    4503    4515    4533       8
    4503    4518    4539       8    4497    4476    4500       1    4494    4476
    4497       2    4494    4476    4500       2    4494    4506    4524       2
    4494    4506    4527       2    4485    4464    4488       8    4485    4467
    4491       8    4479    4458    4482       1    4476    4458    4479       2
    4476    4458    4482       2    4476    4494    4509       2    4476    4494
    4512       2    4467    4452    4470       4    4458    4476    4497       2
    4458    4476    4500       2    4455    4446    4461       4    4452    4467
    4491       4    4449    4464    4488       4    4446    4455    4473       4
    4440    4428    4443       4    4440    4455    4473       4    4440    4458
    4479      12    4440    4458    4482      12    4437    4452    4470       4
    4431    4446    4461       4    4419    4428    4443       4    4794    4785
    4797       1    4791    4785    4794       1    4791    4785    4797       1
    4785    4773    4788       2    4782    4773    4785       2    4782    4773
    4788       1    4776    4770    4779       1    4773    4770    4776       2
    4773    4770    4779       2    4773    4785    4791       2    4773    4785
    4794       2    4773    4785    4797       2    4770    4773    4782       2
    4770    4773    4788       2    4767    4752    4770       2    4764    4752
    4767       1    4764    4752    4770       2    4755    4734    4758       1
    4752    4734    4755       2    4752    4734    4758       2    4752    4770
    4776       2    4752    4770    4779       2    4743    4722    4746       4
    4743    4728    4749       4    4737    4713    4740       1    4734    4713
    4737       2    4734    4713    4740       2    4734    4752    4764       2
    4734    4752    4767       2    4728    4710    4731       4    4728    4743
    4761       4    4722    4707    4725       4    4722    4743    4761       4
    4716    4698    4719       1    4713    4698    4716       2    4713    4698
    4719       2    4713    4734    4755       2    4713    4734    4758       2
    4710    4728    4749       4    4707    4722    4746       4    4701    4686
    4704       1    4698    4686    4701       2    4698    4686    4704       2
    4698    4713    4737       2    4698    4713    4740       2    4695    4707
    4725       8    4695    4710    4731       8    4689    4668    4692       1
    4686    4668    4689       2    4686    4668    4692       2    4686    4698
    4716       2    4686    4698    4719       2    4677    4656    4680       8
    4677    4659    4683       8    4671    4650    4674       1    4668    4650
    4671       2    4668    4650    4674       2    4668    4686    4701       2
    4668    4686    4704       2    4659    4644    4662       4    4650    4668
    4689       2    4650    4668    4692       2    4647    4638    4653       4
    4644    4659    4683       4    4641    4656    4680       4    4638    4647
    4665       4    4632    4620    4635       4    4632    4647    4665       4
    4632    4650    4671      12    4632    4650    4674      12    4629    4644
    4662       4    4623    4638    4653       4    4611    4620    4635       4
    4986    4977    4989       1    4983    4977    4986       1    4983    4977
    4989       1    4977    4965    4980       2    4974    4965    4977       2
    4974    4965    4980       1    4968    4962    4971       1    4965    4962
    4968       2    4965    4962    4971       2    4965    4977    4983       2
    4965    4977    4986       2    4965    4977    4989       2    4962    4965
    4974       2    4962    4965    4980       2    4959    4944    4962       2
    4956    4944    4959       1    4956    4944    4962       2    4947    4926
    4950       1    4944    4926    4947       2    4944    4926    4950       2
    4944    4962    4968       2    4944    4962    4971       2    4935    4914
    4938       4    4935    4920    4941       4    4929    4905    4932       1
    4926    4905    4929       2    4926    4905    4932       2    4926    4944
    4956       2    4926    4944    4959       2    4920    4902    4923       4
    4920    4935    4953       4    4914    4899    4917       4    4914    4935
    4953       4    4908    4890    4911       1    4905    4890    4908       2
    4905    4890    4911       2    4905    4926    4947       2    4905    4926
    4950       2    4902    4920    4941       4    4899    4914    4938       4
    4893    4878    4896       1    4890    4878    4893       2    4890    4878
    4896       2    4890    4905    4929       2    4890    4905    4932       2
    4887    4899    4917       8    4887    4902    4923       8    4881    4860
    4884       1    4878    4860    4881       2    4878    4860    4884       2
    4878    4890    4908       2    4878    4890    4911       2    4869    4848
    4872       8    4869    4851    4875       8    4863    4842    4866       1
    4860    4842    4863       2    4860    4842    4866       2    4860    4878
    4893       2    4860    4878    4896       2    4851    4836    4854       4
    4842    4860    4881       2    4842    4860    4884       2    4839    4830
    4845       4    4836    4851    4875       4    4833    4848    4872       4
    4830    4839    4857       4    4824    4812    4827       4    4824    4839
    4857       4    4824    4842    4863      12    4824    4842    4866      12
    4821    4836    4854       4    4815    4830    4845       4    4803    4812
    4827       4    5178    5169    5181       1    5175    5169    5178       1
    5175    5169    5181       1    5169    5157    5172       2    5166    5157
    5169       2    5166    5157    5172       1    5160    5154    5163       1
    5157    5154    5160       2    5157    5154    5163       2    5157    5169
    5175       2    5157    5169    5178       2    5157    5169    5181       2
    5154    5157    5166       2    5154    5157    5172       2    5151    5136
    5154       2    5148    5136    5151       1    5148    5136    5154       2
    5139    5118    5142       1    5136    5118    5139       2    5136    5118
    5142       2    5136    5154    5160       2    5136    5154    5163       2
    5127    5106    5130       4    5127    5112    5133       4    5121    5097
    5124       1    5118    5097    5121       2    5118    5097    5124       2
    5118    5136    5148       2    5118    5136    5151       2    5112    5094
    5115       4    5112    5127    5145       4    5106    5091    5109       4
    5106    5127    5145       4    5100    5082    5103       1    5097    5082
    5100       2    5097    5082    5103       2    5097    5118    5139       2
    5097    5118    5142       2    5094    5112    5133       4    5091    5106
    5130       4    5085    5070    5088       1    5082    5070    5085       2
    5082    5070    5088       2    5082    5097    5121       2    5082    5097
    5124       2    5079    5091    5109       8    5079    5094    5115       8
    5073    5052    5076       1    5070    5052    5073       2    5070    5052
    5076       2    5070    5082    5100       2    5070    5082    5103       2
    5061    5040    5064       8    5061    5043    5067       8    5055    5034
    5058       1    5052    5034    5055       2    5052    5034    5058       2
    5052    5070    5085       2    5052    5070    5088       2    5043    5028
    5046       4    5034    5052    5073       2    5034    5052    5076       2
    5031    5022    5037       4    5028    5043    5067       4    5025    5040
    5064       4    5022    5031    5049       4    5016    5004    5019       4
    5016    5031    5049       4    5016    5034    5055      12    5016    5034
    5058      12    5013    5028    5046       4    5007    5022    5037       4
    4995    5004    5019       4    5370    5361    5373       1    5367    5361
    5370       1    5367    5361    5373       1    5361    5349    5364       2
    5358    5349    5361       2    5358    5349    5364       1    5352    5346
    5355       1    5349    5346    5352       2    5349    5346    5355       2
    5349    5361    5367       2    5349    5361    5370       2    5349    5361
    5373       2    5346    5349    5358       2    5346    5349    5364       2
    5343    5328    5346       2    5340    5328    5343       1    5340    5328
    5346       2    5331    5310    5334       1    5328    5310    5331       2
    5328    5310    5334       2    5328    5346    5352       2    5328    5346
    5355       2    5319    5298    5322       4    5319    5304    5325       4
    5313    5289    5316       1    5310    5289    5313       2    5310    5289
    5316       2    5310    5328    5340       2    5310    5328    5343       2
    5304    5286    5307       4    5304    5319    5337       4    5298    5283
    5301       4    5298    5319    5337       4    5292    5274    5295       1
    5289    5274    5292       2    5289    5274    5295       2    5289    5310
    5331       2    5289    5310    5334       2    5286    5304    5325       4
    5283    5298    5322       4    5277    5262    5280       1    5274    5262
    5277       2    5274    5262    5280       2    5274    5289    5313       2
    5274    5289    5316       2    5271    5283    5301       8    5271    5286
    5307       8    5265    5244    5268       1    5262    5244    5265       2
    5262    5244    5268       2    5262    5274    5292       2    5262    5274
    5295       2    5253    5232    5256       8    5253    5235    5259       8
    5247    5226    5250       1    5244    5226    5247       2    5244    5226
    5250       2    5244    5262    5277       2    5244    5262    5280       2
    5235    5220    5238       4    5226    5244    5265       2    5226    5244
    5268       2    5223    5214    5229       4    5220    5235    5259       4
    5217    5232    5256       4    5214    5223    5241       4    5208    5196
    5211       4    5208    5223    5241       4    5208    5226    5247      12
    5208    5226    5250      12    5205    5220    5238       4    5199    5214
    5229       4    5187    5196    5211       4    5562    5553    5565       1
    5559    5553    5562       1    5559    5553    5565       1    5553    5541
    5556       2    5550    5541    5553       2    5550    5541    5556       1
    5544    5538    5547       1    5541    5538    5544       2    5541    5538
    5547       2    5541    5553    5559       2    5541    5553    5562       2
    5541    5553    5565       2    5538    5541    5550       2    5538    5541
    5556       2    5535    5520    5538       2    5532    5520    5535       1
    5532    5520    5538       2    5523    5502    5526       1    5520    5502
    5523       2    5520    5502    5526       2    5520    5538    5544       2
    5520    5538    5547       2    5511    5490    5514       4    5511    5496
    5517       4    5505    5481    5508       1    5502    5481    5505       2
    5502    5481    5508       2    5502    5520    5532       2    5502    5520
    5535       2    5496    5478    5499       4    5496    5511    5529       4
    5490    5475    5493       4    5490    5511    5529       4    5484    5466
    5487       1    5481    5466    5484       2    5481    5466    5487       2
    5481    5502    5523       2    5481    5502    5526       2    5478    5496
    5517       4    5475    5490    5514       4    5469    5454    5472       1
    5466    5454    5469       2    5466    5454    5472       2    5466    5481
    5505       2    5466    5481    5508       2    5463    5475    5493       8
    5463    5478    5499       8    5457    5436    5460       1    5454    5436
    5457       2    5454    5436    5460       2    5454    5466    5484       2
    5454    5466    5487       2    5445    5424    5448       8    5445    5427
    5451       8    5439    5418    5442       1    5436    5418    5439       2
    5436    5418    5442       2    5436    5454    5469       2    5436    5454
    5472       2    5427    5412    5430       4    5418    5436    5457       2
    5418    5436    5460       2    5415    5406    5421       4    5412    5427
    5451       4    5409    5424    5448       4    5406    5415    5433       4
    5400    5388    5403       4    5400    5415    5433       4    5400    5418
    5439      12    5400    5418    5442      12    5397    5412    5430       4
    5391    5406    5421       4    5379    5388    5403       4    5754    5745
    5757       1    5751    5745    5754       1    5751    5745    5757       1
    5745    5733    5748       2    5742    5733    5745       2    5742    5733
    5748       1    5736    5730    5739       1    5733    5730    5736       2
    5733    5730    5739       2    5733    5745    5751       2    5733    5745
    5754       2    5733    5745    5757       2    5730    5733    5742       2
    5730    5733    5748       2    5727    5712    5730       2    5724    5712
    5727       1    5724    5712    5730       2    5715    5694    5718       1
    5712    5694    5715       2    5712    5694    5718       2    5712    5730
    5736       2    5712    5730    5739       2    5703    5682    5706       4
    5703    5688    5709       4    5697    5673    5700       1    5694    5673
    5697       2    5694    5673    5700       2    5694    5712    5724       2
    5694    5712    5727       2    5688    5670    5691       4    5688    5703
    5721       4    5682    5667    5685       4    5682    5703    5721       4
    5676    5658    5679       1    5673    5658    5676       2    5673    5658
    5679       2    5673    5694    5715       2    5673    5694    5718       2
    5670    5688    5709       4    5667    5682    5706       4    5661    5646
    5664       1    5658    5646    5661       2    5658    5646    5664       2
    5658    5673    5697       2    5658    5673    5700       2    5655    5667
    5685       8    5655    5670    5691       8    5649    5628    5652       1
    5646    5628    5649       2    5646    5628    5652       2    5646    5658
    5676       2    5646    5658    5679       2    5637    5616    5640       8
    5637    5619    5643       8    5631    5610    5634       1    5628    5610
    5631       2    5628    5610    5634       2    5628    5646    5661       2
    5628    5646    5664       2    5619    5604    5622       4    5610    5628
    5649       2    5610    5628    5652       2    5607    5598    5613       4
    5604    5619    5643       4    5601    5616    5640       4    5598    5607
    5625       4    5592    5580    5595       4    5592    5607    5625       4
    5592    5610    5631      12    5592    5610    5634      12    5589    5604
    5622       4    5583    5598    5613       4    5571    5580    5595       4
    5946    5937    5949       1    5943    5937    5946       1    5943    5937
    5949       1    5937    5925    5940       2    5934    5925    5937       2
    5934    5925    5940       1    5928    5922    5931       1    5925    5922
    5928       2    5925    5922    5931       2    5925    5937    5943       2
    5925    5937    5946       2    5925    5937    5949       2    5922    5925
    5934       2    5922    5925    5940       2    5919    5904    5922       2
    5916    5904    5919       1    5916    5904    5922       2    5907    5886
    5910       1    5904    5886    5907       2    5904    5886    5910       2
    5904    5922    5928       2    5904    5922    5931       2    5895    5874
    5898       4    5895    5880    5901       4    5889    5865    5892       1
    5886    5865    5889       2    5886    5865    5892       2    5886    5904
    5916       2    5886    5904    5919       2    5880    5862    5883       4
    5880    5895    5913       4    5874    5859    5877       4    5874    5895
    5913       4    5868    5850    5871       1    5865    5850    5868       2
    5865    5850    5871       2    5865    5886    5907       2    5865    5886
    5910       2    5862    5880    5901       4    5859    5874    5898       4
    5853    5838    5856       1    5850    5838    5853       2    5850    5838
    5856       2    5850    5865    5889       2    5850    5865    5892       2
    5847    5859    5877       8    5847    5862    5883       8    5841    5820
    5844       1    5838    5820    5841       2    5838    5820    5844       2
    5838    5850    5868       2    5838    5850    5871       2    5829    5808
    5832       8    5829    5811    5835       8    5823    5802    5826       1
    5820    5802    5823       2    5820    5802    5826       2    5820    5838
    5853       2    5820    5838    5856       2    5811    5796    5814       4
    5802    5820    5841       2    5802    5820    5844       2    5799    5790
    5805       4    5796    5811    5835       4    5793    5808    5832       4
    5790    5799    5817       4    5784    5772    5787       4    5784    5799
    5817       4    5784    5802    5823      12    5784    5802    5826      12
    5781    5796    5814       4    5775    5790    5805       4    5763    5772
    5787       4    6138    6129    6141       1    6135    6129    6138       1
    6135    6129    6141       1    6129    6117    6132       2    6126    6117
    6129       2    6126    6117    6132       1    6120    6114    6123       1
    6117    6114    6120       2    6117    6114    6123       2    6117    6129
    6135       2    6117    6129    6138       2    6117    6129    6141       2
    6114    6117    6126       2    6114    6117    6132       2    6111    6096
    6114       2    6108    6096    6111       1    6108    6096    6114       2
    6099    6078    6102       1    6096    6078    6099       2    6096    6078
    6102       2    6096    6114    6120       2    6096    6114    6123       2
    6087    6066    6090       4    6087    6072    6093       4    6081    6057
    6084       1    6078    6057    6081       2    6078    6057    6084       2
    6078    6096    6108       2    6078    6096    6111       2    6072    6054
    6075       4    6072    6087    6105       4    6066    6051    6069       4
    6066    6087    6105       4    6060    6042    6063       1    6057    6042
    6060       2    6057    6042    6063       2    6057    6078    6099       2
    6057    6078    6102       2    6054    6072    6093       4    6051    6066
    6090       4    6045    6030    6048       1    6042    6030    6045       2
    6042    6030    6048       2    6042    6057    6081       2    6042    6057
    6084       2    6039    6051    6069       8    6039    6054    6075       8
    6033    6012    6036       1    6030    6012    6033       2    6030    6012
    6036       2    6030    6042    6060       2    6030    6042    6063       2
    6021    6000    6024       8    6021    6003    6027       8    6015    5994
    6018       1    6012    5994    6015       2    6012    5994    6018       2
    6012    6030    6045       2    6012    6030    6048       2    6003    5988
    6006       4    5994    6012    6033       2    5994    6012    6036       2
    5991    5982    5997       4    5988    6003    6027       4    5985    6000
    6024       4    5982    5991    6009       4    5976    5964    5979       4
    5976    5991    6009       4    5976    5994    6015      12    5976    5994
    6018      12    5973    5988    6006       4    5967    5982    5997       4
    5955    5964    5979       4    6330    6321    6333       1    6327    6321
    6330       1    6327    6321    6333       1    6321    6309    6324       2
    6318    6309    6321       2    6318    6309    6324       1    6312    6306
    6315       1    6309    6306    6312       2    6309    6306    6315       2
    6309    6321    6327       2    6309    6321    6330       2    6309    6321
    6333       2    6306    6309    6318       2    6306    6309    6324       2
    6303    6288    6306       2    6300    6288    6303       1    6300    6288
    6306       2    6291    6270    6294       1    6288    6270    6291       2
    6288    6270    6294       2    6288    6306    6312       2    6288    6306
    6315       2    6279    6258    6282       4    6279    6264    6285       4
    6273    6249    6276       1    6270    6249    6273       2    6270    6249
    6276       2    6270    6288    6300       2    6270    6288    6303       2
    6264    6246    6267       4    6264    6279    6297       4    6258    6243
    6261       4    6258    6279    6297       4    6252    6234    6255       1
    6249    6234    6252       2    6249    6234    6255       2    6249    6270
    6291       2    6249    6270    6294       2    6246    6264    6285       4
    6243    6258    6282       4    6237    6222    6240       1    6234    6222
    6237       2    6234    6222    6240       2    6234    6249    6273       2
    6234    6249    6276       2    6231    6243    6261       8    6231    6246
    6267       8    6225    6204    6228       1    6222    6204    6225       2
    6222    6204    6228       2    6222    6234    6252       2    6222    6234
    6255       2    6213    6192    6216       8    6213    6195    6219       8
    6207    6186    6210       1    6204    6186    6207       2    6204    6186
    6210       2    6204    6222    6237       2    6204    6222    6240       2
    6195    6180    6198       4    6186    6204    6225       2    6186    6204
    6228       2    6183    6174    6189       4    6180    6195    6219       4
    6177    6192    6216       4    6174    6183    6201       4    6168    6156
    6171       4    6168    6183    6201       4    6168    6186    6207      12
    6168    6186    6210      12    6165    6180    6198       4    6159    6174
    6189       4    6147    6156    6171       4    6522    6513    6525       1
    6519    6513    6522       1    6519    6513    6525       1    6513    6501
    6516       2    6510    6501    6513       2    6510    6501    6516       1
    6504    6498    6507       1    6501    6498    6504       2    6501    6498
    6507       2    6501    6513    6519       2    6501    6513    6522       2
    6501    6513    6525       2    6498    6501    6510       2    6498    6501
    6516       2    6495    6480    6498       2    6492    6480    6495       1
    6492    6480    6498       2    6483    6462    6486       1    6480    6462
    6483       2    6480    6462    6486       2    6480    6498    6504       2
    6480    6498    6507       2    6471    6450    6474       4    6471    6456
    6477       4    6465    6441    6468       1    6462    6441    6465       2
    6462    6441    6468       2    6462    6480    6492       2    6462    6480
    6495       2    6456    6438    6459       4    6456    6471    6489       4
    6450    6435    6453       4    6450    6471    6489       4    6444    6426
    6447       1    6441    6426    6444       2    6441    6426    6447       2
    6441    6462    6483       2    6441    6462    6486       2    6438    6456
    6477       4    6435    6450    6474       4    6429    6414    6432       1
    6426    6414    6429       2    6426    6414    6432       2    6426    6441
    6465       2    6426    6441    6468       2    6423    6435    6453       8
    6423    6438    6459       8    6417    6396    6420       1    6414    6396
    6417       2    6414    6396    6420       2    6414    6426    6444       2
    6414    6426    6447       2    6405    6384    6408       8    6405    6387
    6411       8    6399    6378    6402       1    6396    6378    6399       2
    6396    6378    6402       2    6396    6414    6429       2    6396    6414
    6432       2    6387    6372    6390       4    6378    6396    6417       2
    6378    6396    6420       2    6375    6366    6381       4    6372    6387
    6411       4    6369    6384    6408       4    6366    6375    6393       4
    6360    6348    6363       4    6360    6375    6393       4    6360    6378
    6399      12    6360    6378    6402      12    6357    6372    6390       4
    6351    6366    6381       4    6339    6348    6363       4    6714    6705
    6717       1    6711    6705    6714       1    6711    6705    6717       1
    6705    6693    6708       2    6702    6693    6705       2    6702    6693
    6708       1    6696    6690    6699       1    6693    6690    6696       2
    6693    6690    6699       2    6693    6705    6711       2    6693    6705
    6714       2    6693    6705    6717       2    6690    6693    6702       2
    6690    6693    6708       2    6687    6672    6690       2    6684    6672
    6687       1    6684    6672    6690       2    6675    6654    6678       1
    6672    6654    6675       2    6672    6654    6678       2    6672    6690
    6696       2    6672    6690    6699       2    6663    6642    6666       4
    6663    6648    6669       4    6657    6633    6660       1    6654    6633
    6657       2    6654    6633    6660       2    6654    6672    6684       2
    6654    6672    6687       2    6648    6630    6651       4    6648    6663
    6681       4    6642    6627    6645       4    6642    6663    6681       4
    6636    6618    6639       1    6633    6618    6636       2    6633    6618
    6639       2    6633    6654    6675       2    6633    6654    6678       2
    6630    6648    6669       4    6627    6642    6666       4    6621    6606
    6624       1    6618    6606    6621       2    6618    6606    6624       2
    6618    6633    6657       2    6618    6633    6660       2    6615    6627
    6645       8    6615    6630    6651       8    6609    6588    6612       1
    6606    6588    6609       2    6606    6588    6612       2    6606    6618
    6636       2    6606    6618    6639       2    6597    6576    6600       8
    6597    6579    6603       8    6591    6570    6594       1    6588    6570
    6591       2    6588    6570    6594       2    6588    6606    6621       2
    6588    6606    6624       2    6579    6564    6582       4    6570    6588
    6609       2    6570    6588    6612       2    6567    6558    6573       4
    6564    6579    6603       4    6561    6576    6600       4    6558    6567
    6585       4    6552    6540    6555       4    6552    6567    6585       4
    6552    6570    6591      12    6552    6570    6594      12    6549    6564
    6582       4    6543    6558    6573       4    6531    6540    6555       4
    6906    6897    6909       1    6903    6897    6906       1    6903    6897
    6909       1    6897    6885    6900       2    6894    6885    6897       2
    6894    6885    6900       1    6888    6882    6891       1    6885    6882
    6888       2    6885    6882    6891       2    6885    6897    6903       2
    6885    6897    6906       2    6885    6897    6909       2    6882    6885
    6894       2    6882    6885    6900       2    6879    6864    6882       2
    6876    6864    6879       1    6876    6864    6882       2    6867    6846
    6870       1    6864    6846    6867       2    6864    6846    6870       2
    6864    6882    6888       2    6864    6882    6891       2    6855    6834
    6858       4    6855    6840    6861       4    6849    6825    6852       1
    6846    6825    6849       2    6846    6825    6852       2    6846    6864
    6876       2    6846    6864    6879       2    6840    6822    6843       4
    6840    6855    6873       4    6834    6819    6837       4    6834    6855
    6873       4    6828    6810    6831       1    6825    6810    6828       2
    6825    6810    6831       2    6825    6846    6867       2    6825    6846
    6870       2    6822    6840    6861       4    6819    6834    6858       4
    6813    6798    6816       1    6810    6798    6813       2    6810    6798
    6816       2    6810    6825    6849       2    6810    6825    6852       2
    6807    6819    6837       8    6807    6822    6843       8    6801    6780
    6804       1    6798    6780    6801       2    6798    6780    6804       2
    6798    6810    6828       2    6798    6810    6831       2    6789    6768
    6792       8    6789    6771    6795       8    6783    6762    6786       1
    6780    6762    6783       2    6780    6762    6786       2    6780    6798
    6813       2    6780    6798    6816       2    6771    6756    6774       4
    6762    6780    6801       2    6762    6780    6804       2    6759    6750
    6765       4    6756    6771    6795       4    6753    6768    6792       4
    6750    6759    6777       4    6744    6732    6747       4    6744    6759
    6777       4    6744    6762    6783      12    6744    6762    6786      12
    6741    6756    6774       4    6735    6750    6765       4    6723    6732
    6747       4    7098    7089    7101       1    7095    7089    7098       1
    7095    7089    7101       1    7089    7077    7092       2    7086    7077
    7089       2    7086    7077    7092       1    7080    7074    7083       1
    7077    7074    7080       2    7077    7074    7083       2    7077    7089
    7095       2    7077    7089    7098       2    7077    7089    7101       2
    7074    7077    7086       2    7074    7077    7092       2    7071    7056
    7074       2    7068    7056    7071       1    7068    7056    7074       2
    7059    7038    7062       1    7056    7038    7059       2    7056    7038
    7062       2    7056    7074    7080       2    7056    7074    7083       2
    7047    7026    7050       4    7047    7032    7053       4    7041    7017
    7044       1    7038    7017    7041       2    7038    7017    7044       2
    7038    7056    7068       2    7038    7056    7071       2    7032    7014
    7035       4    7032    7047    7065       4    7026    7011    7029       4
    7026    7047    7065       4    7020    7002    7023       1    7017    7002
    7020       2    7017    7002    7023       2    7017    7038    7059       2
    7017    7038    7062       2    7014    7032    7053       4    7011    7026
    7050       4    7005    6990    7008       1    7002    6990    7005       2
    7002    6990    7008       2    7002    7017    7041       2    7002    7017
    7044       2    6999    7011    7029       8    6999    7014    7035       8
    6993    6972    6996       1    6990    6972    6993       2    6990    6972
    6996       2    6990    7002    7020       2    6990    7002    7023       2
    6981    6960    6984       8    6981    6963    6987       8    6975    6954
    6978       1    6972    6954    6975       2    6972    6954    6978       2
    6972    6990    7005       2    6972    6990    7008       2    6963    6948
    6966       4    6954    6972    6993       2    6954    6972    6996       2
    6951    6942    6957       4    6948    6963    6987       4    6945    6960
    6984       4    6942    6951    6969       4    6936    6924    6939       4
    6936    6951    6969       4    6936    6954    6975      12    6936    6954
    6978      12    6933    6948    6966       4    6927    6942    6957       4
    6915    6924    6939       4    7290    7281    7293       1    7287    7281
    7290       1    7287    7281    7293       1    7281    7269    7284       2
    7278    7269    7281       2    7278    7269    7284       1    7272    7266
    7275       1    7269    7266    7272       2    7269    7266    7275       2
    7269    7281    7287       2    7269    7281    7290       2    7269    7281
    7293       2    7266    7269    7278       2    7266    7269    7284       2
    7263    7248    7266       2    7260    7248    7263       1    7260    7248
    7266       2    7251    7230    7254       1    7248    7230    7251       2
    7248    7230    7254       2    7248    7266    7272       2    7248    7266
    7275       2    7239    7218    7242       4    7239    7224    7245       4
    7233    7209    7236       1    7230    7209    7233       2    7230    7209
    7236       2    7230    7248    7260       2    7230    7248    7263       2
    7224    7206    7227       4    7224    7239    7257       4    7218    7203
    7221       4    7218    7239    7257       4    7212    7194    7215       1
    7209    7194    7212       2    7209    7194    7215       2    7209    7230
    7251       2    7209    7230    7254       2    7206    7224    7245       4
    7203    7218    7242       4    7197    7182    7200       1    7194    7182
    7197       2    7194    7182    7200       2    7194    7209    7233       2
    7194    7209    7236       2    7191    7203    7221       8    7191    7206
    7227       8    7185    7164    7188       1    7182    7164    7185       2
    7182    7164    7188       2    7182    7194    7212       2    7182    7194
    7215       2    7173    7152    7176       8    7173    7155    7179       8
    7167    7146    7170       1    7164    7146    7167       2    7164    7146
    7170       2    7164    7182    7197       2    7164    7182    7200       2
    7155    7140    7158       4    7146    7164    7185       2    7146    7164
    7188       2    7143    7134    7149       4    7140    7155    7179       4
    7137    7152    7176       4    7134    7143    7161       4    7128    7116
    7131       4    7128    7143    7161       4    7128    7146    7167      12
    7128    7146    7170      12    7125    7140    7158       4    7119    7134
    7149       4    7107    7116    7131       4    7482    7473    7485       1
    7479    7473    7482       1    7479    7473    7485       1    7473    7461
    7476       2    7470    7461    7473       2    7470    7461    7476       1
    7464    7458    7467       1    7461    7458    7464       2    7461    7458
    7467       2    7461    7473    7479       2    7461    7473    7482       2
    7461    7473    7485       2    7458    7461    7470       2    7458    7461
    7476       2    7455    7440    7458       2    7452    7440    7455       1
    7452    7440    7458       2    7443    7422    7446       1    7440    7422
    7443       2    7440    7422    7446       2    7440    7458    7464       2
    7440    7458    7467       2    7431    7410    7434       4    7431    7416
    7437       4    7425    7401    7428       1    7422    7401    7425       2
    7422    7401    7428       2    7422    7440    7452       2    7422    7440
    7455       2    7416    7398    7419       4    7416    7431    7449       4
    7410    7395    7413       4    7410    7431    7449       4    7404    7386
    7407       1    7401    7386    7404       2    7401    7386    7407       2
    7401    7422    7443       2    7401    7422    7446       2    7398    7416
    7437       4    7395    7410    7434       4    7389    7374    7392       1
    7386    7374    7389       2    7386    7374    7392       2    7386    7401
    7425       2    7386    7401    7428       2    7383    7395    7413       8
    7383    7398    7419       8    7377    7356    7380       1    7374    7356
    7377       2    7374    7356    7380       2    7374    7386    7404       2
    7374    7386    7407       2    7365    7344    7368       8    7365    7347
    7371       8    7359    7338    7362       1    7356    7338    7359       2
    7356    7338    7362       2    7356    7374    7389       2    7356    7374
    7392       2    7347    7332    7350       4    7338    7356    7377       2
    7338    7356    7380       2    7335    7326    7341       4    7332    7347
    7371       4    7329    7344    7368       4    7326    7335    7353       4
    7320    7308    7323       4    7320    7335    7353       4    7320    7338
    7359      12    7320    7338    7362      12    7317    7332    7350       4
    7311    7326    7341       4    7299    7308    7323       4    7674    7665
    7677       1    7671    7665    7674       1    7671    7665    7677       1
    7665    7653    7668       2    7662    7653    7665       2    7662    7653
    7668       1    7656    7650    7659       1    7653    7650    7656       2
    7653    7650    7659       2    7653    7665    7671       2    7653    7665
    7674       2    7653    7665    7677       2    7650    7653    7662       2
    7650    7653    7668       2    7647    7632    7650       2    7644    7632
    7647       1    7644    7632    7650       2    7635    7614    7638       1
    7632    7614    7635       2    7632    7614    7638       2    7632    7650
    7656       2    7632    7650    7659       2    7623    7602    7626       4
    7623    7608    7629       4    7617    7593    7620       1    7614    7593
    7617       2    7614    7593    7620       2    7614    7632    7644       2
    7614    7632    7647       2    7608    7590    7611       4    7608    7623
    7641       4    7602    7587    7605       4    7602    7623    7641       4
    7596    7578    7599       1    7593    7578    7596       2    7593    7578
    7599       2    7593    7614    7635       2    7593    7614    7638       2
    7590    7608    7629       4    7587    7602    7626       4    7581    7566
    7584       1    7578    7566    7581       2    7578    7566    7584       2
    7578    7593    7617       2    7578    7593    7620       2    7575    7587
    7605       8    7575    7590    7611       8    7569    7548    7572       1
    7566    7548    7569       2    7566    7548    7572       2    7566    7578
    7596       2    7566    7578    7599       2    7557    7536    7560       8
    7557    7539    7563       8    7551    7530    7554       1    7548    7530
    7551       2    7548    7530    7554       2    7548    7566    7581       2
    7548    7566    7584       2    7539    7524    7542       4    7530    7548
    7569       2    7530    7548    7572       2    7527    7518    7533       4
    7524    7539    7563       4    7521    7536    7560       4    7518    7527
    7545       4    7512    7500    7515       4    7512    7527    7545       4
    7512    7530    7551      12    7512    7530    7554      12    7509    7524
    7542       4    7503    7518    7533       4    7491    7500    7515       4
    7866    7857    7869       1    7863    7857    7866       1    7863    7857
    7869       1    7857    7845    7860       2    7854    7845    7857       2
    7854    7845    7860       1    7848    7842    7851       1    7845    7842
    7848       2    7845    7842    7851       2    7845    7857    7863       2
    7845    7857    7866       2    7845    7857    7869       2    7842    7845
    7854       2    7842    7845    7860       2    7839    7824    7842       2
    7836    7824    7839       1    7836    7824    7842       2    7827    7806
    7830       1    7824    7806    7827       2    7824    7806    7830       2
    7824    7842    7848       2    7824    7842    7851       2    7815    7794
    7818       4    7815    7800    7821       4    7809    7785    7812       1
    7806    7785    7809       2    7806    7785    7812       2    7806    7824
    7836       2    7806    7824    7839       2    7800    7782    7803       4
    7800    7815    7833       4    7794    7779    7797       4    7794    7815
    7833       4    7788    7770    7791       1    7785    7770    7788       2
    7785    7770    7791       2    7785    7806    7827       2    7785    7806
    7830       2    7782    7800    7821       4    7779    7794    7818       4
    7773    7758    7776       1    7770    7758    7773       2    7770    7758
    7776       2    7770    7785    7809       2    7770    7785    7812       2
    7767    7779    7797       8    7767    7782    7803       8    7761    7740
    7764       1    7758    7740    7761       2    7758    7740    7764       2
    7758    7770    7788       2    7758    7770    7791       2    7749    7728
    7752       8    7749    7731    7755       8    7743    7722    7746       1
    7740    7722    7743       2    7740    7722    7746       2    7740    7758
    7773       2    7740    7758    7776       2    7731    7716    7734       4
    7722    7740    7761       2    7722    7740    7764       2    7719    7710
    7725       4    7716    7731    7755       4    7713    7728    7752       4
    7710    7719    7737       4    7704    7692    7707       4    7704    7719
    7737       4    7704    7722    7743      12    7704    7722    7746      12
    7701    7716    7734       4    7695    7710    7725       4    7683    7692
    7707       4    8058    8049    8061       1    8055    8049    8058       1
    8055    8049    8061       1    8049    8037    8052       2    8046    8037
    8049       2    8046    8037    8052       1    8040    8034    8043       1
    8037    8034    8040       2    8037    8034    8043       2    8037    8049
    8055       2    8037    8049    8058       2    8037    8049    8061       2
    8034    8037    8046       2    8034    8037    8052       2    8031    8016
    8034       2    8028    8016    8031       1    8028    8016    8034       2
    8019    7998    8022       1    8016    7998    8019       2    8016    7998
    8022       2    8016    8034    8040       2    8016    8034    8043       2
    8007    7986    8010       4    8007    7992    8013       4    8001    7977
    8004       1    7998    7977    8001       2    7998    7977    8004       2
    7998    8016    8028       2    7998    8016    8031       2    7992    7974
    7995       4    7992    8007    8025       4    7986    7971    7989       4
    7986    8007    8025       4    7980    7962    7983       1    7977    7962
    7980       2    7977    7962    7983       2    7977    7998    8019       2
    7977    7998    8022       2    7974    7992    8013       4    7971    7986
    8010       4    7965    7950    7968       1    7962    7950    7965       2
    7962    7950    7968       2    7962    7977    8001       2    7962    7977
    8004       2    7959    7971    7989       8    7959    7974    7995       8
    7953    7932    7956       1    7950    7932    7953       2    7950    7932
    7956       2    7950    7962    7980       2    7950    7962    7983       2
    7941    7920    7944       8    7941    7923    7947       8    7935    7914
    7938       1    7932    7914    7935       2    7932    7914    7938       2
    7932    7950    7965       2    7932    7950    7968       2    7923    7908
    7926       4    7914    7932    7953       2    7914    7932    7956       2
    7911    7902    7917       4    7908    7923    7947       4    7905    7920
    7944       4    7902    7911    7929       4    7896    7884    7899       4
    7896    7911    7929       4    7896    7914    7935      12    7896    7914
    7938      12    7893    7908    7926       4    7887    7902    7917       4
    7875    7884    7899       4    8250    8241    8253       1    8247    8241
    8250       1    8247    8241    8253       1    8241    8229    8244       2
    8238    8229    8241       2    8238    8229    8244       1    8232    8226
    8235       1    8229    8226    8232       2    8229    8226    8235       2
    8229    8241    8247       2    8229    8241    8250       2    8229    8241
    8253       2    8226    8229    8238       2    8226    8229    8244       2
    8223    8208    8226       2    8220    8208    8223       1    8220    8208
    8226       2    8211    8190    8214       1    8208    8190    8211       2
    8208    8190    8214       2    8208    8226    8232       2    8208    8226
    8235       2    8199    8178    8202       4    8199    8184    8205       4
    8193    8169    8196       1    8190    8169    8193       2    8190    8169
    8196       2    8190    8208    8220       2    8190    8208    8223       2
    8184    8166    8187       4    8184    8199    8217       4    8178    8163
    8181       4    8178    8199    8217       4    8172    8154    8175       1
    8169    8154    8172       2    8169    8154    8175       2    8169    8190
    8211       2    8169    8190    8214       2    8166    8184    8205       4
    8163    8178    8202       4    8157    8142    8160       1    8154    8142
    8157       2    8154    8142    8160       2    8154    8169    8193       2
    8154    8169    8196       2    8151    8163    8181       8    8151    8166
    8187       8    8145    8124    8148       1    8142    8124    8145       2
    8142    8124    8148       2    8142    8154    8172       2    8142    8154
    8175       2    8133    8112    8136       8    8133    8115    8139       8
    8127    8106    8130       1    8124    8106    8127       2    8124    8106
    8130       2    8124    8142    8157       2    8124    8142    8160       2
    8115    8100    8118       4    8106    8124    8145       2    8106    8124
    8148       2    8103    8094    8109       4    8100    8115    8139       4
    8097    8112    8136       4    8094    8103    8121       4    8088    8076
    8091       4    8088    8103    8121       4    8088    8106    8127      12
    8088    8106    8130      12    8085    8100    8118       4    8079    8094
    8109       4    8067    8076    8091       4    8442    8433    8445       1
    8439    8433    8442       1    8439    8433    8445       1    8433    8421
    8436       2    8430    8421    8433       2    8430    8421    8436       1
    8424    8418    8427       1    8421    8418    8424       2    8421    8418
    8427       2    8421    8433    8439       2    8421    8433    8442       2
    8421    8433    8445       2    8418    8421    8430       2    8418    8421
    8436       2    8415    8400    8418       2    8412    8400    8415       1
    8412    8400    8418       2    8403    8382    8406       1    8400    8382
    8403       2    8400    8382    8406       2    8400    8418    8424       2
    8400    8418    8427       2    8391    8370    8394       4    8391    8376
    8397       4    8385    8361    8388       1    8382    8361    8385       2
    8382    8361    8388       2    8382    8400    8412       2    8382    8400
    8415       2    8376    8358    8379       4    8376    8391    8409       4
    8370    8355    8373       4    8370    8391    8409       4    8364    8346
    8367       1    8361    8346    8364       2    8361    8346    8367       2
    8361    8382    8403       2    8361    8382    8406       2    8358    8376
    8397       4    8355    8370    8394       4    8349    8334    8352       1
    8346    8334    8349       2    8346    8334    8352       2    8346    8361
    8385       2    8346    8361    8388       2    8343    8355    8373       8
    8343    8358    8379       8    8337    8316    8340       1    8334    8316
    8337       2    8334    8316    8340       2    8334    8346    8364       2
    8334    8346    8367       2    8325    8304    8328       8    8325    8307
    8331       8    8319    8298    8322       1    8316    8298    8319       2
    8316    8298    8322       2    8316    8334    8349       2    8316    8334
    8352       2    8307    8292    8310       4    8298    8316    8337       2
    8298    8316    8340       2    8295    8286    8301       4    8292    8307
    8331       4    8289    8304    8328       4    8286    8295    8313       4
    8280    8268    8283       4    8280    8295    8313       4    8280    8298
    8319      12    8280    8298    8322      12    8277    8292    8310       4
    8271    8286    8301       4    8259    8268    8283       4    8634    8625
    8637       1    8631    8625    8634       1    8631    8625    8637       1
    8625    8613    8628       2    8622    8613    8625       2    8622    8613
    8628       1    8616    8610    8619       1    8613    8610    8616       2
    8613    8610    8619       2    8613    8625    8631       2    8613    8625
    8634       2    8613    8625    8637       2    8610    8613    8622       2
    8610    8613    8628       2    8607    8592    8610       2    8604    8592
    8607       1    8604    8592    8610       2    8595    8574    8598       1
    8592    8574    8595       2    8592    8574    8598       2    8592    8610
    8616       2    8592    8610    8619       2    8583    8562    8586       4
    8583    8568    8589       4    8577    8553    8580       1    8574    8553
    8577       2    8574    8553    8580       2    8574    8592    8604       2
    8574    8592    8607       2    8568    8550    8571       4    8568    8583
    8601       4    8562    8547    8565       4    8562    8583    8601       4
    8556    8538    8559       1    8553    8538    8556       2    8553    8538
    8559       2    8553    8574    8595       2    8553    8574    8598       2
    8550    8568    8589       4    8547    8562    8586       4    8541    8526
    8544       1    8538    8526    8541       2    8538    8526    8544       2
    8538    8553    8577       2    8538    8553    8580       2    8535    8547
    8565       8    8535    8550    8571       8    8529    8508    8532       1
    8526    8508    8529       2    8526    8508    8532       2    8526    8538
    8556       2    8526    8538    8559       2    8517    8496    8520       8
    8517    8499    8523       8    8511    8490    8514       1    8508    8490
    8511       2    8508    8490    8514       2    8508    8526    8541       2
    8508    8526    8544       2    8499    8484    8502       4    8490    8508
    8529       2    8490    8508    8532       2    8487    8478    8493       4
    8484    8499    8523       4    8481    8496    8520       4    8478    8487
    8505       4    8472    8460    8475       4    8472    8487    8505       4
    8472    8490    8511      12    8472    8490    8514      12    8469    8484
    8502       4    8463    8478    8493       4    8451    8460    8475       4
    8826    8817    8829       1    8823    8817    8826       1    8823    8817
    8829       1    8817    8805    8820       2    8814    8805    8817       2
    8814    8805    8820       1    8808    8802    8811       1    8805    8802
    8808       2    8805    8802    8811       2    8805    8817    8823       2
    8805    8817    8826       2    8805    8817    8829       2    8802    8805
    8814       2    8802    8805    8820       2    8799    8784    8802       2
    8796    8784    8799       1    8796    8784    8802       2    8787    8766
    8790       1    8784    8766    8787       2    8784    8766    8790       2
    8784    8802    8808       2    8784    8802    8811       2    8775    8754
    8778       4    8775    8760    8781       4    8769    8745    8772       1
    8766    8745    8769       2    8766    8745    8772       2    8766    8784
    8796       2    8766    8784    8799       2    8760    8742    8763       4
    8760    8775    8793       4    8754    8739    8757       4    8754    8775
    8793       4    8748    8730    8751       1    8745    8730    8748       2
    8745    8730    8751       2    8745    8766    8787       2    8745    8766
    8790       2    8742    8760    8781       4    8739    8754    8778       4
    8733    8718    8736       1    8730    8718    8733       2    8730    8718
    8736       2    8730    8745    8769       2    8730    8745    8772       2
    8727    8739    8757       8    8727    8742    8763       8    8721    8700
    8724       1    8718    8700    8721       2    8718    8700    8724       2
    8718    8730    8748       2    8718    8730    8751       2    8709    8688
    8712       8    8709    8691    8715       8    8703    8682    8706       1
    8700    8682    8703       2    8700    8682    8706       2    8700    8718
    8733       2    8700    8718    8736       2    8691    8676    8694       4
    8682    8700    8721       2    8682    8700    8724       2    8679    8670
    8685       4    8676    8691    8715       4    8673    8688    8712       4
    8670    8679    8697       4    8664    8652    8667       4    8664    8679
    8697       4    8664    8682    8703      12    8664    8682    8706      12
    8661    8676    8694       4    8655    8670    8685       4    8643    8652
    8667       4    9018    9009    9021       1    9015    9009    9018       1
    9015    9009    9021       1    9009    8997    9012       2    9006    8997
    9009       2    9006    8997    9012       1    9000    8994    9003       1
    8997    8994    9000       2    8997    8994    9003       2    8997    9009
    9015       2    8997    9009    9018       2    8997    9009    9021       2
    8994    8997    9006       2    8994    8997    9012       2    8991    8976
    8994       2    8988    8976    8991       1    8988    8976    8994       2
    8979    8958    8982       1    8976    8958    8979       2    8976    8958
    8982       2    8976    8994    9000       2    8976    8994    9003       2
    8967    8946    8970       4    8967    8952    8973       4    8961    8937
    8964       1    8958    8937    8961       2    8958    8937    8964       2
    8958    8976    8988       2    8958    8976    8991       2    8952    8934
    8955       4    8952    8967    8985       4    8946    8931    8949       4
    8946    8967    8985       4    8940    8922    8943       1    8937    8922
    8940       2    8937    8922    8943       2    8937    8958    8979       2
    8937    8958    8982       2    8934    8952    8973       4    8931    8946
    8970       4    8925    8910    8928       1    8922    8910    8925       2
    8922    8910    8928       2    8922    8937    8961       2    8922    8937
    8964       2    8919    8931    8949       8    8919    8934    8955       8
    8913    8892    8916       1    8910    8892    8913       2    8910    8892
    8916       2    8910    8922    8940       2    8910    8922    8943       2
    8901    8880    8904       8    8901    8883    8907       8    8895    8874
    8898       1    8892    8874    8895       2    8892    8874    8898       2
    8892    8910    8925       2    8892    8910    8928       2    8883    8868
    8886       4    8874    8892    8913       2    8874    8892    8916       2
    8871    8862    8877       4    8868    8883    8907       4    8865    8880
    8904       4    8862    8871    8889       4    8856    8844    8859       4
    8856    8871    8889       4    8856    8874    8895      12    8856    8874
    8898      12    8853    8868    8886       4    8847    8862    8877       4
    8835    8844    8859       4    9210    9201    9213       1    9207    9201
    9210       1    9207    9201    9213       1    9201    9189    9204       2
    9198    9189    9201       2    9198    9189    9204       1    9192    9186
    9195       1    9189    9186    9192       2    9189    9186    9195       2
    9189    9201    9207       2    9189    9201    9210       2    9189    9201
    9213       2    9186    9189    9198       2    9186    9189    9204       2
    9183    9168    9186       2    9180    9168    9183       1    9180    9168
    9186       2    9171    9150    9174       1    9168    9150    9171       2
    9168    9150    9174       2    9168    9186    9192       2    9168    9186
    9195       2    9159    9138    9162       4    9159    9144    9165       4
    9153    9129    9156       1    9150    9129    9153       2    9150    9129
    9156       2    9150    9168    9180       2    9150    9168    9183       2
    9144    9126    9147       4    9144    9159    9177       4    9138    9123
    9141       4    9138    9159    9177       4    9132    9114    9135       1
    9129    9114    9132       2    9129    9114    9135       2    9129    9150
    9171       2    9129    9150    9174       2    9126    9144    9165       4
    9123    9138    9162       4    9117    9102    9120       1    9114    9102
    9117       2    9114    9102    9120       2    9114    9129    9153       2
    9114    9129    9156       2    9111    9123    9141       8    9111    9126
    9147       8    9105    9084    9108       1    9102    9084    9105       2
    9102    9084    9108       2    9102    9114    9132       2    9102    9114
    9135       2    9093    9072    9096       8    9093    9075    9099       8
    9087    9066    9090       1    9084    9066    9087       2    9084    9066
    9090       2    9084    9102    9117       2    9084    9102    9120       2
    9075    9060    9078       4    9066    9084    9105       2    9066    9084
    9108       2    9063    9054    9069       4    9060    9075    9099       4
    9057    9072    9096       4    9054    9063    9081       4    9048    9036
    9051       4    9048    9063    9081       4    9048    9066    9087      12
    9048    9066    9090      12    9045    9060    9078       4    9039    9054
    9069       4    9027    9036    9051       4    9402    9393    9405       1
    9399    9393    9402       1    9399    9393    9405       1    9393    9381
    9396       2    9390    9381    9393       2    9390    9381    9396       1
    9384    9378    9387       1    9381    9378    9384       2    9381    9378
    9387       2    9381    9393    9399       2    9381    9393    9402       2
    9381    9393    9405       2    9378    9381    9390       2    9378    9381
    9396       2    9375    9360    9378       2    9372    9360    9375       1
    9372    9360    9378       2    9363    9342    9366       1    9360    9342
    9363       2    9360    9342    9366       2    9360    9378    9384       2
    9360    9378    9387       2    9351    9330    9354       4    9351    9336
    9357       4    9345    9321    9348       1    9342    9321    9345       2
    9342    9321    9348       2    9342    9360    9372       2    9342    9360
    9375       2    9336    9318    9339       4    9336    9351    9369       4
    9330    9315    9333       4    9330    9351    9369       4    9324    9306
    9327       1    9321    9306    9324       2    9321    9306    9327       2
    9321    9342    9363       2    9321    9342    9366       2    9318    9336
    9357       4    9315    9330    9354       4    9309    9294    9312       1
    9306    9294    9309       2    9306    9294    9312       2    9306    9321
    9345       2    9306    9321    9348       2    9303    9315    9333       8
    9303    9318    9339       8    9297    9276    9300       1    9294    9276
    9297       2    9294    9276    9300       2    9294    9306    9324       2
    9294    9306    9327       2    9285    9264    9288       8    9285    9267
    9291       8    9279    9258    9282       1    9276    9258    9279       2
    9276    9258    9282       2    9276    9294    9309       2    9276    9294
    9312       2    9267    9252    9270       4    9258    9276    9297       2
    9258    9276    9300       2    9255    9246    9261       4    9252    9267
    9291       4    9249    9264    9288       4    9246    9255    9273       4
    9240    9228    9243       4    9240    9255    9273       4    9240    9258
    9279      12    9240    9258    9282      12    9237    9252    9270       4
    9231    9246    9261       4    9219    9228    9243       4    9594    9585
    9597       1    9591    9585    9594       1    9591    9585    9597       1
    9585    9573    9588       2    9582    9573    9585       2    9582    9573
    9588       1    9576    9570    9579       1    9573    9570    9576       2
    9573    9570    9579       2    9573    9585    9591       2    9573    9585
    9594       2    9573    9585    9597       2    9570    9573    9582       2
    9570    9573    9588       2    9567    9552    9570       2    9564    9552
    9567       1    9564    9552    9570       2    9555    9534    9558       1
    9552    9534    9555       2    9552    9534    9558       2    9552    9570
    9576       2    9552    9570    9579       2    9543    9522    9546       4
    9543    9528    9549       4    9537    9513    9540       1    9534    9513
    9537       2    9534    9513    9540       2    9534    9552    9564       2
    9534    9552    9567       2    9528    9510    9531       4    9528    9543
    9561       4    9522    9507    9525       4    9522    9543    9561       4
    9516    9498    9519       1    9513    9498    9516       2    9513    9498
    9519       2    9513    9534    9555       2    9513    9534    9558       2
    9510    9528    9549       4    9507    9522    9546       4    9501    9486
    9504       1    9498    9486    9501       2    9498    9486    9504       2
    9498    9513    9537       2    9498    9513    9540       2    9495    9507
    9525       8    9495    9510    9531       8    9489    9468    9492       1
    9486    9468    9489       2    9486    9468    9492       2    9486    9498
    9516       2    9486    9498    9519       2    9477    9456    9480       8
    9477    9459    9483       8    9471    9450    9474       1    9468    9450
    9471       2    9468    9450    9474       2    9468    9486    9501       2
    9468    9486    9504       2    9459    9444    9462       4    9450    9468
    9489       2    9450    9468    9492       2    9447    9438    9453       4
    9444    9459    9483       4    9441    9456    9480       4    9438    9447
    9465       4    9432    9420    9435       4    9432    9447    9465       4
    9432    9450    9471      12    9432    9450    9474      12    9429    9444
    9462       4    9423    9438    9453       4    9411    9420    9435       4
    9786    9777    9789       1    9783    9777    9786       1    9783    9777
    9789       1    9777    9765    9780       2    9774    9765    9777       2
    9774    9765    9780       1    9768    9762    9771       1    9765    9762
    9768       2    9765    9762    9771       2    9765    9777    9783       2
    9765    9777    9786       2    9765    9777    9789       2    9762    9765
    9774       2    9762    9765    9780       2    9759    9744    9762       2
    9756    9744    9759       1    9756    9744    9762       2    9747    9726
    9750       1    9744    9726    9747       2    9744    9726    9750       2
    9744    9762    9768       2    9744    9762    9771       2    9735    9714
    9738       4    9735    9720    9741       4    9729    9705    9732       1
    9726    9705    9729       2    9726    9705    9732       2    9726    9744
    9756       2    9726    9744    9759       2    9720    9702    9723       4
    9720    9735    9753       4    9714    9699    9717       4    9714    9735
    9753       4    9708    9690    9711       1    9705    9690    9708       2
    9705    9690    9711       2    9705    9726    9747       2    9705    9726
    9750       2    9702    9720    9741       4    9699    9714    9738       4
    9693    9678    9696       1    9690    9678    9693       2    9690    9678
    9696       2    9690    9705    9729       2    9690    9705    9732       2
    9687    9699    9717       8    9687    9702    9723       8    9681    9660
    9684       1    9678    9660    9681       2    9678    9660    9684       2
    9678    9690    9708       2    9678    9690    9711       2    9669    9648
    9672       8    9669    9651    9675       8    9663    9642    9666       1
    9660    9642    9663       2    9660    9642    9666       2    9660    9678
    9693       2    9660    9678    9696       2    9651    9636    9654       4
    9642    9660    9681       2    9642    9660    9684       2    9639    9630
    9645       4    9636    9651    9675       4    9633    9648    9672       4
    9630    9639    9657       4    9624    9612    9627       4    9624    9639
    9657       4    9624    9642    9663      12    9624    9642    9666      12
    9621    9636    9654       4    9615    9630    9645       4    9603    9612
    9627       4    9978    9969    9981       1    9975    9969    9978       1
    9975    9969    9981       1    9969    9957    9972       2    9966    9957
    9969       2    9966    9957    9972       1    9960    9954    9963       1
    9957    9954    9960       2    9957    9954    9963       2    9957    9969
    9975       2    9957    9969    9978       2    9957    9969    9981       2
    9954    9957    9966       2    9954    9957    9972       2    9951    9936
    9954       2    9948    9936    9951       1    9948    9936    9954       2
    9939    9918    9942       1    9936    9918    9939       2    9936    9918
    9942       2    9936    9954    9960       2    9936    9954    9963       2
    9927    9906    9930       4    9927    9912    9933       4    9921    9897
    9924       1    9918    9897    9921       2    9918    9897    9924       2
    9918    9936    9948       2    9918    9936    9951       2    9912    9894
    9915       4    9912    9927    9945       4    9906    9891    9909       4
    9906    9927    9945       4    9900    9882    9903       1    9897    9882
    9900       2    9897    9882    9903       2    9897    9918    9939       2
    9897    9918    9942       2    9894    9912    9933       4    9891    9906
    9930       4    9885    9870    9888       1    9882    9870    9885       2
    9882    9870    9888       2    9882    9897    9921       2    9882    9897
    9924       2    9879    9891    9909       8    9879    9894    9915       8
    9873    9852    9876       1    9870    9852    9873       2    9870    9852
    9876       2    9870    9882    9900       2    9870    9882    9903       2
    9861    9840    9864       8    9861    9843    9867       8    9855    9834
    9858       1    9852    9834    9855       2    9852    9834    9858       2
    9852    9870    9885       2    9852    9870    9888       2    9843    9828
    9846       4    9834    9852    9873       2    9834    9852    9876       2
    9831    9822    9837       4    9828    9843    9867       4    9825    9840
    9864       4    9822    9831    9849       4    9816    9804    9819       4
    9816    9831    9849       4    9816    9834    9855      12    9816    9834
    9858      12    9813    9828    9846       4    9807    9822    9837       4
    9795    9804    9819       4   10170   10161   10173       1   10167   10161
   10170       1   10167   10161   10173       1   10161   10149   10164       2
   10158   10149   10161       2   10158   10149   10164       1   10152   10146
   10155       1   10149   10146   10152       2   10149   10146   10155       2
   10149   10161   10167       2   10149   10161   10170       2   10149   10161
   10173       2   10146   10149   10158       2   10146   10149   10164       2
   10143   10128   10146       2   10140   10128   10143       1   10140   10128
   10146       2   10131   10110   10134       1   10128   10110   10131       2
   10128   10110   10134       2   10128   10146   10152       2   10128   10146
   10155       2   10119   10098   10122       4   10119   10104   10125       4
   10113   10089   10116       1   10110   10089   10113       2   10110   10089
   10116       2   10110   10128   10140       2   10110   10128   10143       2
   10104   10086   10107       4   10104   10119   10137       4   10098   10083
   10101       4   10098   10119   10137       4   10092   10074   10095       1
   10089   10074   10092       2   10089   10074   10095       2   10089   10110
   10131       2   10089   10110   10134       2   10086   10104   10125       4
   10083   10098   10122       4   10077   10062   10080       1   10074   10062
   10077       2   10074   10062   10080       2   10074   10089   10113       2
   10074   10089   10116       2   10071   10083   10101       8   10071   10086
   10107       8   10065   10044   10068       1   10062   10044   10065       2
   10062   10044   10068       2   10062   10074   10092       2   10062   10074
   10095       2   10053   10032   10056       8   10053   10035   10059       8
   10047   10026   10050       1   10044   10026   10047       2   10044   10026
   10050       2   10044   10062   10077       2   10044   10062   10080       2
   10035   10020   10038       4   10026   10044   10065       2   10026   10044
   10068       2   10023   10014   10029       4   10020   10035   10059       4
   10017   10032   10056       4   10014   10023   10041       4   10008    9996
   10011       4   10008   10023   10041       4   10008   10026   10047      12
   10008   10026   10050      12   10005   10020   10038       4    9999   10014
   10029       4    9987    9996   10011       4   10362   10353   10365       1
   10359   10353   10362       1   10359   10353   10365       1   10353   10341
   10356       2   10350   10341   10353       2   10350   10341   10356       1
   10344   10338   10347       1   10341   10338   10344       2   10341   10338
   10347       2   10341   10353   10359       2   10341   10353   10362       2
   10341   10353   10365       2   10338   10341   10350       2   10338   10341
   10356       2   10335   10320   10338       2   10332   10320   10335       1
   10332   10320   10338       2   10323   10302   10326       1   10320   10302
   10323       2   10320   10302   10326       2   10320   10338   10344       2
   10320   10338   10347       2   10311   10290   10314       4   10311   10296
   10317       4   10305   10281   10308       1   10302   10281   10305       2
   10302   10281   10308       2   10302   10320   10332       2   10302   10320
   10335       2   10296   10278   10299       4   10296   10311   10329       4
   10290   10275   10293       4   10290   10311   10329       4   10284   10266
   10287       1   10281   10266   10284       2   10281   10266   10287       2
   10281   10302   10323       2   10281   10302   10326       2   10278   10296
   10317       4   10275   10290   10314       4   10269   10254   10272       1
   10266   10254   10269       2   10266   10254   10272       2   10266   10281
   10305       2   10266   10281   10308       2   10263   10275   10293       8
   10263   10278   10299       8   10257   10236   10260       1   10254   10236
   10257       2   10254   10236   10260       2   10254   10266   10284       2
   10254   10266   10287       2   10245   10224   10248       8   10245   10227
   10251       8   10239   10218   10242       1   10236   10218   10239       2
   10236   10218   10242       2   10236   10254   10269       2   10236   10254
   10272       2   10227   10212   10230       4   10218   10236   10257       2
   10218   10236   10260       2   10215   10206   10221       4   10212   10227
   10251       4   10209   10224   10248       4   10206   10215   10233       4
   10200   10188   10203       4   10200   10215   10233       4   10200   10218
   10239      12   10200   10218   10242      12   10197   10212   10230       4
   10191   10206   10221       4   10179   10188   10203       4   10554   10545
   10557       1   10551   10545   10554       1   10551   10545   10557       1
   10545   10533   10548       2   10542   10533   10545       2   10542   10533
   10548       1   10536   10530   10539       1   10533   10530   10536       2
   10533   10530   10539       2   10533   10545   10551       2   10533   10545
   10554       2   10533   10545   10557       2   10530   10533   10542       2
   10530   10533   10548       2   10527   10512   10530       2   10524   10512
   10527       1   10524   10512   10530       2   10515   10494   10518       1
   10512   10494   10515       2   10512   10494   10518       2   10512   10530
   10536       2   10512   10530   10539       2   10503   10482   10506       4
   10503   10488   10509       4   10497   10473   10500       1   10494   10473
   10497       2   10494   10473   10500       2   10494   10512   10524       2
   10494   10512   10527       2   10488   10470   10491       4   10488   10503
   10521       4   10482   10467   10485       4   10482   10503   10521       4
   10476   10458   10479       1   10473   10458   10476       2   10473   10458
   10479       2   10473   10494   10515       2   10473   10494   10518       2
   10470   10488   10509       4   10467   10482   10506       4   10461   10446
   10464       1   10458   10446   10461       2   10458   10446   10464       2
   10458   10473   10497       2   10458   10473   10500       2   10455   10467
   10485       8   10455   10470   10491       8   10449   10428   10452       1
   10446   10428   10449       2   10446   10428   10452       2   10446   10458
   10476       2   10446   10458   10479       2   10437   10416   10440       8
   10437   10419   10443       8   10431   10410   10434       1   10428   10410
   10431       2   10428   10410   10434       2   10428   10446   10461       2
   10428   10446   10464       2   10419   10404   10422       4   10410   10428
   10449       2   10410   10428   10452       2   10407   10398   10413       4
   10404   10419   10443       4   10401   10416   10440       4   10398   10407
   10425       4   10392   10380   10395       4   10392   10407   10425       4
   10392   10410   10431      12   10392   10410   10434      12   10389   10404
   10422       4   10383   10398   10413       4   10371   10380   10395       4
   10746   10737   10749       1   10743   10737   10746       1   10743   10737
   10749       1   10737   10725   10740       2   10734   10725   10737       2
   10734   10725   10740       1   10728   10722   10731       1   10725   10722
   10728       2   10725   10722   10731       2   10725   10737   10743       2
   10725   10737   10746       2   10725   10737   10749       2   10722   10725
   10734       2   10722   10725   10740       2   10719   10704   10722       2
   10716   10704   10719       1   10716   10704   10722       2   10707   10686
   10710       1   10704   10686   10707       2   10704   10686   10710       2
   10704   10722   10728       2   10704   10722   10731       2   10695   10674
   10698       4   10695   10680   10701       4   10689   10665   10692       1
   10686   10665   10689       2   10686   10665   10692       2   10686   10704
   10716       2   10686   10704   10719       2   10680   10662   10683       4
   10680   10695   10713       4   10674   10659   10677       4   10674   10695
   10713       4   10668   10650   10671       1   10665   10650   10668       2
   10665   10650   10671       2   10665   10686   10707       2   10665   10686
   10710       2   10662   10680   10701       4   10659   10674   10698       4
   10653   10638   10656       1   10650   10638   10653       2   10650   10638
   10656       2   10650   10665   10689       2   10650   10665   10692       2
   10647   10659   10677       8   10647   10662   10683       8   10641   10620
   10644       1   10638   10620   10641       2   10638   10620   10644       2
   10638   10650   10668       2   10638   10650   10671       2   10629   10608
   10632       8   10629   10611   10635       8   10623   10602   10626       1
   10620   10602   10623       2   10620   10602   10626       2   10620   10638
   10653       2   10620   10638   10656       2   10611   10596   10614       4
   10602   10620   10641       2   10602   10620   10644       2   10599   10590
   10605       4   10596   10611   10635       4   10593   10608   10632       4
   10590   10599   10617       4   10584   10572   10587       4   10584   10599
   10617       4   10584   10602   10623      12   10584   10602   10626      12
   10581   10596   10614       4   10575   10590   10605       4   10563   10572
   10587       4   10938   10929   10941       1   10935   10929   10938       1
   10935   10929   10941       1   10929   10917   10932       2   10926   10917
   10929       2   10926   10917   10932       1   10920   10914   10923       1
   10917   10914   10920       2   10917   10914   10923       2   10917   10929
   10935       2   10917   10929   10938       2   10917   10929   10941       2
   10914   10917   10926       2   10914   10917   10932       2   10911   10896
   10914       2   10908   10896   10911       1   10908   10896   10914       2
   10899   10878   10902       1   10896   10878   10899       2   10896   10878
   10902       2   10896   10914   10920       2   10896   10914   10923       2
   10887   10866   10890       4   10887   10872   10893       4   10881   10857
   10884       1   10878   10857   10881       2   10878   10857   10884       2
   10878   10896   10908       2   10878   10896   10911       2   10872   10854
   10875       4   10872   10887   10905       4   10866   10851   10869       4
   10866   10887   10905       4   10860   10842   10863       1   10857   10842
   10860       2   10857   10842   10863       2   10857   10878   10899       2
   10857   10878   10902       2   10854   10872   10893       4   10851   10866
   10890       4   10845   10830   10848       1   10842   10830   10845       2
   10842   10830   10848       2   10842   10857   10881       2   10842   10857
   10884       2   10839   10851   10869       8   10839   10854   10875       8
   10833   10812   10836       1   10830   10812   10833       2   10830   10812
   10836       2   10830   10842   10860       2   10830   10842   10863       2
   10821   10800   10824       8   10821   10803   10827       8   10815   10794
   10818       1   10812   10794   10815       2   10812   10794   10818       2
   10812   10830   10845       2   10812   10830   10848       2   10803   10788
   10806       4   10794   10812   10833       2   10794   10812   10836       2
   10791   10782   10797       4   10788   10803   10827       4   10785   10800
   10824       4   10782   10791   10809       4   10776   10764   10779       4
   10776   10791   10809       4   10776   10794   10815      12   10776   10794
   10818      12   10773   10788   10806       4   10767   10782   10797       4
   10755   10764   10779       4   11130   11121   11133       1   11127   11121
   11130       1   11127   11121   11133       1   11121   11109   11124       2
   11118   11109   11121       2   11118   11109   11124       1   11112   11106
   11115       1   11109   11106   11112       2   11109   11106   11115       2
   11109   11121   11127       2   11109   11121   11130       2   11109   11121
   11133       2   11106   11109   11118       2   11106   11109   11124       2
   11103   11088   11106       2   11100   11088   11103       1   11100   11088
   11106       2   11091   11070   11094       1   11088   11070   11091       2
   11088   11070   11094       2   11088   11106   11112       2   11088   11106
   11115       2   11079   11058   11082       4   11079   11064   11085       4
   11073   11049   11076       1   11070   11049   11073       2   11070   11049
   11076       2   11070   11088   11100       2   11070   11088   11103       2
   11064   11046   11067       4   11064   11079   11097       4   11058   11043
   11061       4   11058   11079   11097       4   11052   11034   11055       1
   11049   11034   11052       2   11049   11034   11055       2   11049   11070
   11091       2   11049   11070   11094       2   11046   11064   11085       4
   11043   11058   11082       4   11037   11022   11040       1   11034   11022
   11037       2   11034   11022   11040       2   11034   11049   11073       2
   11034   11049   11076       2   11031   11043   11061       8   11031   11046
   11067       8   11025   11004   11028       1   11022   11004   11025       2
   11022   11004   11028       2   11022   11034   11052       2   11022   11034
   11055       2   11013   10992   11016       8   11013   10995   11019       8
   11007   10986   11010       1   11004   10986   11007       2   11004   10986
   11010       2   11004   11022   11037       2   11004   11022   11040       2
   10995   10980   10998       4   10986   11004   11025       2   10986   11004
   11028       2   10983   10974   10989       4   10980   10995   11019       4
   10977   10992   11016       4   10974   10983   11001       4   10968   10956
   10971       4   10968   10983   11001       4   10968   10986   11007      12
   10968   10986   11010      12   10965   10980   10998       4   10959   10974
   10989       4   10947   10956   10971       4   11322   11313   11325       1
   11319   11313   11322       1   11319   11313   11325       1   11313   11301
   11316       2   11310   11301   11313       2   11310   11301   11316       1
   11304   11298   11307       1   11301   11298   11304       2   11301   11298
   11307       2   11301   11313   11319       2   11301   11313   11322       2
   11301   11313   11325       2   11298   11301   11310       2   11298   11301
   11316       2   11295   11280   11298       2   11292   11280   11295       1
   11292   11280   11298       2   11283   11262   11286       1   11280   11262
   11283       2   11280   11262   11286       2   11280   11298   11304       2
   11280   11298   11307       2   11271   11250   11274       4   11271   11256
   11277       4   11265   11241   11268       1   11262   11241   11265       2
   11262   11241   11268       2   11262   11280   11292       2   11262   11280
   11295       2   11256   11238   11259       4   11256   11271   11289       4
   11250   11235   11253       4   11250   11271   11289       4   11244   11226
   11247       1   11241   11226   11244       2   11241   11226   11247       2
   11241   11262   11283       2   11241   11262   11286       2   11238   11256
   11277       4   11235   11250   11274       4   11229   11214   11232       1
   11226   11214   11229       2   11226   11214   11232       2   11226   11241
   11265       2   11226   11241   11268       2   11223   11235   11253       8
   11223   11238   11259       8   11217   11196   11220       1   11214   11196
   11217       2   11214   11196   11220       2   11214   11226   11244       2
   11214   11226   11247       2   11205   11184   11208       8   11205   11187
   11211       8   11199   11178   11202       1   11196   11178   11199       2
   11196   11178   11202       2   11196   11214   11229       2   11196   11214
   11232       2   11187   11172   11190       4   11178   11196   11217       2
   11178   11196   11220       2   11175   11166   11181       4   11172   11187
   11211       4   11169   11184   11208       4   11166   11175   11193       4
   11160   11148   11163       4   11160   11175   11193       4   11160   11178
   11199      12   11160   11178   11202      12   11157   11172   11190       4
   11151   11166   11181       4   11139   11148   11163       4   11514   11505
   11517       1   11511   11505   11514       1   11511   11505   11517       1
   11505   11493   11508       2   11502   11493   11505       2   11502   11493
   11508       1   11496   11490   11499       1   11493   11490   11496       2
   11493   11490   11499       2   11493   11505   11511       2   11493   11505
   11514       2   11493   11505   11517       2   11490   11493   11502       2
   11490   11493   11508       2   11487   11472   11490       2   11484   11472
   11487       1   11484   11472   11490       2   11475   11454   11478       1
   11472   11454   11475       2   11472   11454   11478       2   11472   11490
   11496       2   11472   11490   11499       2   11463   11442   11466       4
   11463   11448   11469       4   11457   11433   11460       1   11454   11433
   11457       2   11454   11433   11460       2   11454   11472   11484       2
   11454   11472   11487       2   11448   11430   11451       4   11448   11463
   11481       4   11442   11427   11445       4   11442   11463   11481       4
   11436   11418   11439       1   11433   11418   11436       2   11433   11418
   11439       2   11433   11454   11475       2   11433   11454   11478       2
   11430   11448   11469       4   11427   11442   11466       4   11421   11406
   11424       1   11418   11406   11421       2   11418   11406   11424       2
   11418   11433   11457       2   11418   11433   11460       2   11415   11427
   11445       8   11415   11430   11451       8   11409   11388   11412       1
   11406   11388   11409       2   11406   11388   11412       2   11406   11418
   11436       2   11406   11418   11439       2   11397   11376   11400       8
   11397   11379   11403       8   11391   11370   11394       1   11388   11370
   11391       2   11388   11370   11394       2   11388   11406   11421       2
   11388   11406   11424       2   11379   11364   11382       4   11370   11388
   11409       2   11370   11388   11412       2   11367   11358   11373       4
   11364   11379   11403       4   11361   11376   11400       4   11358   11367
   11385       4   11352   11340   11355       4   11352   11367   11385       4
   11352   11370   11391      12   11352   11370   11394      12   11349   11364
   11382       4   11343   11358   11373       4   11331   11340   11355       4
   11706   11697   11709       1   11703   11697   11706       1   11703   11697
   11709       1   11697   11685   11700       2   11694   11685   11697       2
   11694   11685   11700       1   11688   11682   11691       1   11685   11682
   11688       2   11685   11682   11691       2   11685   11697   11703       2
   11685   11697   11706       2   11685   11697   11709       2   11682   11685
   11694       2   11682   11685   11700       2   11679   11664   11682       2
   11676   11664   11679       1   11676   11664   11682       2   11667   11646
   11670       1   11664   11646   11667       2   11664   11646   11670       2
   11664   11682   11688       2   11664   11682   11691       2   11655   11634
   11658       4   11655   11640   11661       4   11649   11625   11652       1
   11646   11625   11649       2   11646   11625   11652       2   11646   11664
   11676       2   11646   11664   11679       2   11640   11622   11643       4
   11640   11655   11673       4   11634   11619   11637       4   11634   11655
   11673       4   11628   11610   11631       1   11625   11610   11628       2
   11625   11610   11631       2   11625   11646   11667       2   11625   11646
   11670       2   11622   11640   11661       4   11619   11634   11658       4
   11613   11598   11616       1   11610   11598   11613       2   11610   11598
   11616       2   11610   11625   11649       2   11610   11625   11652       2
   11607   11619   11637       8   11607   11622   11643       8   11601   11580
   11604       1   11598   11580   11601       2   11598   11580   11604       2
   11598   11610   11628       2   11598   11610   11631       2   11589   11568
   11592       8   11589   11571   11595       8   11583   11562   11586       1
   11580   11562   11583       2   11580   11562   11586       2   11580   11598
   11613       2   11580   11598   11616       2   11571   11556   11574       4
   11562   11580   11601       2   11562   11580   11604       2   11559   11550
   11565       4   11556   11571   11595       4   11553   11568   11592       4
   11550   11559   11577       4   11544   11532   11547       4   11544   11559
   11577       4   11544   11562   11583      12   11544   11562   11586      12
   11541   11556   11574       4   11535   11550   11565       4   11523   11532
   11547       4   11898   11889   11901       1   11895   11889   11898       1
   11895   11889   11901       1   11889   11877   11892       2   11886   11877
   11889       2   11886   11877   11892       1   11880   11874   11883       1
   11877   11874   11880       2   11877   11874   11883       2   11877   11889
   11895       2   11877   11889   11898       2   11877   11889   11901       2
   11874   11877   11886       2   11874   11877   11892       2   11871   11856
   11874       2   11868   11856   11871       1   11868   11856   11874       2
   11859   11838   11862       1   11856   11838   11859       2   11856   11838
   11862       2   11856   11874   11880       2   11856   11874   11883       2
   11847   11826   11850       4   11847   11832   11853       4   11841   11817
   11844       1   11838   11817   11841       2   11838   11817   11844       2
   11838   11856   11868       2   11838   11856   11871       2   11832   11814
   11835       4   11832   11847   11865       4   11826   11811   11829       4
   11826   11847   11865       4   11820   11802   11823       1   11817   11802
   11820       2   11817   11802   11823       2   11817   11838   11859       2
   11817   11838   11862       2   11814   11832   11853       4   11811   11826
   11850       4   11805   11790   11808       1   11802   11790   11805       2
   11802   11790   11808       2   11802   11817   11841       2   11802   11817
   11844       2   11799   11811   11829       8   11799   11814   11835       8
   11793   11772   11796       1   11790   11772   11793       2   11790   11772
   11796       2   11790   11802   11820       2   11790   11802   11823       2
   11781   11760   11784       8   11781   11763   11787       8   11775   11754
   11778       1   11772   11754   11775       2   11772   11754   11778       2
   11772   11790   11805       2   11772   11790   11808       2   11763   11748
   11766       4   11754   11772   11793       2   11754   11772   11796       2
   11751   11742   11757       4   11748   11763   11787       4   11745   11760
   11784       4   11742   11751   11769       4   11736   11724   11739       4
   11736   11751   11769       4   11736   11754   11775      12   11736   11754
   11778      12   11733   11748   11766       4   11727   11742   11757       4
   11715   11724   11739       4   12090   12081   12093       1   12087   12081
   12090       1   12087   12081   12093       1   12081   12069   12084       2
   12078   12069   12081       2   12078   12069   12084       1   12072   12066
   12075       1   12069   12066   12072       2   12069   12066   12075       2
   12069   12081   12087       2   12069   12081   12090       2   12069   12081
   12093       2   12066   12069   12078       2   12066   12069   12084       2
   12063   12048   12066       2   12060   12048   12063       1   12060   12048
   12066       2   12051   12030   12054       1   12048   12030   12051       2
   12048   12030   12054       2   12048   12066   12072       2   12048   12066
   12075       2   12039   12018   12042       4   12039   12024   12045       4
   12033   12009   12036       1   12030   12009   12033       2   12030   12009
   12036       2   12030   12048   12060       2   12030   12048   12063       2
   12024   12006   12027       4   12024   12039   12057       4   12018   12003
   12021       4   12018   12039   12057       4   12012   11994   12015       1
   12009   11994   12012       2   12009   11994   12015       2   12009   12030
   12051       2   12009   12030   12054       2   12006   12024   12045       4
   12003   12018   12042       4   11997   11982   12000       1   11994   11982
   11997       2   11994   11982   12000       2   11994   12009   12033       2
   11994   12009   12036       2   11991   12003   12021       8   11991   12006
   12027       8   11985   11964   11988       1   11982   11964   11985       2
   11982   11964   11988       2   11982   11994   12012       2   11982   11994
   12015       2   11973   11952   11976       8   11973   11955   11979       8
   11967   11946   11970       1   11964   11946   11967       2   11964   11946
   11970       2   11964   11982   11997       2   11964   11982   12000       2
   11955   11940   11958       4   11946   11964   11985       2   11946   11964
   11988       2   11943   11934   11949       4   11940   11955   11979       4
   11937   11952   11976       4   11934   11943   11961       4   11928   11916
   11931       4   11928   11943   11961       4   11928   11946   11967      12
   11928   11946   11970      12   11925   11940   11958       4   11919   11934
   11949       4   11907   11916   11931       4   12282   12273   12285       1
   12279   12273   12282       1   12279   12273   12285       1   12273   12261
   12276       2   12270   12261   12273       2   12270   12261   12276       1
   12264   12258   12267       1   12261   12258   12264       2   12261   12258
   12267       2   12261   12273   12279       2   12261   12273   12282       2
   12261   12273   12285       2   12258   12261   12270       2   12258   12261
   12276       2   12255   12240   12258       2   12252   12240   12255       1
   12252   12240   12258       2   12243   12222   12246       1   12240   12222
   12243       2   12240   12222   12246       2   12240   12258   12264       2
   12240   12258   12267       2   12231   12210   12234       4   12231   12216
   12237       4   12225   12201   12228       1   12222   12201   12225       2
   12222   12201   12228       2   12222   12240   12252       2   12222   12240
   12255       2   12216   12198   12219       4   12216   12231   12249       4
   12210   12195   12213       4   12210   12231   12249       4   12204   12186
   12207       1   12201   12186   12204       2   12201   12186   12207       2
   12201   12222   12243       2   12201   12222   12246       2   12198   12216
   12237       4   12195   12210   12234       4   12189   12174   12192       1
   12186   12174   12189       2   12186   12174   12192       2   12186   12201
   12225       2   12186   12201   12228       2   12183   12195   12213       8
   12183   12198   12219       8   12177   12156   12180       1   12174   12156
   12177       2   12174   12156   12180       2   12174   12186   12204       2
   12174   12186   12207       2   12165   12144   12168       8   12165   12147
   12171       8   12159   12138   12162       1   12156   12138   12159       2
   12156   12138   12162       2   12156   12174   12189       2   12156   12174
   12192       2   12147   12132   12150       4   12138   12156   12177       2
   12138   12156   12180       2   12135   12126   12141       4   12132   12147
   12171       4   12129   12144   12168       4   12126   12135   12153       4
   12120   12108   12123       4   12120   12135   12153       4   12120   12138
   12159      12   12120   12138   12162      12   12117   12132   12150       4
   12111   12126   12141       4   12099   12108   12123       4   12474   12465
   12477       1   12471   12465   12474       1   12471   12465   12477       1
   12465   12453   12468       2   12462   12453   12465       2   12462   12453
   12468       1   12456   12450   12459       1   12453   12450   12456       2
   12453   12450   12459       2   12453   12465   12471       2   12453   12465
   12474       2   12453   12465   12477       2   12450   12453   12462       2
   12450   12453   12468       2   12447   12432   12450       2   12444   12432
   12447       1   12444   12432   12450       2   12435   12414   12438       1
   12432   12414   12435       2   12432   12414   12438       2   12432   12450
   12456       2   12432   12450   12459       2   12423   12402   12426       4
   12423   12408   12429       4   12417   12393   12420       1   12414   12393
   12417       2   12414   12393   12420       2   12414   12432   12444       2
   12414   12432   12447       2   12408   12390   12411       4   12408   12423
   12441       4   12402   12387   12405       4   12402   12423   12441       4
   12396   12378   12399       1   12393   12378   12396       2   12393   12378
   12399       2   12393   12414   12435       2   12393   12414   12438       2
   12390   12408   12429       4   12387   12402   12426       4   12381   12366
   12384       1   12378   12366   12381       2   12378   12366   12384       2
   12378   12393   12417       2   12378   12393   12420       2   12375   12387
   12405       8   12375   12390   12411       8   12369   12348   12372       1
   12366   12348   12369       2   12366   12348   12372       2   12366   12378
   12396       2   12366   12378   12399       2   12357   12336   12360       8
   12357   12339   12363       8   12351   12330   12354       1   12348   12330
   12351       2   12348   12330   12354       2   12348   12366   12381       2
   12348   12366   12384       2   12339   12324   12342       4   12330   12348
   12369       2   12330   12348   12372       2   12327   12318   12333       4
   12324   12339   12363       4   12321   12336   12360       4   12318   12327
   12345       4   12312   12300   12315       4   12312   12327   12345       4
   12312   12330   12351      12   12312   12330   12354      12   12309   12324
   12342       4   12303   12318   12333       4   12291   12300   12315       4
   12666   12657   12669       1   12663   12657   12666       1   12663   12657
   12669       1   12657   12645   12660       2   12654   12645   12657       2
   12654   12645   12660       1   12648   12642   12651       1   12645   12642
   12648       2   12645   12642   12651       2   12645   12657   12663       2
   12645   12657   12666       2   12645   12657   12669       2   12642   12645
   12654       2   12642   12645   12660       2   12639   12624   12642       2
   12636   12624   12639       1   12636   12624   12642       2   12627   12606
   12630       1   12624   12606   12627       2   12624   12606   12630       2
   12624   12642   12648       2   12624   12642   12651       2   12615   12594
   12618       4   12615   12600   12621       4   12609   12585   12612       1
   12606   12585   12609       2   12606   12585   12612       2   12606   12624
   12636       2   12606   12624   12639       2   12600   12582   12603       4
   12600   12615   12633       4   12594   12579   12597       4   12594   12615
   12633       4   12588   12570   12591       1   12585   12570   12588       2
   12585   12570   12591       2   12585   12606   12627       2   12585   12606
   12630       2   12582   12600   12621       4   12579   12594   12618       4
   12573   12558   12576       1   12570   12558   12573       2   12570   12558
   12576       2   12570   12585   12609       2   12570   12585   12612       2
   12567   12579   12597       8   12567   12582   12603       8   12561   12540
   12564       1   12558   12540   12561       2   12558   12540   12564       2
   12558   12570   12588       2   12558   12570   12591       2   12549   12528
   12552       8   12549   12531   12555       8   12543   12522   12546       1
   12540   12522   12543       2   12540   12522   12546       2   12540   12558
   12573       2   12540   12558   12576       2   12531   12516   12534       4
   12522   12540   12561       2   12522   12540   12564       2   12519   12510
   12525       4   12516   12531   12555       4   12513   12528   12552       4
   12510   12519   12537       4   12504   12492   12507       4   12504   12519
   12537       4   12504   12522   12543      12   12504   12522   12546      12
   12501   12516   12534       4   12495   12510   12525       4   12483   12492
   12507       4   12858   12849   12861       1   12855   12849   12858       1
   12855   12849   12861       1   12849   12837   12852       2   12846   12837
   12849       2   12846   12837   12852       1   12840   12834   12843       1
   12837   12834   12840       2   12837   12834   12843       2   12837   12849
   12855       2   12837   12849   12858       2   12837   12849   12861       2
   12834   12837   12846       2   12834   12837   12852       2   12831   12816
   12834       2   12828   12816   12831       1   12828   12816   12834       2
   12819   12798   12822       1   12816   12798   12819       2   12816   12798
   12822       2   12816   12834   12840       2   12816   12834   12843       2
   12807   12786   12810       4   12807   12792   12813       4   12801   12777
   12804       1   12798   12777   12801       2   12798   12777   12804       2
   12798   12816   12828       2   12798   12816   12831       2   12792   12774
   12795       4   12792   12807   12825       4   12786   12771   12789       4
   12786   12807   12825       4   12780   12762   12783       1   12777   12762
   12780       2   12777   12762   12783       2   12777   12798   12819       2
   12777   12798   12822       2   12774   12792   12813       4   12771   12786
   12810       4   12765   12750   12768       1   12762   12750   12765       2
   12762   12750   12768       2   12762   12777   12801       2   12762   12777
   12804       2   12759   12771   12789       8   12759   12774   12795       8
   12753   12732   12756       1   12750   12732   12753       2   12750   12732
   12756       2   12750   12762   12780       2   12750   12762   12783       2
   12741   12720   12744       8   12741   12723   12747       8   12735   12714
   12738       1   12732   12714   12735       2   12732   12714   12738       2
   12732   12750   12765       2   12732   12750   12768       2   12723   12708
   12726       4   12714   12732   12753       2   12714   12732   12756       2
   12711   12702   12717       4   12708   12723   12747       4   12705   12720
   12744       4   12702   12711   12729       4   12696   12684   12699       4
   12696   12711   12729       4   12696   12714   12735      12   12696   12714
   12738      12   12693   12708   12726       4   12687   12702   12717       4
   12675   12684   12699       4   13050   13041   13053       1   13047   13041
   13050       1   13047   13041   13053       1   13041   13029   13044       2
   13038   13029   13041       2   13038   13029   13044       1   13032   13026
   13035       1   13029   13026   13032       2   13029   13026   13035       2
   13029   13041   13047       2   13029   13041   13050       2   13029   13041
   13053       2   13026   13029   13038       2   13026   13029   13044       2
   13023   13008   13026       2   13020   13008   13023       1   13020   13008
   13026       2   13011   12990   13014       1   13008   12990   13011       2
   13008   12990   13014       2   13008   13026   13032       2   13008   13026
   13035       2   12999   12978   13002       4   12999   12984   13005       4
   12993   12969   12996       1   12990   12969   12993       2   12990   12969
   12996       2   12990   13008   13020       2   12990   13008   13023       2
   12984   12966   12987       4   12984   12999   13017       4   12978   12963
   12981       4   12978   12999   13017       4   12972   12954   12975       1
   12969   12954   12972       2   12969   12954   12975       2   12969   12990
   13011       2   12969   12990   13014       2   12966   12984   13005       4
   12963   12978   13002       4   12957   12942   12960       1   12954   12942
   12957       2   12954   12942   12960       2   12954   12969   12993       2
   12954   12969   12996       2   12951   12963   12981       8   12951   12966
   12987       8   12945   12924   12948       1   12942   12924   12945       2
   12942   12924   12948       2   12942   12954   12972       2   12942   12954
   12975       2   12933   12912   12936       8   12933   12915   12939       8
   12927   12906   12930       1   12924   12906   12927       2   12924   12906
   12930       2   12924   12942   12957       2   12924   12942   12960       2
   12915   12900   12918       4   12906   12924   12945       2   12906   12924
   12948       2   12903   12894   12909       4   12900   12915   12939       4
   12897   12912   12936       4   12894   12903   12921       4   12888   12876
   12891       4   12888   12903   12921       4   12888   12906   12927      12
   12888   12906   12930      12   12885   12900   12918       4   12879   12894
   12909       4   12867   12876   12891       4   13242   13233   13245       1
   13239   13233   13242       1   13239   13233   13245       1   13233   13221
   13236       2   13230   13221   13233       2   13230   13221   13236       1
   13224   13218   13227       1   13221   13218   13224       2   13221   13218
   13227       2   13221   13233   13239       2   13221   13233   13242       2
   13221   13233   13245       2   13218   13221   13230       2   13218   13221
   13236       2   13215   13200   13218       2   13212   13200   13215       1
   13212   13200   13218       2   13203   13182   13206       1   13200   13182
   13203       2   13200   13182   13206       2   13200   13218   13224       2
   13200   13218   13227       2   13191   13170   13194       4   13191   13176
   13197       4   13185   13161   13188       1   13182   13161   13185       2
   13182   13161   13188       2   13182   13200   13212       2   13182   13200
   13215       2   13176   13158   13179       4   13176   13191   13209       4
   13170   13155   13173       4   13170   13191   13209       4   13164   13146
   13167       1   13161   13146   13164       2   13161   13146   13167       2
   13161   13182   13203       2   13161   13182   13206       2   13158   13176
   13197       4   13155   13170   13194       4   13149   13134   13152       1
   13146   13134   13149       2   13146   13134   13152       2   13146   13161
   13185       2   13146   13161   13188       2   13143   13155   13173       8
   13143   13158   13179       8   13137   13116   13140       1   13134   13116
   13137       2   13134   13116   13140       2   13134   13146   13164       2
   13134   13146   13167       2   13125   13104   13128       8   13125   13107
   13131       8   13119   13098   13122       1   13116   13098   13119       2
   13116   13098   13122       2   13116   13134   13149       2   13116   13134
   13152       2   13107   13092   13110       4   13098   13116   13137       2
   13098   13116   13140       2   13095   13086   13101       4   13092   13107
   13131       4   13089   13104   13128       4   13086   13095   13113       4
   13080   13068   13083       4   13080   13095   13113       4   13080   13098
   13119      12   13080   13098   13122      12   13077   13092   13110       4
   13071   13086   13101       4   13059   13068   13083       4   13434   13425
   13437       1   13431   13425   13434       1   13431   13425   13437       1
   13425   13413   13428       2   13422   13413   13425       2   13422   13413
   13428       1   13416   13410   13419       1   13413   13410   13416       2
   13413   13410   13419       2   13413   13425   13431       2   13413   13425
   13434       2   13413   13425   13437       2   13410   13413   13422       2
   13410   13413   13428       2   13407   13392   13410       2   13404   13392
   13407       1   13404   13392   13410       2   13395   13374   13398       1
   13392   13374   13395       2   13392   13374   13398       2   13392   13410
   13416       2   13392   13410   13419       2   13383   13362   13386       4
   13383   13368   13389       4   13377   13353   13380       1   13374   13353
   13377       2   13374   13353   13380       2   13374   13392   13404       2
   13374   13392   13407       2   13368   13350   13371       4   13368   13383
   13401       4   13362   13347   13365       4   13362   13383   13401       4
   13356   13338   13359       1   13353   13338   13356       2   13353   13338
   13359       2   13353   13374   13395       2   13353   13374   13398       2
   13350   13368   13389       4   13347   13362   13386       4   13341   13326
   13344       1   13338   13326   13341       2   13338   13326   13344       2
   13338   13353   13377       2   13338   13353   13380       2   13335   13347
   13365       8   13335   13350   13371       8   13329   13308   13332       1
   13326   13308   13329       2   13326   13308   13332       2   13326   13338
   13356       2   13326   13338   13359       2   13317   13296   13320       8
   13317   13299   13323       8   13311   13290   13314       1   13308   13290
   13311       2   13308   13290   13314       2   13308   13326   13341       2
   13308   13326   13344       2   13299   13284   13302       4   13290   13308
   13329       2   13290   13308   13332       2   13287   13278   13293       4
   13284   13299   13323       4   13281   13296   13320       4   13278   13287
   13305       4   13272   13260   13275       4   13272   13287   13305       4
   13272   13290   13311      12   13272   13290   13314      12   13269   13284
   13302       4   13263   13278   13293       4   13251   13260   13275       4
   13626   13617   13629       1   13623   13617   13626       1   13623   13617
   13629       1   13617   13605   13620       2   13614   13605   13617       2
   13614   13605   13620       1   13608   13602   13611       1   13605   13602
   13608       2   13605   13602   13611       2   13605   13617   13623       2
   13605   13617   13626       2   13605   13617   13629       2   13602   13605
   13614       2   13602   13605   13620       2   13599   13584   13602       2
   13596   13584   13599       1   13596   13584   13602       2   13587   13566
   13590       1   13584   13566   13587       2   13584   13566   13590       2
   13584   13602   13608       2   13584   13602   13611       2   13575   13554
   13578       4   13575   13560   13581       4   13569   13545   13572       1
   13566   13545   13569       2   13566   13545   13572       2   13566   13584
   13596       2   13566   13584   13599       2   13560   13542   13563       4
   13560   13575   13593       4   13554   13539   13557       4   13554   13575
   13593       4   13548   13530   13551       1   13545   13530   13548       2
   13545   13530   13551       2   13545   13566   13587       2   13545   13566
   13590       2   13542   13560   13581       4   13539   13554   13578       4
   13533   13518   13536       1   13530   13518   13533       2   13530   13518
   13536       2   13530   13545   13569       2   13530   13545   13572       2
   13527   13539   13557       8   13527   13542   13563       8   13521   13500
   13524       1   13518   13500   13521       2   13518   13500   13524       2
   13518   13530   13548       2   13518   13530   13551       2   13509   13488
   13512       8   13509   13491   13515       8   13503   13482   13506       1
   13500   13482   13503       2   13500   13482   13506       2   13500   13518
   13533       2   13500   13518   13536       2   13491   13476   13494       4
   13482   13500   13521       2   13482   13500   13524       2   13479   13470
   13485       4   13476   13491   13515       4   13473   13488   13512       4
   13470   13479   13497       4   13464   13452   13467       4   13464   13479
   13497       4   13464   13482   13503      12   13464   13482   13506      12
   13461   13476   13494       4   13455   13470   13485       4   13443   13452
   13467       4   13818   13809   13821       1   13815   13809   13818       1
   13815   13809   13821       1   13809   13797   13812       2   13806   13797
   13809       2   13806   13797   13812       1   13800   13794   13803       1
   13797   13794   13800       2   13797   13794   13803       2   13797   13809
   13815       2   13797   13809   13818       2   13797   13809   13821       2
   13794   13797   13806       2   13794   13797   13812       2   13791   13776
   13794       2   13788   13776   13791       1   13788   13776   13794       2
   13779   13758   13782       1   13776   13758   13779       2   13776   13758
   13782       2   13776   13794   13800       2   13776   13794   13803       2
   13767   13746   13770       4   13767   13752   13773       4   13761   13737
   13764       1   13758   13737   13761       2   13758   13737   13764       2
   13758   13776   13788       2   13758   13776   13791       2   13752   13734
   13755       4   13752   13767   13785       4   13746   13731   13749       4
   13746   13767   13785       4   13740   13722   13743       1   13737   13722
   13740       2   13737   13722   13743       2   13737   13758   13779       2
   13737   13758   13782       2   13734   13752   13773       4   13731   13746
   13770       4   13725   13710   13728       1   13722   13710   13725       2
   13722   13710   13728       2   13722   13737   13761       2   13722   13737
   13764       2   13719   13731   13749       8   13719   13734   13755       8
   13713   13692   13716       1   13710   13692   13713       2   13710   13692
   13716       2   13710   13722   13740       2   13710   13722   13743       2
   13701   13680   13704       8   13701   13683   13707       8   13695   13674
   13698       1   13692   13674   13695       2   13692   13674   13698       2
   13692   13710   13725       2   13692   13710   13728       2   13683   13668
   13686       4   13674   13692   13713       2   13674   13692   13716       2
   13671   13662   13677       4   13668   13683   13707       4   13665   13680
   13704       4   13662   13671   13689       4   13656   13644   13659       4
   13656   13671   13689       4   13656   13674   13695      12   13656   13674
   13698      12   13653   13668   13686       4   13647   13662   13677       4
   13635   13644   13659       4   14010   14001   14013       1   14007   14001
   14010       1   14007   14001   14013       1   14001   13989   14004       2
   13998   13989   14001       2   13998   13989   14004       1   13992   13986
   13995       1   13989   13986   13992       2   13989   13986   13995       2
   13989   14001   14007       2   13989   14001   14010       2   13989   14001
   14013       2   13986   13989   13998       2   13986   13989   14004       2
   13983   13968   13986       2   13980   13968   13983       1   13980   13968
   13986       2   13971   13950   13974       1   13968   13950   13971       2
   13968   13950   13974       2   13968   13986   13992       2   13968   13986
   13995       2   13959   13938   13962       4   13959   13944   13965       4
   13953   13929   13956       1   13950   13929   13953       2   13950   13929
   13956       2   13950   13968   13980       2   13950   13968   13983       2
   13944   13926   13947       4   13944   13959   13977       4   13938   13923
   13941       4   13938   13959   13977       4   13932   13914   13935       1
   13929   13914   13932       2   13929   13914   13935       2   13929   13950
   13971       2   13929   13950   13974       2   13926   13944   13965       4
   13923   13938   13962       4   13917   13902   13920       1   13914   13902
   13917       2   13914   13902   13920       2   13914   13929   13953       2
   13914   13929   13956       2   13911   13923   13941       8   13911   13926
   13947       8   13905   13884   13908       1   13902   13884   13905       2
   13902   13884   13908       2   13902   13914   13932       2   13902   13914
   13935       2   13893   13872   13896       8   13893   13875   13899       8
   13887   13866   13890       1   13884   13866   13887       2   13884   13866
   13890       2   13884   13902   13917       2   13884   13902   13920       2
   13875   13860   13878       4   13866   13884   13905       2   13866   13884
   13908       2   13863   13854   13869       4   13860   13875   13899       4
   13857   13872   13896       4   13854   13863   13881       4   13848   13836
   13851       4   13848   13863   13881       4   13848   13866   13887      12
   13848   13866   13890      12   13845   13860   13878       4   13839   13854
   13869       4   13827   13836   13851       4   14202   14193   14205       1
   14199   14193   14202       1   14199   14193   14205       1   14193   14181
   14196       2   14190   14181   14193       2   14190   14181   14196       1
   14184   14178   14187       1   14181   14178   14184       2   14181   14178
   14187       2   14181   14193   14199       2   14181   14193   14202       2
   14181   14193   14205       2   14178   14181   14190       2   14178   14181
   14196       2   14175   14160   14178       2   14172   14160   14175       1
   14172   14160   14178       2   14163   14142   14166       1   14160   14142
   14163       2   14160   14142   14166       2   14160   14178   14184       2
   14160   14178   14187       2   14151   14130   14154       4   14151   14136
   14157       4   14145   14121   14148       1   14142   14121   14145       2
   14142   14121   14148       2   14142   14160   14172       2   14142   14160
   14175       2   14136   14118   14139       4   14136   14151   14169       4
   14130   14115   14133       4   14130   14151   14169       4   14124   14106
   14127       1   14121   14106   14124       2   14121   14106   14127       2
   14121   14142   14163       2   14121   14142   14166       2   14118   14136
   14157       4   14115   14130   14154       4   14109   14094   14112       1
   14106   14094   14109       2   14106   14094   14112       2   14106   14121
   14145       2   14106   14121   14148       2   14103   14115   14133       8
   14103   14118   14139       8   14097   14076   14100       1   14094   14076
   14097       2   14094   14076   14100       2   14094   14106   14124       2
   14094   14106   14127       2   14085   14064   14088       8   14085   14067
   14091       8   14079   14058   14082       1   14076   14058   14079       2
   14076   14058   14082       2   14076   14094   14109       2   14076   14094
   14112       2   14067   14052   14070       4   14058   14076   14097       2
   14058   14076   14100       2   14055   14046   14061       4   14052   14067
   14091       4   14049   14064   14088       4   14046   14055   14073       4
   14040   14028   14043       4   14040   14055   14073       4   14040   14058
   14079      12   14040   14058   14082      12   14037   14052   14070       4
   14031   14046   14061       4   14019   14028   14043       4   14394   14385
   14397       1   14391   14385   14394       1   14391   14385   14397       1
   14385   14373   14388       2   14382   14373   14385       2   14382   14373
   14388       1   14376   14370   14379       1   14373   14370   14376       2
   14373   14370   14379       2   14373   14385   14391       2   14373   14385
   14394       2   14373   14385   14397       2   14370   14373   14382       2
   14370   14373   14388       2   14367   14352   14370       2   14364   14352
   14367       1   14364   14352   14370       2   14355   14334   14358       1
   14352   14334   14355       2   14352   14334   14358       2   14352   14370
   14376       2   14352   14370   14379       2   14343   14322   14346       4
   14343   14328   14349       4   14337   14313   14340       1   14334   14313
   14337       2   14334   14313   14340       2   14334   14352   14364       2
   14334   14352   14367       2   14328   14310   14331       4   14328   14343
   14361       4   14322   14307   14325       4   14322   14343   14361       4
   14316   14298   14319       1   14313   14298   14316       2   14313   14298
   14319       2   14313   14334   14355       2   14313   14334   14358       2
   14310   14328   14349       4   14307   14322   14346       4   14301   14286
   14304       1   14298   14286   14301       2   14298   14286   14304       2
   14298   14313   14337       2   14298   14313   14340       2   14295   14307
   14325       8   14295   14310   14331       8   14289   14268   14292       1
   14286   14268   14289       2   14286   14268   14292       2   14286   14298
   14316       2   14286   14298   14319       2   14277   14256   14280       8
   14277   14259   14283       8   14271   14250   14274       1   14268   14250
   14271       2   14268   14250   14274       2   14268   14286   14301       2
   14268   14286   14304       2   14259   14244   14262       4   14250   14268
   14289       2   14250   14268   14292       2   14247   14238   14253       4
   14244   14259   14283       4   14241   14256   14280       4   14238   14247
   14265       4   14232   14220   14235       4   14232   14247   14265       4
   14232   14250   14271      12   14232   14250   14274      12   14229   14244
   14262       4   14223   14238   14253       4   14211   14220   14235       4
   14586   14577   14589       1   14583   14577   14586       1   14583   14577
   14589       1   14577   14565   14580       2   14574   14565   14577       2
   14574   14565   14580       1   14568   14562   14571       1   14565   14562
   14568       2   14565   14562   14571       2   14565   14577   14583       2
   14565   14577   14586       2   14565   14577   14589       2   14562   14565
   14574       2   14562   14565   14580       2   14559   14544   14562       2
   14556   14544   14559       1   14556   14544   14562       2   14547   14526
   14550       1   14544   14526   14547       2   14544   14526   14550       2
   14544   14562   14568       2   14544   14562   14571       2   14535   14514
   14538       4   14535   14520   14541       4   14529   14505   14532       1
   14526   14505   14529       2   14526   14505   14532       2   14526   14544
   14556       2   14526   14544   14559       2   14520   14502   14523       4
   14520   14535   14553       4   14514   14499   14517       4   14514   14535
   14553       4   14508   14490   14511       1   14505   14490   14508       2
   14505   14490   14511       2   14505   14526   14547       2   14505   14526
   14550       2   14502   14520   14541       4   14499   14514   14538       4
   14493   14478   14496       1   14490   14478   14493       2   14490   14478
   14496       2   14490   14505   14529       2   14490   14505   14532       2
   14487   14499   14517       8   14487   14502   14523       8   14481   14460
   14484       1   14478   14460   14481       2   14478   14460   14484       2
   14478   14490   14508       2   14478   14490   14511       2   14469   14448
   14472       8   14469   14451   14475       8   14463   14442   14466       1
   14460   14442   14463       2   14460   14442   14466       2   14460   14478
   14493       2   14460   14478   14496       2   14451   14436   14454       4
   14442   14460   14481       2   14442   14460   14484       2   14439   14430
   14445       4   14436   14451   14475       4   14433   14448   14472       4
   14430   14439   14457       4   14424   14412   14427       4   14424   14439
   14457       4   14424   14442   14463      12   14424   14442   14466      12
   14421   14436   14454       4   14415   14430   14445       4   14403   14412
   14427       4   14778   14769   14781       1   14775   14769   14778       1
   14775   14769   14781       1   14769   14757   14772       2   14766   14757
   14769       2   14766   14757   14772       1   14760   14754   14763       1
   14757   14754   14760       2   14757   14754   14763       2   14757   14769
   14775       2   14757   14769   14778       2   14757   14769   14781       2
   14754   14757   14766       2   14754   14757   14772       2   14751   14736
   14754       2   14748   14736   14751       1   14748   14736   14754       2
   14739   14718   14742       1   14736   14718   14739       2   14736   14718
   14742       2   14736   14754   14760       2   14736   14754   14763       2
   14727   14706   14730       4   14727   14712   14733       4   14721   14697
   14724       1   14718   14697   14721       2   14718   14697   14724       2
   14718   14736   14748       2   14718   14736   14751       2   14712   14694
   14715       4   14712   14727   14745       4   14706   14691   14709       4
   14706   14727   14745       4   14700   14682   14703       1   14697   14682
   14700       2   14697   14682   14703       2   14697   14718   14739       2
   14697   14718   14742       2   14694   14712   14733       4   14691   14706
   14730       4   14685   14670   14688       1   14682   14670   14685       2
   14682   14670   14688       2   14682   14697   14721       2   14682   14697
   14724       2   14679   14691   14709       8   14679   14694   14715       8
   14673   14652   14676       1   14670   14652   14673       2   14670   14652
   14676       2   14670   14682   14700       2   14670   14682   14703       2
   14661   14640   14664       8   14661   14643   14667       8   14655   14634
   14658       1   14652   14634   14655       2   14652   14634   14658       2
   14652   14670   14685       2   14652   14670   14688       2   14643   14628
   14646       4   14634   14652   14673       2   14634   14652   14676       2
   14631   14622   14637       4   14628   14643   14667       4   14625   14640
   14664       4   14622   14631   14649       4   14616   14604   14619       4
   14616   14631   14649       4   14616   14634   14655      12   14616   14634
   14658      12   14613   14628   14646       4   14607   14622   14637       4
   14595   14604   14619       4   14970   14961   14973       1   14967   14961
   14970       1   14967   14961   14973       1   14961   14949   14964       2
   14958   14949   14961       2   14958   14949   14964       1   14952   14946
   14955       1   14949   14946   14952       2   14949   14946   14955       2
   14949   14961   14967       2   14949   14961   14970       2   14949   14961
   14973       2   14946   14949   14958       2   14946   14949   14964       2
   14943   14928   14946       2   14940   14928   14943       1   14940   14928
   14946       2   14931   14910   14934       1   14928   14910   14931       2
   14928   14910   14934       2   14928   14946   14952       2   14928   14946
   14955       2   14919   14898   14922       4   14919   14904   14925       4
   14913   14889   14916       1   14910   14889   14913       2   14910   14889
   14916       2   14910   14928   14940       2   14910   14928   14943       2
   14904   14886   14907       4   14904   14919   14937       4   14898   14883
   14901       4   14898   14919   14937       4   14892   14874   14895       1
   14889   14874   14892       2   14889   14874   14895       2   14889   14910
   14931       2   14889   14910   14934       2   14886   14904   14925       4
   14883   14898   14922       4   14877   14862   14880       1   14874   14862
   14877       2   14874   14862   14880       2   14874   14889   14913       2
   14874   14889   14916       2   14871   14883   14901       8   14871   14886
   14907       8   14865   14844   14868       1   14862   14844   14865       2
   14862   14844   14868       2   14862   14874   14892       2   14862   14874
   14895       2   14853   14832   14856       8   14853   14835   14859       8
   14847   14826   14850       1   14844   14826   14847       2   14844   14826
   14850       2   14844   14862   14877       2   14844   14862   14880       2
   14835   14820   14838       4   14826   14844   14865       2   14826   14844
   14868       2   14823   14814   14829       4   14820   14835   14859       4
   14817   14832   14856       4   14814   14823   14841       4   14808   14796
   14811       4   14808   14823   14841       4   14808   14826   14847      12
   14808   14826   14850      12   14805   14820   14838       4   14799   14814
   14829       4   14787   14796   14811       4   15162   15153   15165       1
   15159   15153   15162       1   15159   15153   15165       1   15153   15141
   15156       2   15150   15141   15153       2   15150   15141   15156       1
   15144   15138   15147       1   15141   15138   15144       2   15141   15138
   15147       2   15141   15153   15159       2   15141   15153   15162       2
   15141   15153   15165       2   15138   15141   15150       2   15138   15141
   15156       2   15135   15120   15138       2   15132   15120   15135       1
   15132   15120   15138       2   15123   15102   15126       1   15120   15102
   15123       2   15120   15102   15126       2   15120   15138   15144       2
   15120   15138   15147       2   15111   15090   15114       4   15111   15096
   15117       4   15105   15081   15108       1   15102   15081   15105       2
   15102   15081   15108       2   15102   15120   15132       2   15102   15120
   15135       2   15096   15078   15099       4   15096   15111   15129       4
   15090   15075   15093       4   15090   15111   15129       4   15084   15066
   15087       1   15081   15066   15084       2   15081   15066   15087       2
   15081   15102   15123       2   15081   15102   15126       2   15078   15096
   15117       4   15075   15090   15114       4   15069   15054   15072       1
   15066   15054   15069       2   15066   15054   15072       2   15066   15081
   15105       2   15066   15081   15108       2   15063   15075   15093       8
   15063   15078   15099       8   15057   15036   15060       1   15054   15036
   15057       2   15054   15036   15060       2   15054   15066   15084       2
   15054   15066   15087       2   15045   15024   15048       8   15045   15027
   15051       8   15039   15018   15042       1   15036   15018   15039       2
   15036   15018   15042       2   15036   15054   15069       2   15036   15054
   15072       2   15027   15012   15030       4   15018   15036   15057       2
   15018   15036   15060       2   15015   15006   15021       4   15012   15027
   15051       4   15009   15024   15048       4   15006   15015   15033       4
   15000   14988   15003       4   15000   15015   15033       4   15000   15018
   15039      12   15000   15018   15042      12   14997   15012   15030       4
   14991   15006   15021       4   14979   14988   15003       4   15354   15345
   15357       1   15351   15345   15354       1   15351   15345   15357       1
   15345   15333   15348       2   15342   15333   15345       2   15342   15333
   15348       1   15336   15330   15339       1   15333   15330   15336       2
   15333   15330   15339       2   15333   15345   15351       2   15333   15345
   15354       2   15333   15345   15357       2   15330   15333   15342       2
   15330   15333   15348       2   15327   15312   15330       2   15324   15312
   15327       1   15324   15312   15330       2   15315   15294   15318       1
   15312   15294   15315       2   15312   15294   15318       2   15312   15330
   15336       2   15312   15330   15339       2   15303   15282   15306       4
   15303   15288   15309       4   15297   15273   15300       1   15294   15273
   15297       2   15294   15273   15300       2   15294   15312   15324       2
   15294   15312   15327       2   15288   15270   15291       4   15288   15303
   15321       4   15282   15267   15285       4   15282   15303   15321       4
   15276   15258   15279       1   15273   15258   15276       2   15273   15258
   15279       2   15273   15294   15315       2   15273   15294   15318       2
   15270   15288   15309       4   15267   15282   15306       4   15261   15246
   15264       1   15258   15246   15261       2   15258   15246   15264       2
   15258   15273   15297       2   15258   15273   15300       2   15255   15267
   15285       8   15255   15270   15291       8   15249   15228   15252       1
   15246   15228   15249       2   15246   15228   15252       2   15246   15258
   15276       2   15246   15258   15279       2   15237   15216   15240       8
   15237   15219   15243       8   15231   15210   15234       1   15228   15210
   15231       2   15228   15210   15234       2   15228   15246   15261       2
   15228   15246   15264       2   15219   15204   15222       4   15210   15228
   15249       2   15210   15228   15252       2   15207   15198   15213       4
   15204   15219   15243       4   15201   15216   15240       4   15198   15207
   15225       4   15192   15180   15195       4   15192   15207   15225       4
   15192   15210   15231      12   15192   15210   15234      12   15189   15204
   15222       4   15183   15198   15213       4   15171   15180   15195       4
   15546   15537   15549       1   15543   15537   15546       1   15543   15537
   15549       1   15537   15525   15540       2   15534   15525   15537       2
   15534   15525   15540       1   15528   15522   15531       1   15525   15522
   15528       2   15525   15522   15531       2   15525   15537   15543       2
   15525   15537   15546       2   15525   15537   15549       2   15522   15525
   15534       2   15522   15525   15540       2   15519   15504   15522       2
   15516   15504   15519       1   15516   15504   15522       2   15507   15486
   15510       1   15504   15486   15507       2   15504   15486   15510       2
   15504   15522   15528       2   15504   15522   15531       2   15495   15474
   15498       4   15495   15480   15501       4   15489   15465   15492       1
   15486   15465   15489       2   15486   15465   15492       2   15486   15504
   15516       2   15486   15504   15519       2   15480   15462   15483       4
   15480   15495   15513       4   15474   15459   15477       4   15474   15495
   15513       4   15468   15450   15471       1   15465   15450   15468       2
   15465   15450   15471       2   15465   15486   15507       2   15465   15486
   15510       2   15462   15480   15501       4   15459   15474   15498       4
   15453   15438   15456       1   15450   15438   15453       2   15450   15438
   15456       2   15450   15465   15489       2   15450   15465   15492       2
   15447   15459   15477       8   15447   15462   15483       8   15441   15420
   15444       1   15438   15420   15441       2   15438   15420   15444       2
   15438   15450   15468       2   15438   15450   15471       2   15429   15408
   15432       8   15429   15411   15435       8   15423   15402   15426       1
   15420   15402   15423       2   15420   15402   15426       2   15420   15438
   15453       2   15420   15438   15456       2   15411   15396   15414       4
   15402   15420   15441       2   15402   15420   15444       2   15399   15390
   15405       4   15396   15411   15435       4   15393   15408   15432       4
   15390   15399   15417       4   15384   15372   15387       4   15384   15399
   15417       4   15384   15402   15423      12   15384   15402   15426      12
   15381   15396   15414       4   15375   15390   15405       4   15363   15372
   15387       4   15738   15729   15741       1   15735   15729   15738       1
   15735   15729   15741       1   15729   15717   15732       2   15726   15717
   15729       2   15726   15717   15732       1   15720   15714   15723       1
   15717   15714   15720       2   15717   15714   15723       2   15717   15729
   15735       2   15717   15729   15738       2   15717   15729   15741       2
   15714   15717   15726       2   15714   15717   15732       2   15711   15696
   15714       2   15708   15696   15711       1   15708   15696   15714       2
   15699   15678   15702       1   15696   15678   15699       2   15696   15678
   15702       2   15696   15714   15720       2   15696   15714   15723       2
   15687   15666   15690       4   15687   15672   15693       4   15681   15657
   15684       1   15678   15657   15681       2   15678   15657   15684       2
   15678   15696   15708       2   15678   15696   15711       2   15672   15654
   15675       4   15672   15687   15705       4   15666   15651   15669       4
   15666   15687   15705       4   15660   15642   15663       1   15657   15642
   15660       2   15657   15642   15663       2   15657   15678   15699       2
   15657   15678   15702       2   15654   15672   15693       4   15651   15666
   15690       4   15645   15630   15648       1   15642   15630   15645       2
   15642   15630   15648       2   15642   15657   15681       2   15642   15657
   15684       2   15639   15651   15669       8   15639   15654   15675       8
   15633   15612   15636       1   15630   15612   15633       2   15630   15612
   15636       2   15630   15642   15660       2   15630   15642   15663       2
   15621   15600   15624       8   15621   15603   15627       8   15615   15594
   15618       1   15612   15594   15615       2   15612   15594   15618       2
   15612   15630   15645       2   15612   15630   15648       2   15603   15588
   15606       4   15594   15612   15633       2   15594   15612   15636       2
   15591   15582   15597       4   15588   15603   15627       4   15585   15600
   15624       4   15582   15591   15609       4   15576   15564   15579       4
   15576   15591   15609       4   15576   15594   15615      12   15576   15594
   15618      12   15573   15588   15606       4   15567   15582   15597       4
   15555   15564   15579       4   15930   15921   15933       1   15927   15921
   15930       1   15927   15921   15933       1   15921   15909   15924       2
   15918   15909   15921       2   15918   15909   15924       1   15912   15906
   15915       1   15909   15906   15912       2   15909   15906   15915       2
   15909   15921   15927       2   15909   15921   15930       2   15909   15921
   15933       2   15906   15909   15918       2   15906   15909   15924       2
   15903   15888   15906       2   15900   15888   15903       1   15900   15888
   15906       2   15891   15870   15894       1   15888   15870   15891       2
   15888   15870   15894       2   15888   15906   15912       2   15888   15906
   15915       2   15879   15858   15882       4   15879   15864   15885       4
   15873   15849   15876       1   15870   15849   15873       2   15870   15849
   15876       2   15870   15888   15900       2   15870   15888   15903       2
   15864   15846   15867       4   15864   15879   15897       4   15858   15843
   15861       4   15858   15879   15897       4   15852   15834   15855       1
   15849   15834   15852       2   15849   15834   15855       2   15849   15870
   15891       2   15849   15870   15894       2   15846   15864   15885       4
   15843   15858   15882       4   15837   15822   15840       1   15834   15822
   15837       2   15834   15822   15840       2   15834   15849   15873       2
   15834   15849   15876       2   15831   15843   15861       8   15831   15846
   15867       8   15825   15804   15828       1   15822   15804   15825       2
   15822   15804   15828       2   15822   15834   15852       2   15822   15834
   15855       2   15813   15792   15816       8   15813   15795   15819       8
   15807   15786   15810       1   15804   15786   15807       2   15804   15786
   15810       2   15804   15822   15837       2   15804   15822   15840       2
   15795   15780   15798       4   15786   15804   15825       2   15786   15804
   15828       2   15783   15774   15789       4   15780   15795   15819       4
   15777   15792   15816       4   15774   15783   15801       4   15768   15756
   15771       4   15768   15783   15801       4   15768   15786   15807      12
   15768   15786   15810      12   15765   15780   15798       4   15759   15774
   15789       4   15747   15756   15771       4   16122   16113   16125       1
   16119   16113   16122       1   16119   16113   16125       1   16113   16101
   16116       2   16110   16101   16113       2   16110   16101   16116       1
   16104   16098   16107       1   16101   16098   16104       2   16101   16098
   16107       2   16101   16113   16119       2   16101   16113   16122       2
   16101   16113   16125       2   16098   16101   16110       2   16098   16101
   16116       2   16095   16080   16098       2   16092   16080   16095       1
   16092   16080   16098       2   16083   16062   16086       1   16080   16062
   16083       2   16080   16062   16086       2   16080   16098   16104       2
   16080   16098   16107       2   16071   16050   16074       4   16071   16056
   16077       4   16065   16041   16068       1   16062   16041   16065       2
   16062   16041   16068       2   16062   16080   16092       2   16062   16080
   16095       2   16056   16038   16059       4   16056   16071   16089       4
   16050   16035   16053       4   16050   16071   16089       4   16044   16026
   16047       1   16041   16026   16044       2   16041   16026   16047       2
   16041   16062   16083       2   16041   16062   16086       2   16038   16056
   16077       4   16035   16050   16074       4   16029   16014   16032       1
   16026   16014   16029       2   16026   16014   16032       2   16026   16041
   16065       2   16026   16041   16068       2   16023   16035   16053       8
   16023   16038   16059       8   16017   15996   16020       1   16014   15996
   16017       2   16014   15996   16020       2   16014   16026   16044       2
   16014   16026   16047       2   16005   15984   16008       8   16005   15987
   16011       8   15999   15978   16002       1   15996   15978   15999       2
   15996   15978   16002       2   15996   16014   16029       2   15996   16014
   16032       2   15987   15972   15990       4   15978   15996   16017       2
   15978   15996   16020       2   15975   15966   15981       4   15972   15987
   16011       4   15969   15984   16008       4   15966   15975   15993       4
   15960   15948   15963       4   15960   15975   15993       4   15960   15978
   15999      12   15960   15978   16002      12   15957   15972   15990       4
   15951   15966   15981       4   15939   15948   15963       4   16314   16305
   16317       1   16311   16305   16314       1   16311   16305   16317       1
   16305   16293   16308       2   16302   16293   16305       2   16302   16293
   16308       1   16296   16290   16299       1   16293   16290   16296       2
   16293   16290   16299       2   16293   16305   16311       2   16293   16305
   16314       2   16293   16305   16317       2   16290   16293   16302       2
   16290   16293   16308       2   16287   16272   16290       2   16284   16272
   16287       1   16284   16272   16290       2   16275   16254   16278       1
   16272   16254   16275       2   16272   16254   16278       2   16272   16290
   16296       2   16272   16290   16299       2   16263   16242   16266       4
   16263   16248   16269       4   16257   16233   16260       1   16254   16233
   16257       2   16254   16233   16260       2   16254   16272   16284       2
   16254   16272   16287       2   16248   16230   16251       4   16248   16263
   16281       4   16242   16227   16245       4   16242   16263   16281       4
   16236   16218   16239       1   16233   16218   16236       2   16233   16218
   16239       2   16233   16254   16275       2   16233   16254   16278       2
   16230   16248   16269       4   16227   16242   16266       4   16221   16206
   16224       1   16218   16206   16221       2   16218   16206   16224       2
   16218   16233   16257       2   16218   16233   16260       2   16215   16227
   16245       8   16215   16230   16251       8   16209   16188   16212       1
   16206   16188   16209       2   16206   16188   16212       2   16206   16218
   16236       2   16206   16218   16239       2   16197   16176   16200       8
   16197   16179   16203       8   16191   16170   16194       1   16188   16170
   16191       2   16188   16170   16194       2   16188   16206   16221       2
   16188   16206   16224       2   16179   16164   16182       4   16170   16188
   16209       2   16170   16188   16212       2   16167   16158   16173       4
   16164   16179   16203       4   16161   16176   16200       4   16158   16167
   16185       4   16152   16140   16155       4   16152   16167   16185       4
   16152   16170   16191      12   16152   16170   16194      12   16149   16164
   16182       4   16143   16158   16173       4   16131   16140   16155       4
   16506   16497   16509       1   16503   16497   16506       1   16503   16497
   16509       1   16497   16485   16500       2   16494   16485   16497       2
   16494   16485   16500       1   16488   16482   16491       1   16485   16482
   16488       2   16485   16482   16491       2   16485   16497   16503       2
   16485   16497   16506       2   16485   16497   16509       2   16482   16485
   16494       2   16482   16485   16500       2   16479   16464   16482       2
   16476   16464   16479       1   16476   16464   16482       2   16467   16446
   16470       1   16464   16446   16467       2   16464   16446   16470       2
   16464   16482   16488       2   16464   16482   16491       2   16455   16434
   16458       4   16455   16440   16461       4   16449   16425   16452       1
   16446   16425   16449       2   16446   16425   16452       2   16446   16464
   16476       2   16446   16464   16479       2   16440   16422   16443       4
   16440   16455   16473       4   16434   16419   16437       4   16434   16455
   16473       4   16428   16410   16431       1   16425   16410   16428       2
   16425   16410   16431       2   16425   16446   16467       2   16425   16446
   16470       2   16422   16440   16461       4   16419   16434   16458       4
   16413   16398   16416       1   16410   16398   16413       2   16410   16398
   16416       2   16410   16425   16449       2   16410   16425   16452       2
   16407   16419   16437       8   16407   16422   16443       8   16401   16380
   16404       1   16398   16380   16401       2   16398   16380   16404       2
   16398   16410   16428       2   16398   16410   16431       2   16389   16368
   16392       8   16389   16371   16395       8   16383   16362   16386       1
   16380   16362   16383       2   16380   16362   16386       2   16380   16398
   16413       2   16380   16398   16416       2   16371   16356   16374       4
   16362   16380   16401       2   16362   16380   16404       2   16359   16350
   16365       4   16356   16371   16395       4   16353   16368   16392       4
   16350   16359   16377       4   16344   16332   16347       4   16344   16359
   16377       4   16344   16362   16383      12   16344   16362   16386      12
   16341   16356   16374       4   16335   16350   16365       4   16323   16332
   16347       4   16698   16689   16701       1   16695   16689   16698       1
   16695   16689   16701       1   16689   16677   16692       2   16686   16677
   16689       2   16686   16677   16692       1   16680   16674   16683       1
   16677   16674   16680       2   16677   16674   16683       2   16677   16689
   16695       2   16677   16689   16698       2   16677   16689   16701       2
   16674   16677   16686       2   16674   16677   16692       2   16671   16656
   16674       2   16668   16656   16671       1   16668   16656   16674       2
   16659   16638   16662       1   16656   16638   16659       2   16656   16638
   16662       2   16656   16674   16680       2   16656   16674   16683       2
   16647   16626   16650       4   16647   16632   16653       4   16641   16617
   16644       1   16638   16617   16641       2   16638   16617   16644       2
   16638   16656   16668       2   16638   16656   16671       2   16632   16614
   16635       4   16632   16647   16665       4   16626   16611   16629       4
   16626   16647   16665       4   16620   16602   16623       1   16617   16602
   16620       2   16617   16602   16623       2   16617   16638   16659       2
   16617   16638   16662       2   16614   16632   16653       4   16611   16626
   16650       4   16605   16590   16608       1   16602   16590   16605       2
   16602   16590   16608       2   16602   16617   16641       2   16602   16617
   16644       2   16599   16611   16629       8   16599   16614   16635       8
   16593   16572   16596       1   16590   16572   16593       2   16590   16572
   16596       2   16590   16602   16620       2   16590   16602   16623       2
   16581   16560   16584       8   16581   16563   16587       8   16575   16554
   16578       1   16572   16554   16575       2   16572   16554   16578       2
   16572   16590   16605       2   16572   16590   16608       2   16563   16548
   16566       4   16554   16572   16593       2   16554   16572   16596       2
   16551   16542   16557       4   16548   16563   16587       4   16545   16560
   16584       4   16542   16551   16569       4   16536   16524   16539       4
   16536   16551   16569       4   16536   16554   16575      12   16536   16554
   16578      12   16533   16548   16566       4   16527   16542   16557       4
   16515   16524   16539       4   16890   16881   16893       1   16887   16881
   16890       1   16887   16881   16893       1   16881   16869   16884       2
   16878   16869   16881       2   16878   16869   16884       1   16872   16866
   16875       1   16869   16866   16872       2   16869   16866   16875       2
   16869   16881   16887       2   16869   16881   16890       2   16869   16881
   16893       2   16866   16869   16878       2   16866   16869   16884       2
   16863   16848   16866       2   16860   16848   16863       1   16860   16848
   16866       2   16851   16830   16854       1   16848   16830   16851       2
   16848   16830   16854       2   16848   16866   16872       2   16848   16866
   16875       2   16839   16818   16842       4   16839   16824   16845       4
   16833   16809   16836       1   16830   16809   16833       2   16830   16809
   16836       2   16830   16848   16860       2   16830   16848   16863       2
   16824   16806   16827       4   16824   16839   16857       4   16818   16803
   16821       4   16818   16839   16857       4   16812   16794   16815       1
   16809   16794   16812       2   16809   16794   16815       2   16809   16830
   16851       2   16809   16830   16854       2   16806   16824   16845       4
   16803   16818   16842       4   16797   16782   16800       1   16794   16782
   16797       2   16794   16782   16800       2   16794   16809   16833       2
   16794   16809   16836       2   16791   16803   16821       8   16791   16806
   16827       8   16785   16764   16788       1   16782   16764   16785       2
   16782   16764   16788       2   16782   16794   16812       2   16782   16794
   16815       2   16773   16752   16776       8   16773   16755   16779       8
   16767   16746   16770       1   16764   16746   16767       2   16764   16746
   16770       2   16764   16782   16797       2   16764   16782   16800       2
   16755   16740   16758       4   16746   16764   16785       2   16746   16764
   16788       2   16743   16734   16749       4   16740   16755   16779       4
   16737   16752   16776       4   16734   16743   16761       4   16728   16716
   16731       4   16728   16743   16761       4   16728   16746   16767      12
   16728   16746   16770      12   16725   16740   16758       4   16719   16734
   16749       4   16707   16716   16731       4   17082   17073   17085       1
   17079   17073   17082       1   17079   17073   17085       1   17073   17061
   17076       2   17070   17061   17073       2   17070   17061   17076       1
   17064   17058   17067       1   17061   17058   17064       2   17061   17058
   17067       2   17061   17073   17079       2   17061   17073   17082       2
   17061   17073   17085       2   17058   17061   17070       2   17058   17061
   17076       2   17055   17040   17058       2   17052   17040   17055       1
   17052   17040   17058       2   17043   17022   17046       1   17040   17022
   17043       2   17040   17022   17046       2   17040   17058   17064       2
   17040   17058   17067       2   17031   17010   17034       4   17031   17016
   17037       4   17025   17001   17028       1   17022   17001   17025       2
   17022   17001   17028       2   17022   17040   17052       2   17022   17040
   17055       2   17016   16998   17019       4   17016   17031   17049       4
   17010   16995   17013       4   17010   17031   17049       4   17004   16986
   17007       1   17001   16986   17004       2   17001   16986   17007       2
   17001   17022   17043       2   17001   17022   17046       2   16998   17016
   17037       4   16995   17010   17034       4   16989   16974   16992       1
   16986   16974   16989       2   16986   16974   16992       2   16986   17001
   17025       2   16986   17001   17028       2   16983   16995   17013       8
   16983   16998   17019       8   16977   16956   16980       1   16974   16956
   16977       2   16974   16956   16980       2   16974   16986   17004       2
   16974   16986   17007       2   16965   16944   16968       8   16965   16947
   16971       8   16959   16938   16962       1   16956   16938   16959       2
   16956   16938   16962       2   16956   16974   16989       2   16956   16974
   16992       2   16947   16932   16950       4   16938   16956   16977       2
   16938   16956   16980       2   16935   16926   16941       4   16932   16947
   16971       4   16929   16944   16968       4   16926   16935   16953       4
   16920   16908   16923       4   16920   16935   16953       4   16920   16938
   16959      12   16920   16938   16962      12   16917   16932   16950       4
   16911   16926   16941       4   16899   16908   16923       4   17274   17265
   17277       1   17271   17265   17274       1   17271   17265   17277       1
   17265   17253   17268       2   17262   17253   17265       2   17262   17253
   17268       1   17256   17250   17259       1   17253   17250   17256       2
   17253   17250   17259       2   17253   17265   17271       2   17253   17265
   17274       2   17253   17265   17277       2   17250   17253   17262       2
   17250   17253   17268       2   17247   17232   17250       2   17244   17232
   17247       1   17244   17232   17250       2   17235   17214   17238       1
   17232   17214   17235       2   17232   17214   17238       2   17232   17250
   17256       2   17232   17250   17259       2   17223   17202   17226       4
   17223   17208   17229       4   17217   17193   17220       1   17214   17193
   17217       2   17214   17193   17220       2   17214   17232   17244       2
   17214   17232   17247       2   17208   17190   17211       4   17208   17223
   17241       4   17202   17187   17205       4   17202   17223   17241       4
   17196   17178   17199       1   17193   17178   17196       2   17193   17178
   17199       2   17193   17214   17235       2   17193   17214   17238       2
   17190   17208   17229       4   17187   17202   17226       4   17181   17166
   17184       1   17178   17166   17181       2   17178   17166   17184       2
   17178   17193   17217       2   17178   17193   17220       2   17175   17187
   17205       8   17175   17190   17211       8   17169   17148   17172       1
   17166   17148   17169       2   17166   17148   17172       2   17166   17178
   17196       2   17166   17178   17199       2   17157   17136   17160       8
   17157   17139   17163       8   17151   17130   17154       1   17148   17130
   17151       2   17148   17130   17154       2   17148   17166   17181       2
   17148   17166   17184       2   17139   17124   17142       4   17130   17148
   17169       2   17130   17148   17172       2   17127   17118   17133       4
   17124   17139   17163       4   17121   17136   17160       4   17118   17127
   17145       4   17112   17100   17115       4   17112   17127   17145       4
   17112   17130   17151      12   17112   17130   17154      12   17109   17124
   17142       4   17103   17118   17133       4   17091   17100   17115       4
   17466   17457   17469       1   17463   17457   17466       1   17463   17457
   17469       1   17457   17445   17460       2   17454   17445   17457       2
   17454   17445   17460       1   17448   17442   17451       1   17445   17442
   17448       2   17445   17442   17451       2   17445   17457   17463       2
   17445   17457   17466       2   17445   17457   17469       2   17442   17445
   17454       2   17442   17445   17460       2   17439   17424   17442       2
   17436   17424   17439       1   17436   17424   17442       2   17427   17406
   17430       1   17424   17406   17427       2   17424   17406   17430       2
   17424   17442   17448       2   17424   17442   17451       2   17415   17394
   17418       4   17415   17400   17421       4   17409   17385   17412       1
   17406   17385   17409       2   17406   17385   17412       2   17406   17424
   17436       2   17406   17424   17439       2   17400   17382   17403       4
   17400   17415   17433       4   17394   17379   17397       4   17394   17415
   17433       4   17388   17370   17391       1   17385   17370   17388       2
   17385   17370   17391       2   17385   17406   17427       2   17385   17406
   17430       2   17382   17400   17421       4   17379   17394   17418       4
   17373   17358   17376       1   17370   17358   17373       2   17370   17358
   17376       2   17370   17385   17409       2   17370   17385   17412       2
   17367   17379   17397       8   17367   17382   17403       8   17361   17340
   17364       1   17358   17340   17361       2   17358   17340   17364       2
   17358   17370   17388       2   17358   17370   17391       2   17349   17328
   17352       8   17349   17331   17355       8   17343   17322   17346       1
   17340   17322   17343       2   17340   17322   17346       2   17340   17358
   17373       2   17340   17358   17376       2   17331   17316   17334       4
   17322   17340   17361       2   17322   17340   17364       2   17319   17310
   17325       4   17316   17331   17355       4   17313   17328   17352       4
   17310   17319   17337       4   17304   17292   17307       4   17304   17319
   17337       4   17304   17322   17343      12   17304   17322   17346      12
   17301   17316   17334       4   17295   17310   17325       4   17283   17292
   17307       4   17658   17649   17661       1   17655   17649   17658       1
   17655   17649   17661       1   17649   17637   17652       2   17646   17637
   17649       2   17646   17637   17652       1   17640   17634   17643       1
   17637   17634   17640       2   17637   17634   17643       2   17637   17649
   17655       2   17637   17649   17658       2   17637   17649   17661       2
   17634   17637   17646       2   17634   17637   17652       2   17631   17616
   17634       2   17628   17616   17631       1   17628   17616   17634       2
   17619   17598   17622       1   17616   17598   17619       2   17616   17598
   17622       2   17616   17634   17640       2   17616   17634   17643       2
   17607   17586   17610       4   17607   17592   17613       4   17601   17577
   17604       1   17598   17577   17601       2   17598   17577   17604       2
   17598   17616   17628       2   17598   17616   17631       2   17592   17574
   17595       4   17592   17607   17625       4   17586   17571   17589       4
   17586   17607   17625       4   17580   17562   17583       1   17577   17562
   17580       2   17577   17562   17583       2   17577   17598   17619       2
   17577   17598   17622       2   17574   17592   17613       4   17571   17586
   17610       4   17565   17550   17568       1   17562   17550   17565       2
   17562   17550   17568       2   17562   17577   17601       2   17562   17577
   17604       2   17559   17571   17589       8   17559   17574   17595       8
   17553   17532   17556       1   17550   17532   17553       2   17550   17532
   17556       2   17550   17562   17580       2   17550   17562   17583       2
   17541   17520   17544       8   17541   17523   17547       8   17535   17514
   17538       1   17532   17514   17535       2   17532   17514   17538       2
   17532   17550   17565       2   17532   17550   17568       2   17523   17508
   17526       4   17514   17532   17553       2   17514   17532   17556       2
   17511   17502   17517       4   17508   17523   17547       4   17505   17520
   17544       4   17502   17511   17529       4   17496   17484   17499       4
   17496   17511   17529       4   17496   17514   17535      12   17496   17514
   17538      12   17493   17508   17526       4   17487   17502   17517       4
   17475   17484   17499       4   17850   17841   17853       1   17847   17841
   17850       1   17847   17841   17853       1   17841   17829   17844       2
   17838   17829   17841       2   17838   17829   17844       1   17832   17826
   17835       1   17829   17826   17832       2   17829   17826   17835       2
   17829   17841   17847       2   17829   17841   17850       2   17829   17841
   17853       2   17826   17829   17838       2   17826   17829   17844       2
   17823   17808   17826       2   17820   17808   17823       1   17820   17808
   17826       2   17811   17790   17814       1   17808   17790   17811       2
   17808   17790   17814       2   17808   17826   17832       2   17808   17826
   17835       2   17799   17778   17802       4   17799   17784   17805       4
   17793   17769   17796       1   17790   17769   17793       2   17790   17769
   17796       2   17790   17808   17820       2   17790   17808   17823       2
   17784   17766   17787       4   17784   17799   17817       4   17778   17763
   17781       4   17778   17799   17817       4   17772   17754   17775       1
   17769   17754   17772       2   17769   17754   17775       2   17769   17790
   17811       2   17769   17790   17814       2   17766   17784   17805       4
   17763   17778   17802       4   17757   17742   17760       1   17754   17742
   17757       2   17754   17742   17760       2   17754   17769   17793       2
   17754   17769   17796       2   17751   17763   17781       8   17751   17766
   17787       8   17745   17724   17748       1   17742   17724   17745       2
   17742   17724   17748       2   17742   17754   17772       2   17742   17754
   17775       2   17733   17712   17736       8   17733   17715   17739       8
   17727   17706   17730       1   17724   17706   17727       2   17724   17706
   17730       2   17724   17742   17757       2   17724   17742   17760       2
   17715   17700   17718       4   17706   17724   17745       2   17706   17724
   17748       2   17703   17694   17709       4   17700   17715   17739       4
   17697   17712   17736       4   17694   17703   17721       4   17688   17676
   17691       4   17688   17703   17721       4   17688   17706   17727      12
   17688   17706   17730      12   17685   17700   17718       4   17679   17694
   17709       4   17667   17676   17691       4   18042   18033   18045       1
   18039   18033   18042       1   18039   18033   18045       1   18033   18021
   18036       2   18030   18021   18033       2   18030   18021   18036       1
   18024   18018   18027       1   18021   18018   18024       2   18021   18018
   18027       2   18021   18033   18039       2   18021   18033   18042       2
   18021   18033   18045       2   18018   18021   18030       2   18018   18021
   18036       2   18015   18000   18018       2   18012   18000   18015       1
   18012   18000   18018       2   18003   17982   18006       1   18000   17982
   18003       2   18000   17982   18006       2   18000   18018   18024       2
   18000   18018   18027       2   17991   17970   17994       4   17991   17976
   17997       4   17985   17961   17988       1   17982   17961   17985       2
   17982   17961   17988       2   17982   18000   18012       2   17982   18000
   18015       2   17976   17958   17979       4   17976   17991   18009       4
   17970   17955   17973       4   17970   17991   18009       4   17964   17946
   17967       1   17961   17946   17964       2   17961   17946   17967       2
   17961   17982   18003       2   17961   17982   18006       2   17958   17976
   17997       4   17955   17970   17994       4   17949   17934   17952       1
   17946   17934   17949       2   17946   17934   17952       2   17946   17961
   17985       2   17946   17961   17988       2   17943   17955   17973       8
   17943   17958   17979       8   17937   17916   17940       1   17934   17916
   17937       2   17934   17916   17940       2   17934   17946   17964       2
   17934   17946   17967       2   17925   17904   17928       8   17925   17907
   17931       8   17919   17898   17922       1   17916   17898   17919       2
   17916   17898   17922       2   17916   17934   17949       2   17916   17934
   17952       2   17907   17892   17910       4   17898   17916   17937       2
   17898   17916   17940       2   17895   17886   17901       4   17892   17907
   17931       4   17889   17904   17928       4   17886   17895   17913       4
   17880   17868   17883       4   17880   17895   17913       4   17880   17898
   17919      12   17880   17898   17922      12   17877   17892   17910       4
   17871   17886   17901       4   17859   17868   17883       4   18234   18225
   18237       1   18231   18225   18234       1   18231   18225   18237       1
   18225   18213   18228       2   18222   18213   18225       2   18222   18213
   18228       1   18216   18210   18219       1   18213   18210   18216       2
   18213   18210   18219       2   18213   18225   18231       2   18213   18225
   18234       2   18213   18225   18237       2   18210   18213   18222       2
   18210   18213   18228       2   18207   18192   18210       2   18204   18192
   18207       1   18204   18192   18210       2   18195   18174   18198       1
   18192   18174   18195       2   18192   18174   18198       2   18192   18210
   18216       2   18192   18210   18219       2   18183   18162   18186       4
   18183   18168   18189       4   18177   18153   18180       1   18174   18153
   18177       2   18174   18153   18180       2   18174   18192   18204       2
   18174   18192   18207       2   18168   18150   18171       4   18168   18183
   18201       4   18162   18147   18165       4   18162   18183   18201       4
   18156   18138   18159       1   18153   18138   18156       2   18153   18138
   18159       2   18153   18174   18195       2   18153   18174   18198       2
   18150   18168   18189       4   18147   18162   18186       4   18141   18126
   18144       1   18138   18126   18141       2   18138   18126   18144       2
   18138   18153   18177       2   18138   18153   18180       2   18135   18147
   18165       8   18135   18150   18171       8   18129   18108   18132       1
   18126   18108   18129       2   18126   18108   18132       2   18126   18138
   18156       2   18126   18138   18159       2   18117   18096   18120       8
   18117   18099   18123       8   18111   18090   18114       1   18108   18090
   18111       2   18108   18090   18114       2   18108   18126   18141       2
   18108   18126   18144       2   18099   18084   18102       4   18090   18108
   18129       2   18090   18108   18132       2   18087   18078   18093       4
   18084   18099   18123       4   18081   18096   18120       4   18078   18087
   18105       4   18072   18060   18075       4   18072   18087   18105       4
   18072   18090   18111      12   18072   18090   18114      12   18069   18084
   18102       4   18063   18078   18093       4   18051   18060   18075       4
   18426   18417   18429       1   18423   18417   18426       1   18423   18417
   18429       1   18417   18405   18420       2   18414   18405   18417       2
   18414   18405   18420       1   18408   18402   18411       1   18405   18402
   18408       2   18405   18402   18411       2   18405   18417   18423       2
   18405   18417   18426       2   18405   18417   18429       2   18402   18405
   18414       2   18402   18405   18420       2   18399   18384   18402       2
   18396   18384   18399       1   18396   18384   18402       2   18387   18366
   18390       1   18384   18366   18387       2   18384   18366   18390       2
   18384   18402   18408       2   18384   18402   18411       2   18375   18354
   18378       4   18375   18360   18381       4   18369   18345   18372       1
   18366   18345   18369       2   18366   18345   18372       2   18366   18384
   18396       2   18366   18384   18399       2   18360   18342   18363       4
   18360   18375   18393       4   18354   18339   18357       4   18354   18375
   18393       4   18348   18330   18351       1   18345   18330   18348       2
   18345   18330   18351       2   18345   18366   18387       2   18345   18366
   18390       2   18342   18360   18381       4   18339   18354   18378       4
   18333   18318   18336       1   18330   18318   18333       2   18330   18318
   18336       2   18330   18345   18369       2   18330   18345   18372       2
   18327   18339   18357       8   18327   18342   18363       8   18321   18300
   18324       1   18318   18300   18321       2   18318   18300   18324       2
   18318   18330   18348       2   18318   18330   18351       2   18309   18288
   18312       8   18309   18291   18315       8   18303   18282   18306       1
   18300   18282   18303       2   18300   18282   18306       2   18300   18318
   18333       2   18300   18318   18336       2   18291   18276   18294       4
   18282   18300   18321       2   18282   18300   18324       2   18279   18270
   18285       4   18276   18291   18315       4   18273   18288   18312       4
   18270   18279   18297       4   18264   18252   18267       4   18264   18279
   18297       4   18264   18282   18303      12   18264   18282   18306      12
   18261   18276   18294       4   18255   18270   18285       4   18243   18252
   18267       4   18618   18609   18621       1   18615   18609   18618       1
   18615   18609   18621       1   18609   18597   18612       2   18606   18597
   18609       2   18606   18597   18612       1   18600   18594   18603       1
   18597   18594   18600       2   18597   18594   18603       2   18597   18609
   18615       2   18597   18609   18618       2   18597   18609   18621       2
   18594   18597   18606       2   18594   18597   18612       2   18591   18576
   18594       2   18588   18576   18591       1   18588   18576   18594       2
   18579   18558   18582       1   18576   18558   18579       2   18576   18558
   18582       2   18576   18594   18600       2   18576   18594   18603       2
   18567   18546   18570       4   18567   18552   18573       4   18561   18537
   18564       1   18558   18537   18561       2   18558   18537   18564       2
   18558   18576   18588       2   18558   18576   18591       2   18552   18534
   18555       4   18552   18567   18585       4   18546   18531   18549       4
   18546   18567   18585       4   18540   18522   18543       1   18537   18522
   18540       2   18537   18522   18543       2   18537   18558   18579       2
   18537   18558   18582       2   18534   18552   18573       4   18531   18546
   18570       4   18525   18510   18528       1   18522   18510   18525       2
   18522   18510   18528       2   18522   18537   18561       2   18522   18537
   18564       2   18519   18531   18549       8   18519   18534   18555       8
   18513   18492   18516       1   18510   18492   18513       2   18510   18492
   18516       2   18510   18522   18540       2   18510   18522   18543       2
   18501   18480   18504       8   18501   18483   18507       8   18495   18474
   18498       1   18492   18474   18495       2   18492   18474   18498       2
   18492   18510   18525       2   18492   18510   18528       2   18483   18468
   18486       4   18474   18492   18513       2   18474   18492   18516       2
   18471   18462   18477       4   18468   18483   18507       4   18465   18480
   18504       4   18462   18471   18489       4   18456   18444   18459       4
   18456   18471   18489       4   18456   18474   18495      12   18456   18474
   18498      12   18453   18468   18486       4   18447   18462   18477       4
   18435   18444   18459       4   18810   18801   18813       1   18807   18801
   18810       1   18807   18801   18813       1   18801   18789   18804       2
   18798   18789   18801       2   18798   18789   18804       1   18792   18786
   18795       1   18789   18786   18792       2   18789   18786   18795       2
   18789   18801   18807       2   18789   18801   18810       2   18789   18801
   18813       2   18786   18789   18798       2   18786   18789   18804       2
   18783   18768   18786       2   18780   18768   18783       1   18780   18768
   18786       2   18771   18750   18774       1   18768   18750   18771       2
   18768   18750   18774       2   18768   18786   18792       2   18768   18786
   18795       2   18759   18738   18762       4   18759   18744   18765       4
   18753   18729   18756       1   18750   18729   18753       2   18750   18729
   18756       2   18750   18768   18780       2   18750   18768   18783       2
   18744   18726   18747       4   18744   18759   18777       4   18738   18723
   18741       4   18738   18759   18777       4   18732   18714   18735       1
   18729   18714   18732       2   18729   18714   18735       2   18729   18750
   18771       2   18729   18750   18774       2   18726   18744   18765       4
   18723   18738   18762       4   18717   18702   18720       1   18714   18702
   18717       2   18714   18702   18720       2   18714   18729   18753       2
   18714   18729   18756       2   18711   18723   18741       8   18711   18726
   18747       8   18705   18684   18708       1   18702   18684   18705       2
   18702   18684   18708       2   18702   18714   18732       2   18702   18714
   18735       2   18693   18672   18696       8   18693   18675   18699       8
   18687   18666   18690       1   18684   18666   18687       2   18684   18666
   18690       2   18684   18702   18717       2   18684   18702   18720       2
   18675   18660   18678       4   18666   18684   18705       2   18666   18684
   18708       2   18663   18654   18669       4   18660   18675   18699       4
   18657   18672   18696       4   18654   18663   18681       4   18648   18636
   18651       4   18648   18663   18681       4   18648   18666   18687      12
   18648   18666   18690      12   18645   18660   18678       4   18639   18654
   18669       4   18627   18636   18651       4   19002   18993   19005       1
   18999   18993   19002       1   18999   18993   19005       1   18993   18981
   18996       2   18990   18981   18993       2   18990   18981   18996       1
   18984   18978   18987       1   18981   18978   18984       2   18981   18978
   18987       2   18981   18993   18999       2   18981   18993   19002       2
   18981   18993   19005       2   18978   18981   18990       2   18978   18981
   18996       2   18975   18960   18978       2   18972   18960   18975       1
   18972   18960   18978       2   18963   18942   18966       1   18960   18942
   18963       2   18960   18942   18966       2   18960   18978   18984       2
   18960   18978   18987       2   18951   18930   18954       4   18951   18936
   18957       4   18945   18921   18948       1   18942   18921   18945       2
   18942   18921   18948       2   18942   18960   18972       2   18942   18960
   18975       2   18936   18918   18939       4   18936   18951   18969       4
   18930   18915   18933       4   18930   18951   18969       4   18924   18906
   18927       1   18921   18906   18924       2   18921   18906   18927       2
   18921   18942   18963       2   18921   18942   18966       2   18918   18936
   18957       4   18915   18930   18954       4   18909   18894   18912       1
   18906   18894   18909       2   18906   18894   18912       2   18906   18921
   18945       2   18906   18921   18948       2   18903   18915   18933       8
   18903   18918   18939       8   18897   18876   18900       1   18894   18876
   18897       2   18894   18876   18900       2   18894   18906   18924       2
   18894   18906   18927       2   18885   18864   18888       8   18885   18867
   18891       8   18879   18858   18882       1   18876   18858   18879       2
   18876   18858   18882       2   18876   18894   18909       2   18876   18894
   18912       2   18867   18852   18870       4   18858   18876   18897       2
   18858   18876   18900       2   18855   18846   18861       4   18852   18867
   18891       4   18849   18864   18888       4   18846   18855   18873       4
   18840   18828   18843       4   18840   18855   18873       4   18840   18858
   18879      12   18840   18858   18882      12   18837   18852   18870       4
   18831   18846   18861       4   18819   18828   18843       4   19194   19185
   19197       1   19191   19185   19194       1   19191   19185   19197       1
   19185   19173   19188       2   19182   19173   19185       2   19182   19173
   19188       1   19176   19170   19179       1   19173   19170   19176       2
   19173   19170   19179       2   19173   19185   19191       2   19173   19185
   19194       2   19173   19185   19197       2   19170   19173   19182       2
   19170   19173   19188       2   19167   19152   19170       2   19164   19152
   19167       1   19164   19152   19170       2   19155   19134   19158       1
   19152   19134   19155       2   19152   19134   19158       2   19152   19170
   19176       2   19152   19170   19179       2   19143   19122   19146       4
   19143   19128   19149       4   19137   19113   19140       1   19134   19113
   19137       2   19134   19113   19140       2   19134   19152   19164       2
   19134   19152   19167       2   19128   19110   19131       4   19128   19143
   19161       4   19122   19107   19125       4   19122   19143   19161       4
   19116   19098   19119       1   19113   19098   19116       2   19113   19098
   19119       2   19113   19134   19155       2   19113   19134   19158       2
   19110   19128   19149       4   19107   19122   19146       4   19101   19086
   19104       1   19098   19086   19101       2   19098   19086   19104       2
   19098   19113   19137       2   19098   19113   19140       2   19095   19107
   19125       8   19095   19110   19131       8   19089   19068   19092       1
   19086   19068   19089       2   19086   19068   19092       2   19086   19098
   19116       2   19086   19098   19119       2   19077   19056   19080       8
   19077   19059   19083       8   19071   19050   19074       1   19068   19050
   19071       2   19068   19050   19074       2   19068   19086   19101       2
   19068   19086   19104       2   19059   19044   19062       4   19050   19068
   19089       2   19050   19068   19092       2   19047   19038   19053       4
   19044   19059   19083       4   19041   19056   19080       4   19038   19047
   19065       4   19032   19020   19035       4   19032   19047   19065       4
   19032   19050   19071      12   19032   19050   19074      12   19029   19044
   19062       4   19023   19038   19053       4   19011   19020   19035       4
   19386   19377   19389       1   19383   19377   19386       1   19383   19377
   19389       1   19377   19365   19380       2   19374   19365   19377       2
   19374   19365   19380       1   19368   19362   19371       1   19365   19362
   19368       2   19365   19362   19371       2   19365   19377   19383       2
   19365   19377   19386       2   19365   19377   19389       2   19362   19365
   19374       2   19362   19365   19380       2   19359   19344   19362       2
   19356   19344   19359       1   19356   19344   19362       2   19347   19326
   19350       1   19344   19326   19347       2   19344   19326   19350       2
   19344   19362   19368       2   19344   19362   19371       2   19335   19314
   19338       4   19335   19320   19341       4   19329   19305   19332       1
   19326   19305   19329       2   19326   19305   19332       2   19326   19344
   19356       2   19326   19344   19359       2   19320   19302   19323       4
   19320   19335   19353       4   19314   19299   19317       4   19314   19335
   19353       4   19308   19290   19311       1   19305   19290   19308       2
   19305   19290   19311       2   19305   19326   19347       2   19305   19326
   19350       2   19302   19320   19341       4   19299   19314   19338       4
   19293   19278   19296       1   19290   19278   19293       2   19290   19278
   19296       2   19290   19305   19329       2   19290   19305   19332       2
   19287   19299   19317       8   19287   19302   19323       8   19281   19260
   19284       1   19278   19260   19281       2   19278   19260   19284       2
   19278   19290   19308       2   19278   19290   19311       2   19269   19248
   19272       8   19269   19251   19275       8   19263   19242   19266       1
   19260   19242   19263       2   19260   19242   19266       2   19260   19278
   19293       2   19260   19278   19296       2   19251   19236   19254       4
   19242   19260   19281       2   19242   19260   19284       2   19239   19230
   19245       4   19236   19251   19275       4   19233   19248   19272       4
   19230   19239   19257       4   19224   19212   19227       4   19224   19239
   19257       4   19224   19242   19263      12   19224   19242   19266      12
   19221   19236   19254       4   19215   19230   19245       4   19203   19212
   19227       4   19578   19569   19581       1   19575   19569   19578       1
   19575   19569   19581       1   19569   19557   19572       2   19566   19557
   19569       2   19566   19557   19572       1   19560   19554   19563       1
   19557   19554   19560       2   19557   19554   19563       2   19557   19569
   19575       2   19557   19569   19578       2   19557   19569   19581       2
   19554   19557   19566       2   19554   19557   19572       2   19551   19536
   19554       2   19548   19536   19551       1   19548   19536   19554       2
   19539   19518   19542       1   19536   19518   19539       2   19536   19518
   19542       2   19536   19554   19560       2   19536   19554   19563       2
   19527   19506   19530       4   19527   19512   19533       4   19521   19497
   19524       1   19518   19497   19521       2   19518   19497   19524       2
   19518   19536   19548       2   19518   19536   19551       2   19512   19494
   19515       4   19512   19527   19545       4   19506   19491   19509       4
   19506   19527   19545       4   19500   19482   19503       1   19497   19482
   19500       2   19497   19482   19503       2   19497   19518   19539       2
   19497   19518   19542       2   19494   19512   19533       4   19491   19506
   19530       4   19485   19470   19488       1   19482   19470   19485       2
   19482   19470   19488       2   19482   19497   19521       2   19482   19497
   19524       2   19479   19491   19509       8   19479   19494   19515       8
   19473   19452   19476       1   19470   19452   19473       2   19470   19452
   19476       2   19470   19482   19500       2   19470   19482   19503       2
   19461   19440   19464       8   19461   19443   19467       8   19455   19434
   19458       1   19452   19434   19455       2   19452   19434   19458       2
   19452   19470   19485       2   19452   19470   19488       2   19443   19428
   19446       4   19434   19452   19473       2   19434   19452   19476       2
   19431   19422   19437       4   19428   19443   19467       4   19425   19440
   19464       4   19422   19431   19449       4   19416   19404   19419       4
   19416   19431   19449       4   19416   19434   19455      12   19416   19434
   19458      12   19413   19428   19446       4   19407   19422   19437       4
   19395   19404   19419       4   19770   19761   19773       1   19767   19761
   19770       1   19767   19761   19773       1   19761   19749   19764       2
   19758   19749   19761       2   19758   19749   19764       1   19752   19746
   19755       1   19749   19746   19752       2   19749   19746   19755       2
   19749   19761   19767       2   19749   19761   19770       2   19749   19761
   19773       2   19746   19749   19758       2   19746   19749   19764       2
   19743   19728   19746       2   19740   19728   19743       1   19740   19728
   19746       2   19731   19710   19734       1   19728   19710   19731       2
   19728   19710   19734       2   19728   19746   19752       2   19728   19746
   19755       2   19719   19698   19722       4   19719   19704   19725       4
   19713   19689   19716       1   19710   19689   19713       2   19710   19689
   19716       2   19710   19728   19740       2   19710   19728   19743       2
   19704   19686   19707       4   19704   19719   19737       4   19698   19683
   19701       4   19698   19719   19737       4   19692   19674   19695       1
   19689   19674   19692       2   19689   19674   19695       2   19689   19710
   19731       2   19689   19710   19734       2   19686   19704   19725       4
   19683   19698   19722       4   19677   19662   19680       1   19674   19662
   19677       2   19674   19662   19680       2   19674   19689   19713       2
   19674   19689   19716       2   19671   19683   19701       8   19671   19686
   19707       8   19665   19644   19668       1   19662   19644   19665       2
   19662   19644   19668       2   19662   19674   19692       2   19662   19674
   19695       2   19653   19632   19656       8   19653   19635   19659       8
   19647   19626   19650       1   19644   19626   19647       2   19644   19626
   19650       2   19644   19662   19677       2   19644   19662   19680       2
   19635   19620   19638       4   19626   19644   19665       2   19626   19644
   19668       2   19623   19614   19629       4   19620   19635   19659       4
   19617   19632   19656       4   19614   19623   19641       4   19608   19596
   19611       4   19608   19623   19641       4   19608   19626   19647      12
   19608   19626   19650      12   19605   19620   19638       4   19599   19614
   19629       4   19587   19596   19611       4   19962   19953   19965       1
   19959   19953   19962       1   19959   19953   19965       1   19953   19941
   19956       2   19950   19941   19953       2   19950   19941   19956       1
   19944   19938   19947       1   19941   19938   19944       2   19941   19938
   19947       2   19941   19953   19959       2   19941   19953   19962       2
   19941   19953   19965       2   19938   19941   19950       2   19938   19941
   19956       2   19935   19920   19938       2   19932   19920   19935       1
   19932   19920   19938       2   19923   19902   19926       1   19920   19902
   19923       2   19920   19902   19926       2   19920   19938   19944       2
   19920   19938   19947       2   19911   19890   19914       4   19911   19896
   19917       4   19905   19881   19908       1   19902   19881   19905       2
   19902   19881   19908       2   19902   19920   19932       2   19902   19920
   19935       2   19896   19878   19899       4   19896   19911   19929       4
   19890   19875   19893       4   19890   19911   19929       4   19884   19866
   19887       1   19881   19866   19884       2   19881   19866   19887       2
   19881   19902   19923       2   19881   19902   19926       2   19878   19896
   19917       4   19875   19890   19914       4   19869   19854   19872       1
   19866   19854   19869       2   19866   19854   19872       2   19866   19881
   19905       2   19866   19881   19908       2   19863   19875   19893       8
   19863   19878   19899       8   19857   19836   19860       1   19854   19836
   19857       2   19854   19836   19860       2   19854   19866   19884       2
   19854   19866   19887       2   19845   19824   19848       8   19845   19827
   19851       8   19839   19818   19842       1   19836   19818   19839       2
   19836   19818   19842       2   19836   19854   19869       2   19836   19854
   19872       2   19827   19812   19830       4   19818   19836   19857       2
   19818   19836   19860       2   19815   19806   19821       4   19812   19827
   19851       4   19809   19824   19848       4   19806   19815   19833       4
   19800   19788   19803       4   19800   19815   19833       4   19800   19818
   19839      12   19800   19818   19842      12   19797   19812   19830       4
   19791   19806   19821       4   19779   19788   19803       4   20154   20145
   20157       1   20151   20145   20154       1   20151   20145   20157       1
   20145   20133   20148       2   20142   20133   20145       2   20142   20133
   20148       1   20136   20130   20139       1   20133   20130   20136       2
   20133   20130   20139       2   20133   20145   20151       2   20133   20145
   20154       2   20133   20145   20157       2   20130   20133   20142       2
   20130   20133   20148       2   20127   20112   20130       2   20124   20112
   20127       1   20124   20112   20130       2   20115   20094   20118       1
   20112   20094   20115       2   20112   20094   20118       2   20112   20130
   20136       2   20112   20130   20139       2   20103   20082   20106       4
   20103   20088   20109       4   20097   20073   20100       1   20094   20073
   20097       2   20094   20073   20100       2   20094   20112   20124       2
   20094   20112   20127       2   20088   20070   20091       4   20088   20103
   20121       4   20082   20067   20085       4   20082   20103   20121       4
   20076   20058   20079       1   20073   20058   20076       2   20073   20058
   20079       2   20073   20094   20115       2   20073   20094   20118       2
   20070   20088   20109       4   20067   20082   20106       4   20061   20046
   20064       1   20058   20046   20061       2   20058   20046   20064       2
   20058   20073   20097       2   20058   20073   20100       2   20055   20067
   20085       8   20055   20070   20091       8   20049   20028   20052       1
   20046   20028   20049       2   20046   20028   20052       2   20046   20058
   20076       2   20046   20058   20079       2   20037   20016   20040       8
   20037   20019   20043       8   20031   20010   20034       1   20028   20010
   20031       2   20028   20010   20034       2   20028   20046   20061       2
   20028   20046   20064       2   20019   20004   20022       4   20010   20028
   20049       2   20010   20028   20052       2   20007   19998   20013       4
   20004   20019   20043       4   20001   20016   20040       4   19998   20007
   20025       4   19992   19980   19995       4   19992   20007   20025       4
   19992   20010   20031      12   19992   20010   20034      12   19989   20004
   20022       4   19983   19998   20013       4   19971   19980   19995       4
   20346   20337   20349       1   20343   20337   20346       1   20343   20337
   20349       1   20337   20325   20340       2   20334   20325   20337       2
   20334   20325   20340       1   20328   20322   20331       1   20325   20322
   20328       2   20325   20322   20331       2   20325   20337   20343       2
   20325   20337   20346       2   20325   20337   20349       2   20322   20325
   20334       2   20322   20325   20340       2   20319   20304   20322       2
   20316   20304   20319       1   20316   20304   20322       2   20307   20286
   20310       1   20304   20286   20307       2   20304   20286   20310       2
   20304   20322   20328       2   20304   20322   20331       2   20295   20274
   20298       4   20295   20280   20301       4   20289   20265   20292       1
   20286   20265   20289       2   20286   20265   20292       2   20286   20304
   20316       2   20286   20304   20319       2   20280   20262   20283       4
   20280   20295   20313       4   20274   20259   20277       4   20274   20295
   20313       4   20268   20250   20271       1   20265   20250   20268       2
   20265   20250   20271       2   20265   20286   20307       2   20265   20286
   20310       2   20262   20280   20301       4   20259   20274   20298       4
   20253   20238   20256       1   20250   20238   20253       2   20250   20238
   20256       2   20250   20265   20289       2   20250   20265   20292       2
   20247   20259   20277       8   20247   20262   20283       8   20241   20220
   20244       1   20238   20220   20241       2   20238   20220   20244       2
   20238   20250   20268       2   20238   20250   20271       2   20229   20208
   20232       8   20229   20211   20235       8   20223   20202   20226       1
   20220   20202   20223       2   20220   20202   20226       2   20220   20238
   20253       2   20220   20238   20256       2   20211   20196   20214       4
   20202   20220   20241       2   20202   20220   20244       2   20199   20190
   20205       4   20196   20211   20235       4   20193   20208   20232       4
   20190   20199   20217       4   20184   20172   20187       4   20184   20199
   20217       4   20184   20202   20223      12   20184   20202   20226      12
   20181   20196   20214       4   20175   20190   20205       4   20163   20172
   20187       4   20538   20529   20541       1   20535   20529   20538       1
   20535   20529   20541       1   20529   20517   20532       2   20526   20517
   20529       2   20526   20517   20532       1   20520   20514   20523       1
   20517   20514   20520       2   20517   20514   20523       2   20517   20529
   20535       2   20517   20529   20538       2   20517   20529   20541       2
   20514   20517   20526       2   20514   20517   20532       2   20511   20496
   20514       2   20508   20496   20511       1   20508   20496   20514       2
   20499   20478   20502       1   20496   20478   20499       2   20496   20478
   20502       2   20496   20514   20520       2   20496   20514   20523       2
   20487   20466   20490       4   20487   20472   20493       4   20481   20457
   20484       1   20478   20457   20481       2   20478   20457   20484       2
   20478   20496   20508       2   20478   20496   20511       2   20472   20454
   20475       4   20472   20487   20505       4   20466   20451   20469       4
   20466   20487   20505       4   20460   20442   20463       1   20457   20442
   20460       2   20457   20442   20463       2   20457   20478   20499       2
   20457   20478   20502       2   20454   20472   20493       4   20451   20466
   20490       4   20445   20430   20448       1   20442   20430   20445       2
   20442   20430   20448       2   20442   20457   20481       2   20442   20457
   20484       2   20439   20451   20469       8   20439   20454   20475       8
   20433   20412   20436       1   20430   20412   20433       2   20430   20412
   20436       2   20430   20442   20460       2   20430   20442   20463       2
   20421   20400   20424       8   20421   20403   20427       8   20415   20394
   20418       1   20412   20394   20415       2   20412   20394   20418       2
   20412   20430   20445       2   20412   20430   20448       2   20403   20388
   20406       4   20394   20412   20433       2   20394   20412   20436       2
   20391   20382   20397       4   20388   20403   20427       4   20385   20400
   20424       4   20382   20391   20409       4   20376   20364   20379       4
   20376   20391   20409       4   20376   20394   20415      12   20376   20394
   20418      12   20373   20388   20406       4   20367   20382   20397       4
   20355   20364   20379       4   20730   20721   20733       1   20727   20721
   20730       1   20727   20721   20733       1   20721   20709   20724       2
   20718   20709   20721       2   20718   20709   20724       1   20712   20706
   20715       1   20709   20706   20712       2   20709   20706   20715       2
   20709   20721   20727       2   20709   20721   20730       2   20709   20721
   20733       2   20706   20709   20718       2   20706   20709   20724       2
   20703   20688   20706       2   20700   20688   20703       1   20700   20688
   20706       2   20691   20670   20694       1   20688   20670   20691       2
   20688   20670   20694       2   20688   20706   20712       2   20688   20706
   20715       2   20679   20658   20682       4   20679   20664   20685       4
   20673   20649   20676       1   20670   20649   20673       2   20670   20649
   20676       2   20670   20688   20700       2   20670   20688   20703       2
   20664   20646   20667       4   20664   20679   20697       4   20658   20643
   20661       4   20658   20679   20697       4   20652   20634   20655       1
   20649   20634   20652       2   20649   20634   20655       2   20649   20670
   20691       2   20649   20670   20694       2   20646   20664   20685       4
   20643   20658   20682       4   20637   20622   20640       1   20634   20622
   20637       2   20634   20622   20640       2   20634   20649   20673       2
   20634   20649   20676       2   20631   20643   20661       8   20631   20646
   20667       8   20625   20604   20628       1   20622   20604   20625       2
   20622   20604   20628       2   20622   20634   20652       2   20622   20634
   20655       2   20613   20592   20616       8   20613   20595   20619       8
   20607   20586   20610       1   20604   20586   20607       2   20604   20586
   20610       2   20604   20622   20637       2   20604   20622   20640       2
   20595   20580   20598       4   20586   20604   20625       2   20586   20604
   20628       2   20583   20574   20589       4   20580   20595   20619       4
   20577   20592   20616       4   20574   20583   20601       4   20568   20556
   20571       4   20568   20583   20601       4   20568   20586   20607      12
   20568   20586   20610      12   20565   20580   20598       4   20559   20574
   20589       4   20547   20556   20571       4   20922   20913   20925       1
   20919   20913   20922       1   20919   20913   20925       1   20913   20901
   20916       2   20910   20901   20913       2   20910   20901   20916       1
   20904   20898   20907       1   20901   20898   20904       2   20901   20898
   20907       2   20901   20913   20919       2   20901   20913   20922       2
   20901   20913   20925       2   20898   20901   20910       2   20898   20901
   20916       2   20895   20880   20898       2   20892   20880   20895       1
   20892   20880   20898       2   20883   20862   20886       1   20880   20862
   20883       2   20880   20862   20886       2   20880   20898   20904       2
   20880   20898   20907       2   20871   20850   20874       4   20871   20856
   20877       4   20865   20841   20868       1   20862   20841   20865       2
   20862   20841   20868       2   20862   20880   20892       2   20862   20880
   20895       2   20856   20838   20859       4   20856   20871   20889       4
   20850   20835   20853       4   20850   20871   20889       4   20844   20826
   20847       1   20841   20826   20844       2   20841   20826   20847       2
   20841   20862   20883       2   20841   20862   20886       2   20838   20856
   20877       4   20835   20850   20874       4   20829   20814   20832       1
   20826   20814   20829       2   20826   20814   20832       2   20826   20841
   20865       2   20826   20841   20868       2   20823   20835   20853       8
   20823   20838   20859       8   20817   20796   20820       1   20814   20796
   20817       2   20814   20796   20820       2   20814   20826   20844       2
   20814   20826   20847       2   20805   20784   20808       8   20805   20787
   20811       8   20799   20778   20802       1   20796   20778   20799       2
   20796   20778   20802       2   20796   20814   20829       2   20796   20814
   20832       2   20787   20772   20790       4   20778   20796   20817       2
   20778   20796   20820       2   20775   20766   20781       4   20772   20787
   20811       4   20769   20784   20808       4   20766   20775   20793       4
   20760   20748   20763       4   20760   20775   20793       4   20760   20778
   20799      12   20760   20778   20802      12   20757   20772   20790       4
   20751   20766   20781       4   20739   20748   20763       4   21114   21105
   21117       1   21111   21105   21114       1   21111   21105   21117       1
   21105   21093   21108       2   21102   21093   21105       2   21102   21093
   21108       1   21096   21090   21099       1   21093   21090   21096       2
   21093   21090   21099       2   21093   21105   21111       2   21093   21105
   21114       2   21093   21105   21117       2   21090   21093   21102       2
   21090   21093   21108       2   21087   21072   21090       2   21084   21072
   21087       1   21084   21072   21090       2   21075   21054   21078       1
   21072   21054   21075       2   21072   21054   21078       2   21072   21090
   21096       2   21072   21090   21099       2   21063   21042   21066       4
   21063   21048   21069       4   21057   21033   21060       1   21054   21033
   21057       2   21054   21033   21060       2   21054   21072   21084       2
   21054   21072   21087       2   21048   21030   21051       4   21048   21063
   21081       4   21042   21027   21045       4   21042   21063   21081       4
   21036   21018   21039       1   21033   21018   21036       2   21033   21018
   21039       2   21033   21054   21075       2   21033   21054   21078       2
   21030   21048   21069       4   21027   21042   21066       4   21021   21006
   21024       1   21018   21006   21021       2   21018   21006   21024       2
   21018   21033   21057       2   21018   21033   21060       2   21015   21027
   21045       8   21015   21030   21051       8   21009   20988   21012       1
   21006   20988   21009       2   21006   20988   21012       2   21006   21018
   21036       2   21006   21018   21039       2   20997   20976   21000       8
   20997   20979   21003       8   20991   20970   20994       1   20988   20970
   20991       2   20988   20970   20994       2   20988   21006   21021       2
   20988   21006   21024       2   20979   20964   20982       4   20970   20988
   21009       2   20970   20988   21012       2   20967   20958   20973       4
   20964   20979   21003       4   20961   20976   21000       4   20958   20967
   20985       4   20952   20940   20955       4   20952   20967   20985       4
   20952   20970   20991      12   20952   20970   20994      12   20949   20964
   20982       4   20943   20958   20973       4   20931   20940   20955       4
   21306   21297   21309       1   21303   21297   21306       1   21303   21297
   21309       1   21297   21285   21300       2   21294   21285   21297       2
   21294   21285   21300       1   21288   21282   21291       1   21285   21282
   21288       2   21285   21282   21291       2   21285   21297   21303       2
   21285   21297   21306       2   21285   21297   21309       2   21282   21285
   21294       2   21282   21285   21300       2   21279   21264   21282       2
   21276   21264   21279       1   21276   21264   21282       2   21267   21246
   21270       1   21264   21246   21267       2   21264   21246   21270       2
   21264   21282   21288       2   21264   21282   21291       2   21255   21234
   21258       4   21255   21240   21261       4   21249   21225   21252       1
   21246   21225   21249       2   21246   21225   21252       2   21246   21264
   21276       2   21246   21264   21279       2   21240   21222   21243       4
   21240   21255   21273       4   21234   21219   21237       4   21234   21255
   21273       4   21228   21210   21231       1   21225   21210   21228       2
   21225   21210   21231       2   21225   21246   21267       2   21225   21246
   21270       2   21222   21240   21261       4   21219   21234   21258       4
   21213   21198   21216       1   21210   21198   21213       2   21210   21198
   21216       2   21210   21225   21249       2   21210   21225   21252       2
   21207   21219   21237       8   21207   21222   21243       8   21201   21180
   21204       1   21198   21180   21201       2   21198   21180   21204       2
   21198   21210   21228       2   21198   21210   21231       2   21189   21168
   21192       8   21189   21171   21195       8   21183   21162   21186       1
   21180   21162   21183       2   21180   21162   21186       2   21180   21198
   21213       2   21180   21198   21216       2   21171   21156   21174       4
   21162   21180   21201       2   21162   21180   21204       2   21159   21150
   21165       4   21156   21171   21195       4   21153   21168   21192       4
   21150   21159   21177       4   21144   21132   21147       4   21144   21159
   21177       4   21144   21162   21183      12   21144   21162   21186      12
   21141   21156   21174       4   21135   21150   21165       4   21123   21132
   21147       4   21498   21489   21501       1   21495   21489   21498       1
   21495   21489   21501       1   21489   21477   21492       2   21486   21477
   21489       2   21486   21477   21492       1   21480   21474   21483       1
   21477   21474   21480       2   21477   21474   21483       2   21477   21489
   21495       2   21477   21489   21498       2   21477   21489   21501       2
   21474   21477   21486       2   21474   21477   21492       2   21471   21456
   21474       2   21468   21456   21471       1   21468   21456   21474       2
   21459   21438   21462       1   21456   21438   21459       2   21456   21438
   21462       2   21456   21474   21480       2   21456   21474   21483       2
   21447   21426   21450       4   21447   21432   21453       4   21441   21417
   21444       1   21438   21417   21441       2   21438   21417   21444       2
   21438   21456   21468       2   21438   21456   21471       2   21432   21414
   21435       4   21432   21447   21465       4   21426   21411   21429       4
   21426   21447   21465       4   21420   21402   21423       1   21417   21402
   21420       2   21417   21402   21423       2   21417   21438   21459       2
   21417   21438   21462       2   21414   21432   21453       4   21411   21426
   21450       4   21405   21390   21408       1   21402   21390   21405       2
   21402   21390   21408       2   21402   21417   21441       2   21402   21417
   21444       2   21399   21411   21429       8   21399   21414   21435       8
   21393   21372   21396       1   21390   21372   21393       2   21390   21372
   21396       2   21390   21402   21420       2   21390   21402   21423       2
   21381   21360   21384       8   21381   21363   21387       8   21375   21354
   21378       1   21372   21354   21375       2   21372   21354   21378       2
   21372   21390   21405       2   21372   21390   21408       2   21363   21348
   21366       4   21354   21372   21393       2   21354   21372   21396       2
   21351   21342   21357       4   21348   21363   21387       4   21345   21360
   21384       4   21342   21351   21369       4   21336   21324   21339       4
   21336   21351   21369       4   21336   21354   21375      12   21336   21354
   21378      12   21333   21348   21366       4   21327   21342   21357       4
   21315   21324   21339       4   21690   21681   21693       1   21687   21681
   21690       1   21687   21681   21693       1   21681   21669   21684       2
   21678   21669   21681       2   21678   21669   21684       1   21672   21666
   21675       1   21669   21666   21672       2   21669   21666   21675       2
   21669   21681   21687       2   21669   21681   21690       2   21669   21681
   21693       2   21666   21669   21678       2   21666   21669   21684       2
   21663   21648   21666       2   21660   21648   21663       1   21660   21648
   21666       2   21651   21630   21654       1   21648   21630   21651       2
   21648   21630   21654       2   21648   21666   21672       2   21648   21666
   21675       2   21639   21618   21642       4   21639   21624   21645       4
   21633   21609   21636       1   21630   21609   21633       2   21630   21609
   21636       2   21630   21648   21660       2   21630   21648   21663       2
   21624   21606   21627       4   21624   21639   21657       4   21618   21603
   21621       4   21618   21639   21657       4   21612   21594   21615       1
   21609   21594   21612       2   21609   21594   21615       2   21609   21630
   21651       2   21609   21630   21654       2   21606   21624   21645       4
   21603   21618   21642       4   21597   21582   21600       1   21594   21582
   21597       2   21594   21582   21600       2   21594   21609   21633       2
   21594   21609   21636       2   21591   21603   21621       8   21591   21606
   21627       8   21585   21564   21588       1   21582   21564   21585       2
   21582   21564   21588       2   21582   21594   21612       2   21582   21594
   21615       2   21573   21552   21576       8   21573   21555   21579       8
   21567   21546   21570       1   21564   21546   21567       2   21564   21546
   21570       2   21564   21582   21597       2   21564   21582   21600       2
   21555   21540   21558       4   21546   21564   21585       2   21546   21564
   21588       2   21543   21534   21549       4   21540   21555   21579       4
   21537   21552   21576       4   21534   21543   21561       4   21528   21516
   21531       4   21528   21543   21561       4   21528   21546   21567      12
   21528   21546   21570      12   21525   21540   21558       4   21519   21534
   21549       4   21507   21516   21531       4   21882   21873   21885       1
   21879   21873   21882       1   21879   21873   21885       1   21873   21861
   21876       2   21870   21861   21873       2   21870   21861   21876       1
   21864   21858   21867       1   21861   21858   21864       2   21861   21858
   21867       2   21861   21873   21879       2   21861   21873   21882       2
   21861   21873   21885       2   21858   21861   21870       2   21858   21861
   21876       2   21855   21840   21858       2   21852   21840   21855       1
   21852   21840   21858       2   21843   21822   21846       1   21840   21822
   21843       2   21840   21822   21846       2   21840   21858   21864       2
   21840   21858   21867       2   21831   21810   21834       4   21831   21816
   21837       4   21825   21801   21828       1   21822   21801   21825       2
   21822   21801   21828       2   21822   21840   21852       2   21822   21840
   21855       2   21816   21798   21819       4   21816   21831   21849       4
   21810   21795   21813       4   21810   21831   21849       4   21804   21786
   21807       1   21801   21786   21804       2   21801   21786   21807       2
   21801   21822   21843       2   21801   21822   21846       2   21798   21816
   21837       4   21795   21810   21834       4   21789   21774   21792       1
   21786   21774   21789       2   21786   21774   21792       2   21786   21801
   21825       2   21786   21801   21828       2   21783   21795   21813       8
   21783   21798   21819       8   21777   21756   21780       1   21774   21756
   21777       2   21774   21756   21780       2   21774   21786   21804       2
   21774   21786   21807       2   21765   21744   21768       8   21765   21747
   21771       8   21759   21738   21762       1   21756   21738   21759       2
   21756   21738   21762       2   21756   21774   21789       2   21756   21774
   21792       2   21747   21732   21750       4   21738   21756   21777       2
   21738   21756   21780       2   21735   21726   21741       4   21732   21747
   21771       4   21729   21744   21768       4   21726   21735   21753       4
   21720   21708   21723       4   21720   21735   21753       4   21720   21738
   21759      12   21720   21738   21762      12   21717   21732   21750       4
   21711   21726   21741       4   21699   21708   21723       4   22074   22065
   22077       1   22071   22065   22074       1   22071   22065   22077       1
   22065   22053   22068       2   22062   22053   22065       2   22062   22053
   22068       1   22056   22050   22059       1   22053   22050   22056       2
   22053   22050   22059       2   22053   22065   22071       2   22053   22065
   22074       2   22053   22065   22077       2   22050   22053   22062       2
   22050   22053   22068       2   22047   22032   22050       2   22044   22032
   22047       1   22044   22032   22050       2   22035   22014   22038       1
   22032   22014   22035       2   22032   22014   22038       2   22032   22050
   22056       2   22032   22050   22059       2   22023   22002   22026       4
   22023   22008   22029       4   22017   21993   22020       1   22014   21993
   22017       2   22014   21993   22020       2   22014   22032   22044       2
   22014   22032   22047       2   22008   21990   22011       4   22008   22023
   22041       4   22002   21987   22005       4   22002   22023   22041       4
   21996   21978   21999       1   21993   21978   21996       2   21993   21978
   21999       2   21993   22014   22035       2   21993   22014   22038       2
   21990   22008   22029       4   21987   22002   22026       4   21981   21966
   21984       1   21978   21966   21981       2   21978   21966   21984       2
   21978   21993   22017       2   21978   21993   22020       2   21975   21987
   22005       8   21975   21990   22011       8   21969   21948   21972       1
   21966   21948   21969       2   21966   21948   21972       2   21966   21978
   21996       2   21966   21978   21999       2   21957   21936   21960       8
   21957   21939   21963       8   21951   21930   21954       1   21948   21930
   21951       2   21948   21930   21954       2   21948   21966   21981       2
   21948   21966   21984       2   21939   21924   21942       4   21930   21948
   21969       2   21930   21948   21972       2   21927   21918   21933       4
   21924   21939   21963       4   21921   21936   21960       4   21918   21927
   21945       4   21912   21900   21915       4   21912   21927   21945       4
   21912   21930   21951      12   21912   21930   21954      12   21909   21924
   21942       4   21903   21918   21933       4   21891   21900   21915       4
   22266   22257   22269       1   22263   22257   22266       1   22263   22257
   22269       1   22257   22245   22260       2   22254   22245   22257       2
   22254   22245   22260       1   22248   22242   22251       1   22245   22242
   22248       2   22245   22242   22251       2   22245   22257   22263       2
   22245   22257   22266       2   22245   22257   22269       2   22242   22245
   22254       2   22242   22245   22260       2   22239   22224   22242       2
   22236   22224   22239       1   22236   22224   22242       2   22227   22206
   22230       1   22224   22206   22227       2   22224   22206   22230       2
   22224   22242   22248       2   22224   22242   22251       2   22215   22194
   22218       4   22215   22200   22221       4   22209   22185   22212       1
   22206   22185   22209       2   22206   22185   22212       2   22206   22224
   22236       2   22206   22224   22239       2   22200   22182   22203       4
   22200   22215   22233       4   22194   22179   22197       4   22194   22215
   22233       4   22188   22170   22191       1   22185   22170   22188       2
   22185   22170   22191       2   22185   22206   22227       2   22185   22206
   22230       2   22182   22200   22221       4   22179   22194   22218       4
   22173   22158   22176       1   22170   22158   22173       2   22170   22158
   22176       2   22170   22185   22209       2   22170   22185   22212       2
   22167   22179   22197       8   22167   22182   22203       8   22161   22140
   22164       1   22158   22140   22161       2   22158   22140   22164       2
   22158   22170   22188       2   22158   22170   22191       2   22149   22128
   22152       8   22149   22131   22155       8   22143   22122   22146       1
   22140   22122   22143       2   22140   22122   22146       2   22140   22158
   22173       2   22140   22158   22176       2   22131   22116   22134       4
   22122   22140   22161       2   22122   22140   22164       2   22119   22110
   22125       4   22116   22131   22155       4   22113   22128   22152       4
   22110   22119   22137       4   22104   22092   22107       4   22104   22119
   22137       4   22104   22122   22143      12   22104   22122   22146      12
   22101   22116   22134       4   22095   22110   22125       4   22083   22092
   22107       4   22458   22449   22461       1   22455   22449   22458       1
   22455   22449   22461       1   22449   22437   22452       2   22446   22437
   22449       2   22446   22437   22452       1   22440   22434   22443       1
   22437   22434   22440       2   22437   22434   22443       2   22437   22449
   22455       2   22437   22449   22458       2   22437   22449   22461       2
   22434   22437   22446       2   22434   22437   22452       2   22431   22416
   22434       2   22428   22416   22431       1   22428   22416   22434       2
   22419   22398   22422       1   22416   22398   22419       2   22416   22398
   22422       2   22416   22434   22440       2   22416   22434   22443       2
   22407   22386   22410       4   22407   22392   22413       4   22401   22377
   22404       1   22398   22377   22401       2   22398   22377   22404       2
   22398   22416   22428       2   22398   22416   22431       2   22392   22374
   22395       4   22392   22407   22425       4   22386   22371   22389       4
   22386   22407   22425       4   22380   22362   22383       1   22377   22362
   22380       2   22377   22362   22383       2   22377   22398   22419       2
   22377   22398   22422       2   22374   22392   22413       4   22371   22386
   22410       4   22365   22350   22368       1   22362   22350   22365       2
   22362   22350   22368       2   22362   22377   22401       2   22362   22377
   22404       2   22359   22371   22389       8   22359   22374   22395       8
   22353   22332   22356       1   22350   22332   22353       2   22350   22332
   22356       2   22350   22362   22380       2   22350   22362   22383       2
   22341   22320   22344       8   22341   22323   22347       8   22335   22314
   22338       1   22332   22314   22335       2   22332   22314   22338       2
   22332   22350   22365       2   22332   22350   22368       2   22323   22308
   22326       4   22314   22332   22353       2   22314   22332   22356       2
   22311   22302   22317       4   22308   22323   22347       4   22305   22320
   22344       4   22302   22311   22329       4   22296   22284   22299       4
   22296   22311   22329       4   22296   22314   22335      12   22296   22314
   22338      12   22293   22308   22326       4   22287   22302   22317       4
   22275   22284   22299       4   22650   22641   22653       1   22647   22641
   22650       1   22647   22641   22653       1   22641   22629   22644       2
   22638   22629   22641       2   22638   22629   22644       1   22632   22626
   22635       1   22629   22626   22632       2   22629   22626   22635       2
   22629   22641   22647       2   22629   22641   22650       2   22629   22641
   22653       2   22626   22629   22638       2   22626   22629   22644       2
   22623   22608   22626       2   22620   22608   22623       1   22620   22608
   22626       2   22611   22590   22614       1   22608   22590   22611       2
   22608   22590   22614       2   22608   22626   22632       2   22608   22626
   22635       2   22599   22578   22602       4   22599   22584   22605       4
   22593   22569   22596       1   22590   22569   22593       2   22590   22569
   22596       2   22590   22608   22620       2   22590   22608   22623       2
   22584   22566   22587       4   22584   22599   22617       4   22578   22563
   22581       4   22578   22599   22617       4   22572   22554   22575       1
   22569   22554   22572       2   22569   22554   22575       2   22569   22590
   22611       2   22569   22590   22614       2   22566   22584   22605       4
   22563   22578   22602       4   22557   22542   22560       1   22554   22542
   22557       2   22554   22542   22560       2   22554   22569   22593       2
   22554   22569   22596       2   22551   22563   22581       8   22551   22566
   22587       8   22545   22524   22548       1   22542   22524   22545       2
   22542   22524   22548       2   22542   22554   22572       2   22542   22554
   22575       2   22533   22512   22536       8   22533   22515   22539       8
   22527   22506   22530       1   22524   22506   22527       2   22524   22506
   22530       2   22524   22542   22557       2   22524   22542   22560       2
   22515   22500   22518       4   22506   22524   22545       2   22506   22524
   22548       2   22503   22494   22509       4   22500   22515   22539       4
   22497   22512   22536       4   22494   22503   22521       4   22488   22476
   22491       4   22488   22503   22521       4   22488   22506   22527      12
   22488   22506   22530      12   22485   22500   22518       4   22479   22494
   22509       4   22467   22476   22491       4   22842   22833   22845       1
   22839   22833   22842       1   22839   22833   22845       1   22833   22821
   22836       2   22830   22821   22833       2   22830   22821   22836       1
   22824   22818   22827       1   22821   22818   22824       2   22821   22818
   22827       2   22821   22833   22839       2   22821   22833   22842       2
   22821   22833   22845       2   22818   22821   22830       2   22818   22821
   22836       2   22815   22800   22818       2   22812   22800   22815       1
   22812   22800   22818       2   22803   22782   22806       1   22800   22782
   22803       2   22800   22782   22806       2   22800   22818   22824       2
   22800   22818   22827       2   22791   22770   22794       4   22791   22776
   22797       4   22785   22761   22788       1   22782   22761   22785       2
   22782   22761   22788       2   22782   22800   22812       2   22782   22800
   22815       2   22776   22758   22779       4   22776   22791   22809       4
   22770   22755   22773       4   22770   22791   22809       4   22764   22746
   22767       1   22761   22746   22764       2   22761   22746   22767       2
   22761   22782   22803       2   22761   22782   22806       2   22758   22776
   22797       4   22755   22770   22794       4   22749   22734   22752       1
   22746   22734   22749       2   22746   22734   22752       2   22746   22761
   22785       2   22746   22761   22788       2   22743   22755   22773       8
   22743   22758   22779       8   22737   22716   22740       1   22734   22716
   22737       2   22734   22716   22740       2   22734   22746   22764       2
   22734   22746   22767       2   22725   22704   22728       8   22725   22707
   22731       8   22719   22698   22722       1   22716   22698   22719       2
   22716   22698   22722       2   22716   22734   22749       2   22716   22734
   22752       2   22707   22692   22710       4   22698   22716   22737       2
   22698   22716   22740       2   22695   22686   22701       4   22692   22707
   22731       4   22689   22704   22728       4   22686   22695   22713       4
   22680   22668   22683       4   22680   22695   22713       4   22680   22698
   22719      12   22680   22698   22722      12   22677   22692   22710       4
   22671   22686   22701       4   22659   22668   22683       4   23034   23025
   23037       1   23031   23025   23034       1   23031   23025   23037       1
   23025   23013   23028       2   23022   23013   23025       2   23022   23013
   23028       1   23016   23010   23019       1   23013   23010   23016       2
   23013   23010   23019       2   23013   23025   23031       2   23013   23025
   23034       2   23013   23025   23037       2   23010   23013   23022       2
   23010   23013   23028       2   23007   22992   23010       2   23004   22992
   23007       1   23004   22992   23010       2   22995   22974   22998       1
   22992   22974   22995       2   22992   22974   22998       2   22992   23010
   23016       2   22992   23010   23019       2   22983   22962   22986       4
   22983   22968   22989       4   22977   22953   22980       1   22974   22953
   22977       2   22974   22953   22980       2   22974   22992   23004       2
   22974   22992   23007       2   22968   22950   22971       4   22968   22983
   23001       4   22962   22947   22965       4   22962   22983   23001       4
   22956   22938   22959       1   22953   22938   22956       2   22953   22938
   22959       2   22953   22974   22995       2   22953   22974   22998       2
   22950   22968   22989       4   22947   22962   22986       4   22941   22926
   22944       1   22938   22926   22941       2   22938   22926   22944       2
   22938   22953   22977       2   22938   22953   22980       2   22935   22947
   22965       8   22935   22950   22971       8   22929   22908   22932       1
   22926   22908   22929       2   22926   22908   22932       2   22926   22938
   22956       2   22926   22938   22959       2   22917   22896   22920       8
   22917   22899   22923       8   22911   22890   22914       1   22908   22890
   22911       2   22908   22890   22914       2   22908   22926   22941       2
   22908   22926   22944       2   22899   22884   22902       4   22890   22908
   22929       2   22890   22908   22932       2   22887   22878   22893       4
   22884   22899   22923       4   22881   22896   22920       4   22878   22887
   22905       4   22872   22860   22875       4   22872   22887   22905       4
   22872   22890   22911      12   22872   22890   22914      12   22869   22884
   22902       4   22863   22878   22893       4   22851   22860   22875       4
   23226   23217   23229       1   23223   23217   23226       1   23223   23217
   23229       1   23217   23205   23220       2   23214   23205   23217       2
   23214   23205   23220       1   23208   23202   23211       1   23205   23202
   23208       2   23205   23202   23211       2   23205   23217   23223       2
   23205   23217   23226       2   23205   23217   23229       2   23202   23205
   23214       2   23202   23205   23220       2   23199   23184   23202       2
   23196   23184   23199       1   23196   23184   23202       2   23187   23166
   23190       1   23184   23166   23187       2   23184   23166   23190       2
   23184   23202   23208       2   23184   23202   23211       2   23175   23154
   23178       4   23175   23160   23181       4   23169   23145   23172       1
   23166   23145   23169       2   23166   23145   23172       2   23166   23184
   23196       2   23166   23184   23199       2   23160   23142   23163       4
   23160   23175   23193       4   23154   23139   23157       4   23154   23175
   23193       4   23148   23130   23151       1   23145   23130   23148       2
   23145   23130   23151       2   23145   23166   23187       2   23145   23166
   23190       2   23142   23160   23181       4   23139   23154   23178       4
   23133   23118   23136       1   23130   23118   23133       2   23130   23118
   23136       2   23130   23145   23169       2   23130   23145   23172       2
   23127   23139   23157       8   23127   23142   23163       8   23121   23100
   23124       1   23118   23100   23121       2   23118   23100   23124       2
   23118   23130   23148       2   23118   23130   23151       2   23109   23088
   23112       8   23109   23091   23115       8   23103   23082   23106       1
   23100   23082   23103       2   23100   23082   23106       2   23100   23118
   23133       2   23100   23118   23136       2   23091   23076   23094       4
   23082   23100   23121       2   23082   23100   23124       2   23079   23070
   23085       4   23076   23091   23115       4   23073   23088   23112       4
   23070   23079   23097       4   23064   23052   23067       4   23064   23079
   23097       4   23064   23082   23103      12   23064   23082   23106      12
   23061   23076   23094       4   23055   23070   23085       4   23043   23052
   23067       4   23418   23409   23421       1   23415   23409   23418       1
   23415   23409   23421       1   23409   23397   23412       2   23406   23397
   23409       2   23406   23397   23412       1   23400   23394   23403       1
   23397   23394   23400       2   23397   23394   23403       2   23397   23409
   23415       2   23397   23409   23418       2   23397   23409   23421       2
   23394   23397   23406       2   23394   23397   23412       2   23391   23376
   23394       2   23388   23376   23391       1   23388   23376   23394       2
   23379   23358   23382       1   23376   23358   23379       2   23376   23358
   23382       2   23376   23394   23400       2   23376   23394   23403       2
   23367   23346   23370       4   23367   23352   23373       4   23361   23337
   23364       1   23358   23337   23361       2   23358   23337   23364       2
   23358   23376   23388       2   23358   23376   23391       2   23352   23334
   23355       4   23352   23367   23385       4   23346   23331   23349       4
   23346   23367   23385       4   23340   23322   23343       1   23337   23322
   23340       2   23337   23322   23343       2   23337   23358   23379       2
   23337   23358   23382       2   23334   23352   23373       4   23331   23346
   23370       4   23325   23310   23328       1   23322   23310   23325       2
   23322   23310   23328       2   23322   23337   23361       2   23322   23337
   23364       2   23319   23331   23349       8   23319   23334   23355       8
   23313   23292   23316       1   23310   23292   23313       2   23310   23292
   23316       2   23310   23322   23340       2   23310   23322   23343       2
   23301   23280   23304       8   23301   23283   23307       8   23295   23274
   23298       1   23292   23274   23295       2   23292   23274   23298       2
   23292   23310   23325       2   23292   23310   23328       2   23283   23268
   23286       4   23274   23292   23313       2   23274   23292   23316       2
   23271   23262   23277       4   23268   23283   23307       4   23265   23280
   23304       4   23262   23271   23289       4   23256   23244   23259       4
   23256   23271   23289       4   23256   23274   23295      12   23256   23274
   23298      12   23253   23268   23286       4   23247   23262   23277       4
   23235   23244   23259       4   23610   23601   23613       1   23607   23601
   23610       1   23607   23601   23613       1   23601   23589   23604       2
   23598   23589   23601       2   23598   23589   23604       1   23592   23586
   23595       1   23589   23586   23592       2   23589   23586   23595       2
   23589   23601   23607       2   23589   23601   23610       2   23589   23601
   23613       2   23586   23589   23598       2   23586   23589   23604       2
   23583   23568   23586       2   23580   23568   23583       1   23580   23568
   23586       2   23571   23550   23574       1   23568   23550   23571       2
   23568   23550   23574       2   23568   23586   23592       2   23568   23586
   23595       2   23559   23538   23562       4   23559   23544   23565       4
   23553   23529   23556       1   23550   23529   23553       2   23550   23529
   23556       2   23550   23568   23580       2   23550   23568   23583       2
   23544   23526   23547       4   23544   23559   23577       4   23538   23523
   23541       4   23538   23559   23577       4   23532   23514   23535       1
   23529   23514   23532       2   23529   23514   23535       2   23529   23550
   23571       2   23529   23550   23574       2   23526   23544   23565       4
   23523   23538   23562       4   23517   23502   23520       1   23514   23502
   23517       2   23514   23502   23520       2   23514   23529   23553       2
   23514   23529   23556       2   23511   23523   23541       8   23511   23526
   23547       8   23505   23484   23508       1   23502   23484   23505       2
   23502   23484   23508       2   23502   23514   23532       2   23502   23514
   23535       2   23493   23472   23496       8   23493   23475   23499       8
   23487   23466   23490       1   23484   23466   23487       2   23484   23466
   23490       2   23484   23502   23517       2   23484   23502   23520       2
   23475   23460   23478       4   23466   23484   23505       2   23466   23484
   23508       2   23463   23454   23469       4   23460   23475   23499       4
   23457   23472   23496       4   23454   23463   23481       4   23448   23436
   23451       4   23448   23463   23481       4   23448   23466   23487      12
   23448   23466   23490      12   23445   23460   23478       4   23439   23454
   23469       4   23427   23436   23451       4   23802   23793   23805       1
   23799   23793   23802       1   23799   23793   23805       1   23793   23781
   23796       2   23790   23781   23793       2   23790   23781   23796       1
   23784   23778   23787       1   23781   23778   23784       2   23781   23778
   23787       2   23781   23793   23799       2   23781   23793   23802       2
   23781   23793   23805       2   23778   23781   23790       2   23778   23781
   23796       2   23775   23760   23778       2   23772   23760   23775       1
   23772   23760   23778       2   23763   23742   23766       1   23760   23742
   23763       2   23760   23742   23766       2   23760   23778   23784       2
   23760   23778   23787       2   23751   23730   23754       4   23751   23736
   23757       4   23745   23721   23748       1   23742   23721   23745       2
   23742   23721   23748       2   23742   23760   23772       2   23742   23760
   23775       2   23736   23718   23739       4   23736   23751   23769       4
   23730   23715   23733       4   23730   23751   23769       4   23724   23706
   23727       1   23721   23706   23724       2   23721   23706   23727       2
   23721   23742   23763       2   23721   23742   23766       2   23718   23736
   23757       4   23715   23730   23754       4   23709   23694   23712       1
   23706   23694   23709       2   23706   23694   23712       2   23706   23721
   23745       2   23706   23721   23748       2   23703   23715   23733       8
   23703   23718   23739       8   23697   23676   23700       1   23694   23676
   23697       2   23694   23676   23700       2   23694   23706   23724       2
   23694   23706   23727       2   23685   23664   23688       8   23685   23667
   23691       8   23679   23658   23682       1   23676   23658   23679       2
   23676   23658   23682       2   23676   23694   23709       2   23676   23694
   23712       2   23667   23652   23670       4   23658   23676   23697       2
   23658   23676   23700       2   23655   23646   23661       4   23652   23667
   23691       4   23649   23664   23688       4   23646   23655   23673       4
   23640   23628   23643       4   23640   23655   23673       4   23640   23658
   23679      12   23640   23658   23682      12   23637   23652   23670       4
   23631   23646   23661       4   23619   23628   23643       4   23994   23985
   23997       1   23991   23985   23994       1   23991   23985   23997       1
   23985   23973   23988       2   23982   23973   23985       2   23982   23973
   23988       1   23976   23970   23979       1   23973   23970   23976       2
   23973   23970   23979       2   23973   23985   23991       2   23973   23985
   23994       2   23973   23985   23997       2   23970   23973   23982       2
   23970   23973   23988       2   23967   23952   23970       2   23964   23952
   23967       1   23964   23952   23970       2   23955   23934   23958       1
   23952   23934   23955       2   23952   23934   23958       2   23952   23970
   23976       2   23952   23970   23979       2   23943   23922   23946       4
   23943   23928   23949       4   23937   23913   23940       1   23934   23913
   23937       2   23934   23913   23940       2   23934   23952   23964       2
   23934   23952   23967       2   23928   23910   23931       4   23928   23943
   23961       4   23922   23907   23925       4   23922   23943   23961       4
   23916   23898   23919       1   23913   23898   23916       2   23913   23898
   23919       2   23913   23934   23955       2   23913   23934   23958       2
   23910   23928   23949       4   23907   23922   23946       4   23901   23886
   23904       1   23898   23886   23901       2   23898   23886   23904       2
   23898   23913   23937       2   23898   23913   23940       2   23895   23907
   23925       8   23895   23910   23931       8   23889   23868   23892       1
   23886   23868   23889       2   23886   23868   23892       2   23886   23898
   23916       2   23886   23898   23919       2   23877   23856   23880       8
   23877   23859   23883       8   23871   23850   23874       1   23868   23850
   23871       2   23868   23850   23874       2   23868   23886   23901       2
   23868   23886   23904       2   23859   23844   23862       4   23850   23868
   23889       2   23850   23868   23892       2   23847   23838   23853       4
   23844   23859   23883       4   23841   23856   23880       4   23838   23847
   23865       4   23832   23820   23835       4   23832   23847   23865       4
   23832   23850   23871      12   23832   23850   23874      12   23829   23844
   23862       4   23823   23838   23853       4   23811   23820   23835       4
   24186   24177   24189       1   24183   24177   24186       1   24183   24177
   24189       1   24177   24165   24180       2   24174   24165   24177       2
   24174   24165   24180       1   24168   24162   24171       1   24165   24162
   24168       2   24165   24162   24171       2   24165   24177   24183       2
   24165   24177   24186       2   24165   24177   24189       2   24162   24165
   24174       2   24162   24165   24180       2   24159   24144   24162       2
   24156   24144   24159       1   24156   24144   24162       2   24147   24126
   24150       1   24144   24126   24147       2   24144   24126   24150       2
   24144   24162   24168       2   24144   24162   24171       2   24135   24114
   24138       4   24135   24120   24141       4   24129   24105   24132       1
   24126   24105   24129       2   24126   24105   24132       2   24126   24144
   24156       2   24126   24144   24159       2   24120   24102   24123       4
   24120   24135   24153       4   24114   24099   24117       4   24114   24135
   24153       4   24108   24090   24111       1   24105   24090   24108       2
   24105   24090   24111       2   24105   24126   24147       2   24105   24126
   24150       2   24102   24120   24141       4   24099   24114   24138       4
   24093   24078   24096       1   24090   24078   24093       2   24090   24078
   24096       2   24090   24105   24129       2   24090   24105   24132       2
   24087   24099   24117       8   24087   24102   24123       8   24081   24060
   24084       1   24078   24060   24081       2   24078   24060   24084       2
   24078   24090   24108       2   24078   24090   24111       2   24069   24048
   24072       8   24069   24051   24075       8   24063   24042   24066       1
   24060   24042   24063       2   24060   24042   24066       2   24060   24078
   24093       2   24060   24078   24096       2   24051   24036   24054       4
   24042   24060   24081       2   24042   24060   24084       2   24039   24030
   24045       4   24036   24051   24075       4   24033   24048   24072       4
   24030   24039   24057       4   24024   24012   24027       4   24024   24039
   24057       4   24024   24042   24063      12   24024   24042   24066      12
   24021   24036   24054       4   24015   24030   24045       4   24003   24012
   24027       4   24378   24369   24381       1   24375   24369   24378       1
   24375   24369   24381       1   24369   24357   24372       2   24366   24357
   24369       2   24366   24357   24372       1   24360   24354   24363       1
   24357   24354   24360       2   24357   24354   24363       2   24357   24369
   24375       2   24357   24369   24378       2   24357   24369   24381       2
   24354   24357   24366       2   24354   24357   24372       2   24351   24336
   24354       2   24348   24336   24351       1   24348   24336   24354       2
   24339   24318   24342       1   24336   24318   24339       2   24336   24318
   24342       2   24336   24354   24360       2   24336   24354   24363       2
   24327   24306   24330       4   24327   24312   24333       4   24321   24297
   24324       1   24318   24297   24321       2   24318   24297   24324       2
   24318   24336   24348       2   24318   24336   24351       2   24312   24294
   24315       4   24312   24327   24345       4   24306   24291   24309       4
   24306   24327   24345       4   24300   24282   24303       1   24297   24282
   24300       2   24297   24282   24303       2   24297   24318   24339       2
   24297   24318   24342       2   24294   24312   24333       4   24291   24306
   24330       4   24285   24270   24288       1   24282   24270   24285       2
   24282   24270   24288       2   24282   24297   24321       2   24282   24297
   24324       2   24279   24291   24309       8   24279   24294   24315       8
   24273   24252   24276       1   24270   24252   24273       2   24270   24252
   24276       2   24270   24282   24300       2   24270   24282   24303       2
   24261   24240   24264       8   24261   24243   24267       8   24255   24234
   24258       1   24252   24234   24255       2   24252   24234   24258       2
   24252   24270   24285       2   24252   24270   24288       2   24243   24228
   24246       4   24234   24252   24273       2   24234   24252   24276       2
   24231   24222   24237       4   24228   24243   24267       4   24225   24240
   24264       4   24222   24231   24249       4   24216   24204   24219       4
   24216   24231   24249       4   24216   24234   24255      12   24216   24234
   24258      12   24213   24228   24246       4   24207   24222   24237       4
   24195   24204   24219       4   24570   24561   24573       1   24567   24561
   24570       1   24567   24561   24573       1   24561   24549   24564       2
   24558   24549   24561       2   24558   24549   24564       1   24552   24546
   24555       1   24549   24546   24552       2   24549   24546   24555       2
   24549   24561   24567       2   24549   24561   24570       2   24549   24561
   24573       2   24546   24549   24558       2   24546   24549   24564       2
   24543   24528   24546       2   24540   24528   24543       1   24540   24528
   24546       2   24531   24510   24534       1   24528   24510   24531       2
   24528   24510   24534       2   24528   24546   24552       2   24528   24546
   24555       2   24519   24498   24522       4   24519   24504   24525       4
   24513   24489   24516       1   24510   24489   24513       2   24510   24489
   24516       2   24510   24528   24540       2   24510   24528   24543       2
   24504   24486   24507       4   24504   24519   24537       4   24498   24483
   24501       4   24498   24519   24537       4   24492   24474   24495       1
   24489   24474   24492       2   24489   24474   24495       2   24489   24510
   24531       2   24489   24510   24534       2   24486   24504   24525       4
   24483   24498   24522       4   24477   24462   24480       1   24474   24462
   24477       2   24474   24462   24480       2   24474   24489   24513       2
   24474   24489   24516       2   24471   24483   24501       8   24471   24486
   24507       8   24465   24444   24468       1   24462   24444   24465       2
   24462   24444   24468       2   24462   24474   24492       2   24462   24474
   24495       2   24453   24432   24456       8   24453   24435   24459       8
   24447   24426   24450       1   24444   24426   24447       2   24444   24426
   24450       2   24444   24462   24477       2   24444   24462   24480       2
   24435   24420   24438       4   24426   24444   24465       2   24426   24444
   24468       2   24423   24414   24429       4   24420   24435   24459       4
   24417   24432   24456       4   24414   24423   24441       4   24408   24396
   24411       4   24408   24423   24441       4   24408   24426   24447      12
   24408   24426   24450      12   24405   24420   24438       4   24399   24414
   24429       4   24387   24396   24411       4   24762   24753   24765       1
   24759   24753   24762       1   24759   24753   24765       1   24753   24741
   24756       2   24750   24741   24753       2   24750   24741   24756       1
   24744   24738   24747       1   24741   24738   24744       2   24741   24738
   24747       2   24741   24753   24759       2   24741   24753   24762       2
   24741   24753   24765       2   24738   24741   24750       2   24738   24741
   24756       2   24735   24720   24738       2   24732   24720   24735       1
   24732   24720   24738       2   24723   24702   24726       1   24720   24702
   24723       2   24720   24702   24726       2   24720   24738   24744       2
   24720   24738   24747       2   24711   24690   24714       4   24711   24696
   24717       4   24705   24681   24708       1   24702   24681   24705       2
   24702   24681   24708       2   24702   24720   24732       2   24702   24720
   24735       2   24696   24678   24699       4   24696   24711   24729       4
   24690   24675   24693       4   24690   24711   24729       4   24684   24666
   24687       1   24681   24666   24684       2   24681   24666   24687       2
   24681   24702   24723       2   24681   24702   24726       2   24678   24696
   24717       4   24675   24690   24714       4   24669   24654   24672       1
   24666   24654   24669       2   24666   24654   24672       2   24666   24681
   24705       2   24666   24681   24708       2   24663   24675   24693       8
   24663   24678   24699       8   24657   24636   24660       1   24654   24636
   24657       2   24654   24636   24660       2   24654   24666   24684       2
   24654   24666   24687       2   24645   24624   24648       8   24645   24627
   24651       8   24639   24618   24642       1   24636   24618   24639       2
   24636   24618   24642       2   24636   24654   24669       2   24636   24654
   24672       2   24627   24612   24630       4   24618   24636   24657       2
   24618   24636   24660       2   24615   24606   24621       4   24612   24627
   24651       4   24609   24624   24648       4   24606   24615   24633       4
   24600   24588   24603       4   24600   24615   24633       4   24600   24618
   24639      12   24600   24618   24642      12   24597   24612   24630       4
   24591   24606   24621       4   24579   24588   24603       4   24954   24945
   24957       1   24951   24945   24954       1   24951   24945   24957       1
   24945   24933   24948       2   24942   24933   24945       2   24942   24933
   24948       1   24936   24930   24939       1   24933   24930   24936       2
   24933   24930   24939       2   24933   24945   24951       2   24933   24945
   24954       2   24933   24945   24957       2   24930   24933   24942       2
   24930   24933   24948       2   24927   24912   24930       2   24924   24912
   24927       1   24924   24912   24930       2   24915   24894   24918       1
   24912   24894   24915       2   24912   24894   24918       2   24912   24930
   24936       2   24912   24930   24939       2   24903   24882   24906       4
   24903   24888   24909       4   24897   24873   24900       1   24894   24873
   24897       2   24894   24873   24900       2   24894   24912   24924       2
   24894   24912   24927       2   24888   24870   24891       4   24888   24903
   24921       4   24882   24867   24885       4   24882   24903   24921       4
   24876   24858   24879       1   24873   24858   24876       2   24873   24858
   24879       2   24873   24894   24915       2   24873   24894   24918       2
   24870   24888   24909       4   24867   24882   24906       4   24861   24846
   24864       1   24858   24846   24861       2   24858   24846   24864       2
   24858   24873   24897       2   24858   24873   24900       2   24855   24867
   24885       8   24855   24870   24891       8   24849   24828   24852       1
   24846   24828   24849       2   24846   24828   24852       2   24846   24858
   24876       2   24846   24858   24879       2   24837   24816   24840       8
   24837   24819   24843       8   24831   24810   24834       1   24828   24810
   24831       2   24828   24810   24834       2   24828   24846   24861       2
   24828   24846   24864       2   24819   24804   24822       4   24810   24828
   24849       2   24810   24828   24852       2   24807   24798   24813       4
   24804   24819   24843       4   24801   24816   24840       4   24798   24807
   24825       4   24792   24780   24795       4   24792   24807   24825       4
   24792   24810   24831      12   24792   24810   24834      12   24789   24804
   24822       4   24783   24798   24813       4   24771   24780   24795       4
   25146   25137   25149       1   25143   25137   25146       1   25143   25137
   25149       1   25137   25125   25140       2   25134   25125   25137       2
   25134   25125   25140       1   25128   25122   25131       1   25125   25122
   25128       2   25125   25122   25131       2   25125   25137   25143       2
   25125   25137   25146       2   25125   25137   25149       2   25122   25125
   25134       2   25122   25125   25140       2   25119   25104   25122       2
   25116   25104   25119       1   25116   25104   25122       2   25107   25086
   25110       1   25104   25086   25107       2   25104   25086   25110       2
   25104   25122   25128       2   25104   25122   25131       2   25095   25074
   25098       4   25095   25080   25101       4   25089   25065   25092       1
   25086   25065   25089       2   25086   25065   25092       2   25086   25104
   25116       2   25086   25104   25119       2   25080   25062   25083       4
   25080   25095   25113       4   25074   25059   25077       4   25074   25095
   25113       4   25068   25050   25071       1   25065   25050   25068       2
   25065   25050   25071       2   25065   25086   25107       2   25065   25086
   25110       2   25062   25080   25101       4   25059   25074   25098       4
   25053   25038   25056       1   25050   25038   25053       2   25050   25038
   25056       2   25050   25065   25089       2   25050   25065   25092       2
   25047   25059   25077       8   25047   25062   25083       8   25041   25020
   25044       1   25038   25020   25041       2   25038   25020   25044       2
   25038   25050   25068       2   25038   25050   25071       2   25029   25008
   25032       8   25029   25011   25035       8   25023   25002   25026       1
   25020   25002   25023       2   25020   25002   25026       2   25020   25038
   25053       2   25020   25038   25056       2   25011   24996   25014       4
   25002   25020   25041       2   25002   25020   25044       2   24999   24990
   25005       4   24996   25011   25035       4   24993   25008   25032       4
   24990   24999   25017       4   24984   24972   24987       4   24984   24999
   25017       4   24984   25002   25023      12   24984   25002   25026      12
   24981   24996   25014       4   24975   24990   25005       4   24963   24972
   24987       4   25338   25329   25341       1   25335   25329   25338       1
   25335   25329   25341       1   25329   25317   25332       2   25326   25317
   25329       2   25326   25317   25332       1   25320   25314   25323       1
   25317   25314   25320       2   25317   25314   25323       2   25317   25329
   25335       2   25317   25329   25338       2   25317   25329   25341       2
   25314   25317   25326       2   25314   25317   25332       2   25311   25296
   25314       2   25308   25296   25311       1   25308   25296   25314       2
   25299   25278   25302       1   25296   25278   25299       2   25296   25278
   25302       2   25296   25314   25320       2   25296   25314   25323       2
   25287   25266   25290       4   25287   25272   25293       4   25281   25257
   25284       1   25278   25257   25281       2   25278   25257   25284       2
   25278   25296   25308       2   25278   25296   25311       2   25272   25254
   25275       4   25272   25287   25305       4   25266   25251   25269       4
   25266   25287   25305       4   25260   25242   25263       1   25257   25242
   25260       2   25257   25242   25263       2   25257   25278   25299       2
   25257   25278   25302       2   25254   25272   25293       4   25251   25266
   25290       4   25245   25230   25248       1   25242   25230   25245       2
   25242   25230   25248       2   25242   25257   25281       2   25242   25257
   25284       2   25239   25251   25269       8   25239   25254   25275       8
   25233   25212   25236       1   25230   25212   25233       2   25230   25212
   25236       2   25230   25242   25260       2   25230   25242   25263       2
   25221   25200   25224       8   25221   25203   25227       8   25215   25194
   25218       1   25212   25194   25215       2   25212   25194   25218       2
   25212   25230   25245       2   25212   25230   25248       2   25203   25188
   25206       4   25194   25212   25233       2   25194   25212   25236       2
   25191   25182   25197       4   25188   25203   25227       4   25185   25200
   25224       4   25182   25191   25209       4   25176   25164   25179       4
   25176   25191   25209       4   25176   25194   25215      12   25176   25194
   25218      12   25173   25188   25206       4   25167   25182   25197       4
   25155   25164   25179       4   25530   25521   25533       1   25527   25521
   25530       1   25527   25521   25533       1   25521   25509   25524       2
   25518   25509   25521       2   25518   25509   25524       1   25512   25506
   25515       1   25509   25506   25512       2   25509   25506   25515       2
   25509   25521   25527       2   25509   25521   25530       2   25509   25521
   25533       2   25506   25509   25518       2   25506   25509   25524       2
   25503   25488   25506       2   25500   25488   25503       1   25500   25488
   25506       2   25491   25470   25494       1   25488   25470   25491       2
   25488   25470   25494       2   25488   25506   25512       2   25488   25506
   25515       2   25479   25458   25482       4   25479   25464   25485       4
   25473   25449   25476       1   25470   25449   25473       2   25470   25449
   25476       2   25470   25488   25500       2   25470   25488   25503       2
   25464   25446   25467       4   25464   25479   25497       4   25458   25443
   25461       4   25458   25479   25497       4   25452   25434   25455       1
   25449   25434   25452       2   25449   25434   25455       2   25449   25470
   25491       2   25449   25470   25494       2   25446   25464   25485       4
   25443   25458   25482       4   25437   25422   25440       1   25434   25422
   25437       2   25434   25422   25440       2   25434   25449   25473       2
   25434   25449   25476       2   25431   25443   25461       8   25431   25446
   25467       8   25425   25404   25428       1   25422   25404   25425       2
   25422   25404   25428       2   25422   25434   25452       2   25422   25434
   25455       2   25413   25392   25416       8   25413   25395   25419       8
   25407   25386   25410       1   25404   25386   25407       2   25404   25386
   25410       2   25404   25422   25437       2   25404   25422   25440       2
   25395   25380   25398       4   25386   25404   25425       2   25386   25404
   25428       2   25383   25374   25389       4   25380   25395   25419       4
   25377   25392   25416       4   25374   25383   25401       4   25368   25356
   25371       4   25368   25383   25401       4   25368   25386   25407      12
   25368   25386   25410      12   25365   25380   25398       4   25359   25374
   25389       4   25347   25356   25371       4   25722   25713   25725       1
   25719   25713   25722       1   25719   25713   25725       1   25713   25701
   25716       2   25710   25701   25713       2   25710   25701   25716       1
   25704   25698   25707       1   25701   25698   25704       2   25701   25698
   25707       2   25701   25713   25719       2   25701   25713   25722       2
   25701   25713   25725       2   25698   25701   25710       2   25698   25701
   25716       2   25695   25680   25698       2   25692   25680   25695       1
   25692   25680   25698       2   25683   25662   25686       1   25680   25662
   25683       2   25680   25662   25686       2   25680   25698   25704       2
   25680   25698   25707       2   25671   25650   25674       4   25671   25656
   25677       4   25665   25641   25668       1   25662   25641   25665       2
   25662   25641   25668       2   25662   25680   25692       2   25662   25680
   25695       2   25656   25638   25659       4   25656   25671   25689       4
   25650   25635   25653       4   25650   25671   25689       4   25644   25626
   25647       1   25641   25626   25644       2   25641   25626   25647       2
   25641   25662   25683       2   25641   25662   25686       2   25638   25656
   25677       4   25635   25650   25674       4   25629   25614   25632       1
   25626   25614   25629       2   25626   25614   25632       2   25626   25641
   25665       2   25626   25641   25668       2   25623   25635   25653       8
   25623   25638   25659       8   25617   25596   25620       1   25614   25596
   25617       2   25614   25596   25620       2   25614   25626   25644       2
   25614   25626   25647       2   25605   25584   25608       8   25605   25587
   25611       8   25599   25578   25602       1   25596   25578   25599       2
   25596   25578   25602       2   25596   25614   25629       2   25596   25614
   25632       2   25587   25572   25590       4   25578   25596   25617       2
   25578   25596   25620       2   25575   25566   25581       4   25572   25587
   25611       4   25569   25584   25608       4   25566   25575   25593       4
   25560   25548   25563       4   25560   25575   25593       4   25560   25578
   25599      12   25560   25578   25602      12   25557   25572   25590       4
   25551   25566   25581       4   25539   25548   25563       4   25914   25905
   25917       1   25911   25905   25914       1   25911   25905   25917       1
   25905   25893   25908       2   25902   25893   25905       2   25902   25893
   25908       1   25896   25890   25899       1   25893   25890   25896       2
   25893   25890   25899       2   25893   25905   25911       2   25893   25905
   25914       2   25893   25905   25917       2   25890   25893   25902       2
   25890   25893   25908       2   25887   25872   25890       2   25884   25872
   25887       1   25884   25872   25890       2   25875   25854   25878       1
   25872   25854   25875       2   25872   25854   25878       2   25872   25890
   25896       2   25872   25890   25899       2   25863   25842   25866       4
   25863   25848   25869       4   25857   25833   25860       1   25854   25833
   25857       2   25854   25833   25860       2   25854   25872   25884       2
   25854   25872   25887       2   25848   25830   25851       4   25848   25863
   25881       4   25842   25827   25845       4   25842   25863   25881       4
   25836   25818   25839       1   25833   25818   25836       2   25833   25818
   25839       2   25833   25854   25875       2   25833   25854   25878       2
   25830   25848   25869       4   25827   25842   25866       4   25821   25806
   25824       1   25818   25806   25821       2   25818   25806   25824       2
   25818   25833   25857       2   25818   25833   25860       2   25815   25827
   25845       8   25815   25830   25851       8   25809   25788   25812       1
   25806   25788   25809       2   25806   25788   25812       2   25806   25818
   25836       2   25806   25818   25839       2   25797   25776   25800       8
   25797   25779   25803       8   25791   25770   25794       1   25788   25770
   25791       2   25788   25770   25794       2   25788   25806   25821       2
   25788   25806   25824       2   25779   25764   25782       4   25770   25788
   25809       2   25770   25788   25812       2   25767   25758   25773       4
   25764   25779   25803       4   25761   25776   25800       4   25758   25767
   25785       4   25752   25740   25755       4   25752   25767   25785       4
   25752   25770   25791      12   25752   25770   25794      12   25749   25764
   25782       4   25743   25758   25773       4   25731   25740   25755       4
   26106   26097   26109       1   26103   26097   26106       1   26103   26097
   26109       1   26097   26085   26100       2   26094   26085   26097       2
   26094   26085   26100       1   26088   26082   26091       1   26085   26082
   26088       2   26085   26082   26091       2   26085   26097   26103       2
   26085   26097   26106       2   26085   26097   26109       2   26082   26085
   26094       2   26082   26085   26100       2   26079   26064   26082       2
   26076   26064   26079       1   26076   26064   26082       2   26067   26046
   26070       1   26064   26046   26067       2   26064   26046   26070       2
   26064   26082   26088       2   26064   26082   26091       2   26055   26034
   26058       4   26055   26040   26061       4   26049   26025   26052       1
   26046   26025   26049       2   26046   26025   26052       2   26046   26064
   26076       2   26046   26064   26079       2   26040   26022   26043       4
   26040   26055   26073       4   26034   26019   26037       4   26034   26055
   26073       4   26028   26010   26031       1   26025   26010   26028       2
   26025   26010   26031       2   26025   26046   26067       2   26025   26046
   26070       2   26022   26040   26061       4   26019   26034   26058       4
   26013   25998   26016       1   26010   25998   26013       2   26010   25998
   26016       2   26010   26025   26049       2   26010   26025   26052       2
   26007   26019   26037       8   26007   26022   26043       8   26001   25980
   26004       1   25998   25980   26001       2   25998   25980   26004       2
   25998   26010   26028       2   25998   26010   26031       2   25989   25968
   25992       8   25989   25971   25995       8   25983   25962   25986       1
   25980   25962   25983       2   25980   25962   25986       2   25980   25998
   26013       2   25980   25998   26016       2   25971   25956   25974       4
   25962   25980   26001       2   25962   25980   26004       2   25959   25950
   25965       4   25956   25971   25995       4   25953   25968   25992       4
   25950   25959   25977       4   25944   25932   25947       4   25944   25959
   25977       4   25944   25962   25983      12   25944   25962   25986      12
   25941   25956   25974       4   25935   25950   25965       4   25923   25932
   25947       4   26298   26289   26301       1   26295   26289   26298       1
   26295   26289   26301       1   26289   26277   26292       2   26286   26277
   26289       2   26286   26277   26292       1   26280   26274   26283       1
   26277   26274   26280       2   26277   26274   26283       2   26277   26289
   26295       2   26277   26289   26298       2   26277   26289   26301       2
   26274   26277   26286       2   26274   26277   26292       2   26271   26256
   26274       2   26268   26256   26271       1   26268   26256   26274       2
   26259   26238   26262       1   26256   26238   26259       2   26256   26238
   26262       2   26256   26274   26280       2   26256   26274   26283       2
   26247   26226   26250       4   26247   26232   26253       4   26241   26217
   26244       1   26238   26217   26241       2   26238   26217   26244       2
   26238   26256   26268       2   26238   26256   26271       2   26232   26214
   26235       4   26232   26247   26265       4   26226   26211   26229       4
   26226   26247   26265       4   26220   26202   26223       1   26217   26202
   26220       2   26217   26202   26223       2   26217   26238   26259       2
   26217   26238   26262       2   26214   26232   26253       4   26211   26226
   26250       4   26205   26190   26208       1   26202   26190   26205       2
   26202   26190   26208       2   26202   26217   26241       2   26202   26217
   26244       2   26199   26211   26229       8   26199   26214   26235       8
   26193   26172   26196       1   26190   26172   26193       2   26190   26172
   26196       2   26190   26202   26220       2   26190   26202   26223       2
   26181   26160   26184       8   26181   26163   26187       8   26175   26154
   26178       1   26172   26154   26175       2   26172   26154   26178       2
   26172   26190   26205       2   26172   26190   26208       2   26163   26148
   26166       4   26154   26172   26193       2   26154   26172   26196       2
   26151   26142   26157       4   26148   26163   26187       4   26145   26160
   26184       4   26142   26151   26169       4   26136   26124   26139       4
   26136   26151   26169       4   26136   26154   26175      12   26136   26154
   26178      12   26133   26148   26166       4   26127   26142   26157       4
   26115   26124   26139       4   26490   26481   26493       1   26487   26481
   26490       1   26487   26481   26493       1   26481   26469   26484       2
   26478   26469   26481       2   26478   26469   26484       1   26472   26466
   26475       1   26469   26466   26472       2   26469   26466   26475       2
   26469   26481   26487       2   26469   26481   26490       2   26469   26481
   26493       2   26466   26469   26478       2   26466   26469   26484       2
   26463   26448   26466       2   26460   26448   26463       1   26460   26448
   26466       2   26451   26430   26454       1   26448   26430   26451       2
   26448   26430   26454       2   26448   26466   26472       2   26448   26466
   26475       2   26439   26418   26442       4   26439   26424   26445       4
   26433   26409   26436       1   26430   26409   26433       2   26430   26409
   26436       2   26430   26448   26460       2   26430   26448   26463       2
   26424   26406   26427       4   26424   26439   26457       4   26418   26403
   26421       4   26418   26439   26457       4   26412   26394   26415       1
   26409   26394   26412       2   26409   26394   26415       2   26409   26430
   26451       2   26409   26430   26454       2   26406   26424   26445       4
   26403   26418   26442       4   26397   26382   26400       1   26394   26382
   26397       2   26394   26382   26400       2   26394   26409   26433       2
   26394   26409   26436       2   26391   26403   26421       8   26391   26406
   26427       8   26385   26364   26388       1   26382   26364   26385       2
   26382   26364   26388       2   26382   26394   26412       2   26382   26394
   26415       2   26373   26352   26376       8   26373   26355   26379       8
   26367   26346   26370       1   26364   26346   26367       2   26364   26346
   26370       2   26364   26382   26397       2   26364   26382   26400       2
   26355   26340   26358       4   26346   26364   26385       2   26346   26364
   26388       2   26343   26334   26349       4   26340   26355   26379       4
   26337   26352   26376       4   26334   26343   26361       4   26328   26316
   26331       4   26328   26343   26361       4   26328   26346   26367      12
   26328   26346   26370      12   26325   26340   26358       4   26319   26334
   26349       4   26307   26316   26331       4   26682   26673   26685       1
   26679   26673   26682       1   26679   26673   26685       1   26673   26661
   26676       2   26670   26661   26673       2   26670   26661   26676       1
   26664   26658   26667       1   26661   26658   26664       2   26661   26658
   26667       2   26661   26673   26679       2   26661   26673   26682       2
   26661   26673   26685       2   26658   26661   26670       2   26658   26661
   26676       2   26655   26640   26658       2   26652   26640   26655       1
   26652   26640   26658       2   26643   26622   26646       1   26640   26622
   26643       2   26640   26622   26646       2   26640   26658   26664       2
   26640   26658   26667       2   26631   26610   26634       4   26631   26616
   26637       4   26625   26601   26628       1   26622   26601   26625       2
   26622   26601   26628       2   26622   26640   26652       2   26622   26640
   26655       2   26616   26598   26619       4   26616   26631   26649       4
   26610   26595   26613       4   26610   26631   26649       4   26604   26586
   26607       1   26601   26586   26604       2   26601   26586   26607       2
   26601   26622   26643       2   26601   26622   26646       2   26598   26616
   26637       4   26595   26610   26634       4   26589   26574   26592       1
   26586   26574   26589       2   26586   26574   26592       2   26586   26601
   26625       2   26586   26601   26628       2   26583   26595   26613       8
   26583   26598   26619       8   26577   26556   26580       1   26574   26556
   26577       2   26574   26556   26580       2   26574   26586   26604       2
   26574   26586   26607       2   26565   26544   26568       8   26565   26547
   26571       8   26559   26538   26562       1   26556   26538   26559       2
   26556   26538   26562       2   26556   26574   26589       2   26556   26574
   26592       2   26547   26532   26550       4   26538   26556   26577       2
   26538   26556   26580       2   26535   26526   26541       4   26532   26547
   26571       4   26529   26544   26568       4   26526   26535   26553       4
   26520   26508   26523       4   26520   26535   26553       4   26520   26538
   26559      12   26520   26538   26562      12   26517   26532   26550       4
   26511   26526   26541       4   26499   26508   26523       4   26874   26865
   26877       1   26871   26865   26874       1   26871   26865   26877       1
   26865   26853   26868       2   26862   26853   26865       2   26862   26853
   26868       1   26856   26850   26859       1   26853   26850   26856       2
   26853   26850   26859       2   26853   26865   26871       2   26853   26865
   26874       2   26853   26865   26877       2   26850   26853   26862       2
   26850   26853   26868       2   26847   26832   26850       2   26844   26832
   26847       1   26844   26832   26850       2   26835   26814   26838       1
   26832   26814   26835       2   26832   26814   26838       2   26832   26850
   26856       2   26832   26850   26859       2   26823   26802   26826       4
   26823   26808   26829       4   26817   26793   26820       1   26814   26793
   26817       2   26814   26793   26820       2   26814   26832   26844       2
   26814   26832   26847       2   26808   26790   26811       4   26808   26823
   26841       4   26802   26787   26805       4   26802   26823   26841       4
   26796   26778   26799       1   26793   26778   26796       2   26793   26778
   26799       2   26793   26814   26835       2   26793   26814   26838       2
   26790   26808   26829       4   26787   26802   26826       4   26781   26766
   26784       1   26778   26766   26781       2   26778   26766   26784       2
   26778   26793   26817       2   26778   26793   26820       2   26775   26787
   26805       8   26775   26790   26811       8   26769   26748   26772       1
   26766   26748   26769       2   26766   26748   26772       2   26766   26778
   26796       2   26766   26778   26799       2   26757   26736   26760       8
   26757   26739   26763       8   26751   26730   26754       1   26748   26730
   26751       2   26748   26730   26754       2   26748   26766   26781       2
   26748   26766   26784       2   26739   26724   26742       4   26730   26748
   26769       2   26730   26748   26772       2   26727   26718   26733       4
   26724   26739   26763       4   26721   26736   26760       4   26718   26727
   26745       4   26712   26700   26715       4   26712   26727   26745       4
   26712   26730   26751      12   26712   26730   26754      12   26709   26724
   26742       4   26703   26718   26733       4   26691   26700   26715       4
   27066   27057   27069       1   27063   27057   27066       1   27063   27057
   27069       1   27057   27045   27060       2   27054   27045   27057       2
   27054   27045   27060       1   27048   27042   27051       1   27045   27042
   27048       2   27045   27042   27051       2   27045   27057   27063       2
   27045   27057   27066       2   27045   27057   27069       2   27042   27045
   27054       2   27042   27045   27060       2   27039   27024   27042       2
   27036   27024   27039       1   27036   27024   27042       2   27027   27006
   27030       1   27024   27006   27027       2   27024   27006   27030       2
   27024   27042   27048       2   27024   27042   27051       2   27015   26994
   27018       4   27015   27000   27021       4   27009   26985   27012       1
   27006   26985   27009       2   27006   26985   27012       2   27006   27024
   27036       2   27006   27024   27039       2   27000   26982   27003       4
   27000   27015   27033       4   26994   26979   26997       4   26994   27015
   27033       4   26988   26970   26991       1   26985   26970   26988       2
   26985   26970   26991       2   26985   27006   27027       2   26985   27006
   27030       2   26982   27000   27021       4   26979   26994   27018       4
   26973   26958   26976       1   26970   26958   26973       2   26970   26958
   26976       2   26970   26985   27009       2   26970   26985   27012       2
   26967   26979   26997       8   26967   26982   27003       8   26961   26940
   26964       1   26958   26940   26961       2   26958   26940   26964       2
   26958   26970   26988       2   26958   26970   26991       2   26949   26928
   26952       8   26949   26931   26955       8   26943   26922   26946       1
   26940   26922   26943       2   26940   26922   26946       2   26940   26958
   26973       2   26940   26958   26976       2   26931   26916   26934       4
   26922   26940   26961       2   26922   26940   26964       2   26919   26910
   26925       4   26916   26931   26955       4   26913   26928   26952       4
   26910   26919   26937       4   26904   26892   26907       4   26904   26919
   26937       4   26904   26922   26943      12   26904   26922   26946      12
   26901   26916   26934       4   26895   26910   26925       4   26883   26892
   26907       4   27258   27249   27261       1   27255   27249   27258       1
   27255   27249   27261       1   27249   27237   27252       2   27246   27237
   27249       2   27246   27237   27252       1   27240   27234   27243       1
   27237   27234   27240       2   27237   27234   27243       2   27237   27249
   27255       2   27237   27249   27258       2   27237   27249   27261       2
   27234   27237   27246       2   27234   27237   27252       2   27231   27216
   27234       2   27228   27216   27231       1   27228   27216   27234       2
   27219   27198   27222       1   27216   27198   27219       2   27216   27198
   27222       2   27216   27234   27240       2   27216   27234   27243       2
   27207   27186   27210       4   27207   27192   27213       4   27201   27177
   27204       1   27198   27177   27201       2   27198   27177   27204       2
   27198   27216   27228       2   27198   27216   27231       2   27192   27174
   27195       4   27192   27207   27225       4   27186   27171   27189       4
   27186   27207   27225       4   27180   27162   27183       1   27177   27162
   27180       2   27177   27162   27183       2   27177   27198   27219       2
   27177   27198   27222       2   27174   27192   27213       4   27171   27186
   27210       4   27165   27150   27168       1   27162   27150   27165       2
   27162   27150   27168       2   27162   27177   27201       2   27162   27177
   27204       2   27159   27171   27189       8   27159   27174   27195       8
   27153   27132   27156       1   27150   27132   27153       2   27150   27132
   27156       2   27150   27162   27180       2   27150   27162   27183       2
   27141   27120   27144       8   27141   27123   27147       8   27135   27114
   27138       1   27132   27114   27135       2   27132   27114   27138       2
   27132   27150   27165       2   27132   27150   27168       2   27123   27108
   27126       4   27114   27132   27153       2   27114   27132   27156       2
   27111   27102   27117       4   27108   27123   27147       4   27105   27120
   27144       4   27102   27111   27129       4   27096   27084   27099       4
   27096   27111   27129       4   27096   27114   27135      12   27096   27114
   27138      12   27093   27108   27126       4   27087   27102   27117       4
   27075   27084   27099       4   27450   27441   27453       1   27447   27441
   27450       1   27447   27441   27453       1   27441   27429   27444       2
   27438   27429   27441       2   27438   27429   27444       1   27432   27426
   27435       1   27429   27426   27432       2   27429   27426   27435       2
   27429   27441   27447       2   27429   27441   27450       2   27429   27441
   27453       2   27426   27429   27438       2   27426   27429   27444       2
   27423   27408   27426       2   27420   27408   27423       1   27420   27408
   27426       2   27411   27390   27414       1   27408   27390   27411       2
   27408   27390   27414       2   27408   27426   27432       2   27408   27426
   27435       2   27399   27378   27402       4   27399   27384   27405       4
   27393   27369   27396       1   27390   27369   27393       2   27390   27369
   27396       2   27390   27408   27420       2   27390   27408   27423       2
   27384   27366   27387       4   27384   27399   27417       4   27378   27363
   27381       4   27378   27399   27417       4   27372   27354   27375       1
   27369   27354   27372       2   27369   27354   27375       2   27369   27390
   27411       2   27369   27390   27414       2   27366   27384   27405       4
   27363   27378   27402       4   27357   27342   27360       1   27354   27342
   27357       2   27354   27342   27360       2   27354   27369   27393       2
   27354   27369   27396       2   27351   27363   27381       8   27351   27366
   27387       8   27345   27324   27348       1   27342   27324   27345       2
   27342   27324   27348       2   27342   27354   27372       2   27342   27354
   27375       2   27333   27312   27336       8   27333   27315   27339       8
   27327   27306   27330       1   27324   27306   27327       2   27324   27306
   27330       2   27324   27342   27357       2   27324   27342   27360       2
   27315   27300   27318       4   27306   27324   27345       2   27306   27324
   27348       2   27303   27294   27309       4   27300   27315   27339       4
   27297   27312   27336       4   27294   27303   27321       4   27288   27276
   27291       4   27288   27303   27321       4   27288   27306   27327      12
   27288   27306   27330      12   27285   27300   27318       4   27279   27294
   27309       4   27267   27276   27291       4   27642   27633   27645       1
   27639   27633   27642       1   27639   27633   27645       1   27633   27621
   27636       2   27630   27621   27633       2   27630   27621   27636       1
   27624   27618   27627       1   27621   27618   27624       2   27621   27618
   27627       2   27621   27633   27639       2   27621   27633   27642       2
   27621   27633   27645       2   27618   27621   27630       2   27618   27621
   27636       2   27615   27600   27618       2   27612   27600   27615       1
   27612   27600   27618       2   27603   27582   27606       1   27600   27582
   27603       2   27600   27582   27606       2   27600   27618   27624       2
   27600   27618   27627       2   27591   27570   27594       4   27591   27576
   27597       4   27585   27561   27588       1   27582   27561   27585       2
   27582   27561   27588       2   27582   27600   27612       2   27582   27600
   27615       2   27576   27558   27579       4   27576   27591   27609       4
   27570   27555   27573       4   27570   27591   27609       4   27564   27546
   27567       1   27561   27546   27564       2   27561   27546   27567       2
   27561   27582   27603       2   27561   27582   27606       2   27558   27576
   27597       4   27555   27570   27594       4   27549   27534   27552       1
   27546   27534   27549       2   27546   27534   27552       2   27546   27561
   27585       2   27546   27561   27588       2   27543   27555   27573       8
   27543   27558   27579       8   27537   27516   27540       1   27534   27516
   27537       2   27534   27516   27540       2   27534   27546   27564       2
   27534   27546   27567       2   27525   27504   27528       8   27525   27507
   27531       8   27519   27498   27522       1   27516   27498   27519       2
   27516   27498   27522       2   27516   27534   27549       2   27516   27534
   27552       2   27507   27492   27510       4   27498   27516   27537       2
   27498   27516   27540       2   27495   27486   27501       4   27492   27507
   27531       4   27489   27504   27528       4   27486   27495   27513       4
   27480   27468   27483       4   27480   27495   27513       4   27480   27498
   27519      12   27480   27498   27522      12   27477   27492   27510       4
   27471   27486   27501       4   27459   27468   27483       4   27834   27825
   27837       1   27831   27825   27834       1   27831   27825   27837       1
   27825   27813   27828       2   27822   27813   27825       2   27822   27813
   27828       1   27816   27810   27819       1   27813   27810   27816       2
   27813   27810   27819       2   27813   27825   27831       2   27813   27825
   27834       2   27813   27825   27837       2   27810   27813   27822       2
   27810   27813   27828       2   27807   27792   27810       2   27804   27792
   27807       1   27804   27792   27810       2   27795   27774   27798       1
   27792   27774   27795       2   27792   27774   27798       2   27792   27810
   27816       2   27792   27810   27819       2   27783   27762   27786       4
   27783   27768   27789       4   27777   27753   27780       1   27774   27753
   27777       2   27774   27753   27780       2   27774   27792   27804       2
   27774   27792   27807       2   27768   27750   27771       4   27768   27783
   27801       4   27762   27747   27765       4   27762   27783   27801       4
   27756   27738   27759       1   27753   27738   27756       2   27753   27738
   27759       2   27753   27774   27795       2   27753   27774   27798       2
   27750   27768   27789       4   27747   27762   27786       4   27741   27726
   27744       1   27738   27726   27741       2   27738   27726   27744       2
   27738   27753   27777       2   27738   27753   27780       2   27735   27747
   27765       8   27735   27750   27771       8   27729   27708   27732       1
   27726   27708   27729       2   27726   27708   27732       2   27726   27738
   27756       2   27726   27738   27759       2   27717   27696   27720       8
   27717   27699   27723       8   27711   27690   27714       1   27708   27690
   27711       2   27708   27690   27714       2   27708   27726   27741       2
   27708   27726   27744       2   27699   27684   27702       4   27690   27708
   27729       2   27690   27708   27732       2   27687   27678   27693       4
   27684   27699   27723       4   27681   27696   27720       4   27678   27687
   27705       4   27672   27660   27675       4   27672   27687   27705       4
   27672   27690   27711      12   27672   27690   27714      12   27669   27684
   27702       4   27663   27678   27693       4   27651   27660   27675       4
   28026   28017   28029       1   28023   28017   28026       1   28023   28017
   28029       1   28017   28005   28020       2   28014   28005   28017       2
   28014   28005   28020       1   28008   28002   28011       1   28005   28002
   28008       2   28005   28002   28011       2   28005   28017   28023       2
   28005   28017   28026       2   28005   28017   28029       2   28002   28005
   28014       2   28002   28005   28020       2   27999   27984   28002       2
   27996   27984   27999       1   27996   27984   28002       2   27987   27966
   27990       1   27984   27966   27987       2   27984   27966   27990       2
   27984   28002   28008       2   27984   28002   28011       2   27975   27954
   27978       4   27975   27960   27981       4   27969   27945   27972       1
   27966   27945   27969       2   27966   27945   27972       2   27966   27984
   27996       2   27966   27984   27999       2   27960   27942   27963       4
   27960   27975   27993       4   27954   27939   27957       4   27954   27975
   27993       4   27948   27930   27951       1   27945   27930   27948       2
   27945   27930   27951       2   27945   27966   27987       2   27945   27966
   27990       2   27942   27960   27981       4   27939   27954   27978       4
   27933   27918   27936       1   27930   27918   27933       2   27930   27918
   27936       2   27930   27945   27969       2   27930   27945   27972       2
   27927   27939   27957       8   27927   27942   27963       8   27921   27900
   27924       1   27918   27900   27921       2   27918   27900   27924       2
   27918   27930   27948       2   27918   27930   27951       2   27909   27888
   27912       8   27909   27891   27915       8   27903   27882   27906       1
   27900   27882   27903       2   27900   27882   27906       2   27900   27918
   27933       2   27900   27918   27936       2   27891   27876   27894       4
   27882   27900   27921       2   27882   27900   27924       2   27879   27870
   27885       4   27876   27891   27915       4   27873   27888   27912       4
   27870   27879   27897       4   27864   27852   27867       4   27864   27879
   27897       4   27864   27882   27903      12   27864   27882   27906      12
   27861   27876   27894       4   27855   27870   27885       4   27843   27852
   27867       4   28218   28209   28221       1   28215   28209   28218       1
   28215   28209   28221       1   28209   28197   28212       2   28206   28197
   28209       2   28206   28197   28212       1   28200   28194   28203       1
   28197   28194   28200       2   28197   28194   28203       2   28197   28209
   28215       2   28197   28209   28218       2   28197   28209   28221       2
   28194   28197   28206       2   28194   28197   28212       2   28191   28176
   28194       2   28188   28176   28191       1   28188   28176   28194       2
   28179   28158   28182       1   28176   28158   28179       2   28176   28158
   28182       2   28176   28194   28200       2   28176   28194   28203       2
   28167   28146   28170       4   28167   28152   28173       4   28161   28137
   28164       1   28158   28137   28161       2   28158   28137   28164       2
   28158   28176   28188       2   28158   28176   28191       2   28152   28134
   28155       4   28152   28167   28185       4   28146   28131   28149       4
   28146   28167   28185       4   28140   28122   28143       1   28137   28122
   28140       2   28137   28122   28143       2   28137   28158   28179       2
   28137   28158   28182       2   28134   28152   28173       4   28131   28146
   28170       4   28125   28110   28128       1   28122   28110   28125       2
   28122   28110   28128       2   28122   28137   28161       2   28122   28137
   28164       2   28119   28131   28149       8   28119   28134   28155       8
   28113   28092   28116       1   28110   28092   28113       2   28110   28092
   28116       2   28110   28122   28140       2   28110   28122   28143       2
   28101   28080   28104       8   28101   28083   28107       8   28095   28074
   28098       1   28092   28074   28095       2   28092   28074   28098       2
   28092   28110   28125       2   28092   28110   28128       2   28083   28068
   28086       4   28074   28092   28113       2   28074   28092   28116       2
   28071   28062   28077       4   28068   28083   28107       4   28065   28080
   28104       4   28062   28071   28089       4   28056   28044   28059       4
   28056   28071   28089       4   28056   28074   28095      12   28056   28074
   28098      12   28053   28068   28086       4   28047   28062   28077       4
   28035   28044   28059       4   28410   28401   28413       1   28407   28401
   28410       1   28407   28401   28413       1   28401   28389   28404       2
   28398   28389   28401       2   28398   28389   28404       1   28392   28386
   28395       1   28389   28386   28392       2   28389   28386   28395       2
   28389   28401   28407       2   28389   28401   28410       2   28389   28401
   28413       2   28386   28389   28398       2   28386   28389   28404       2
   28383   28368   28386       2   28380   28368   28383       1   28380   28368
   28386       2   28371   28350   28374       1   28368   28350   28371       2
   28368   28350   28374       2   28368   28386   28392       2   28368   28386
   28395       2   28359   28338   28362       4   28359   28344   28365       4
   28353   28329   28356       1   28350   28329   28353       2   28350   28329
   28356       2   28350   28368   28380       2   28350   28368   28383       2
   28344   28326   28347       4   28344   28359   28377       4   28338   28323
   28341       4   28338   28359   28377       4   28332   28314   28335       1
   28329   28314   28332       2   28329   28314   28335       2   28329   28350
   28371       2   28329   28350   28374       2   28326   28344   28365       4
   28323   28338   28362       4   28317   28302   28320       1   28314   28302
   28317       2   28314   28302   28320       2   28314   28329   28353       2
   28314   28329   28356       2   28311   28323   28341       8   28311   28326
   28347       8   28305   28284   28308       1   28302   28284   28305       2
   28302   28284   28308       2   28302   28314   28332       2   28302   28314
   28335       2   28293   28272   28296       8   28293   28275   28299       8
   28287   28266   28290       1   28284   28266   28287       2   28284   28266
   28290       2   28284   28302   28317       2   28284   28302   28320       2
   28275   28260   28278       4   28266   28284   28305       2   28266   28284
   28308       2   28263   28254   28269       4   28260   28275   28299       4
   28257   28272   28296       4   28254   28263   28281       4   28248   28236
   28251       4   28248   28263   28281       4   28248   28266   28287      12
   28248   28266   28290      12   28245   28260   28278       4   28239   28254
   28269       4   28227   28236   28251       4   28602   28593   28605       1
   28599   28593   28602       1   28599   28593   28605       1   28593   28581
   28596       2   28590   28581   28593       2   28590   28581   28596       1
   28584   28578   28587       1   28581   28578   28584       2   28581   28578
   28587       2   28581   28593   28599       2   28581   28593   28602       2
   28581   28593   28605       2   28578   28581   28590       2   28578   28581
   28596       2   28575   28560   28578       2   28572   28560   28575       1
   28572   28560   28578       2   28563   28542   28566       1   28560   28542
   28563       2   28560   28542   28566       2   28560   28578   28584       2
   28560   28578   28587       2   28551   28530   28554       4   28551   28536
   28557       4   28545   28521   28548       1   28542   28521   28545       2
   28542   28521   28548       2   28542   28560   28572       2   28542   28560
   28575       2   28536   28518   28539       4   28536   28551   28569       4
   28530   28515   28533       4   28530   28551   28569       4   28524   28506
   28527       1   28521   28506   28524       2   28521   28506   28527       2
   28521   28542   28563       2   28521   28542   28566       2   28518   28536
   28557       4   28515   28530   28554       4   28509   28494   28512       1
   28506   28494   28509       2   28506   28494   28512       2   28506   28521
   28545       2   28506   28521   28548       2   28503   28515   28533       8
   28503   28518   28539       8   28497   28476   28500       1   28494   28476
   28497       2   28494   28476   28500       2   28494   28506   28524       2
   28494   28506   28527       2   28485   28464   28488       8   28485   28467
   28491       8   28479   28458   28482       1   28476   28458   28479       2
   28476   28458   28482       2   28476   28494   28509       2   28476   28494
   28512       2   28467   28452   28470       4   28458   28476   28497       2
   28458   28476   28500       2   28455   28446   28461       4   28452   28467
   28491       4   28449   28464   28488       4   28446   28455   28473       4
   28440   28428   28443       4   28440   28455   28473       4   28440   28458
   28479      12   28440   28458   28482      12   28437   28452   28470       4
   28431   28446   28461       4   28419   28428   28443       4   28794   28785
   28797       1   28791   28785   28794       1   28791   28785   28797       1
   28785   28773   28788       2   28782   28773   28785       2   28782   28773
   28788       1   28776   28770   28779       1   28773   28770   28776       2
   28773   28770   28779       2   28773   28785   28791       2   28773   28785
   28794       2   28773   28785   28797       2   28770   28773   28782       2
   28770   28773   28788       2   28767   28752   28770       2   28764   28752
   28767       1   28764   28752   28770       2   28755   28734   28758       1
   28752   28734   28755       2   28752   28734   28758       2   28752   28770
   28776       2   28752   28770   28779       2   28743   28722   28746       4
   28743   28728   28749       4   28737   28713   28740       1   28734   28713
   28737       2   28734   28713   28740       2   28734   28752   28764       2
   28734   28752   28767       2   28728   28710   28731       4   28728   28743
   28761       4   28722   28707   28725       4   28722   28743   28761       4
   28716   28698   28719       1   28713   28698   28716       2   28713   28698
   28719       2   28713   28734   28755       2   28713   28734   28758       2
   28710   28728   28749       4   28707   28722   28746       4   28701   28686
   28704       1   28698   28686   28701       2   28698   28686   28704       2
   28698   28713   28737       2   28698   28713   28740       2   28695   28707
   28725       8   28695   28710   28731       8   28689   28668   28692       1
   28686   28668   28689       2   28686   28668   28692       2   28686   28698
   28716       2   28686   28698   28719       2   28677   28656   28680       8
   28677   28659   28683       8   28671   28650   28674       1   28668   28650
   28671       2   28668   28650   28674       2   28668   28686   28701       2
   28668   28686   28704       2   28659   28644   28662       4   28650   28668
   28689       2   28650   28668   28692       2   28647   28638   28653       4
   28644   28659   28683       4   28641   28656   28680       4   28638   28647
   28665       4   28632   28620   28635       4   28632   28647   28665       4
   28632   28650   28671      12   28632   28650   28674      12   28629   28644
   28662       4   28623   28638   28653       4   28611   28620   28635       4
   28986   28977   28989       1   28983   28977   28986       1   28983   28977
   28989       1   28977   28965   28980       2   28974   28965   28977       2
   28974   28965   28980       1   28968   28962   28971       1   28965   28962
   28968       2   28965   28962   28971       2   28965   28977   28983       2
   28965   28977   28986       2   28965   28977   28989       2   28962   28965
   28974       2   28962   28965   28980       2   28959   28944   28962       2
   28956   28944   28959       1   28956   28944   28962       2   28947   28926
   28950       1   28944   28926   28947       2   28944   28926   28950       2
   28944   28962   28968       2   28944   28962   28971       2   28935   28914
   28938       4   28935   28920   28941       4   28929   28905   28932       1
   28926   28905   28929       2   28926   28905   28932       2   28926   28944
   28956       2   28926   28944   28959       2   28920   28902   28923       4
   28920   28935   28953       4   28914   28899   28917       4   28914   28935
   28953       4   28908   28890   28911       1   28905   28890   28908       2
   28905   28890   28911       2   28905   28926   28947       2   28905   28926
   28950       2   28902   28920   28941       4   28899   28914   28938       4
   28893   28878   28896       1   28890   28878   28893       2   28890   28878
   28896       2   28890   28905   28929       2   28890   28905   28932       2
   28887   28899   28917       8   28887   28902   28923       8   28881   28860
   28884       1   28878   28860   28881       2   28878   28860   28884       2
   28878   28890   28908       2   28878   28890   28911       2   28869   28848
   28872       8   28869   28851   28875       8   28863   28842   28866       1
   28860   28842   28863       2   28860   28842   28866       2   28860   28878
   28893       2   28860   28878   28896       2   28851   28836   28854       4
   28842   28860   28881       2   28842   28860   28884       2   28839   28830
   28845       4   28836   28851   28875       4   28833   28848   28872       4
   28830   28839   28857       4   28824   28812   28827       4   28824   28839
   28857       4   28824   28842   28863      12   28824   28842   28866      12
   28821   28836   28854       4   28815   28830   28845       4   28803   28812
   28827       4   29178   29169   29181       1   29175   29169   29178       1
   29175   29169   29181       1   29169   29157   29172       2   29166   29157
   29169       2   29166   29157   29172       1   29160   29154   29163       1
   29157   29154   29160       2   29157   29154   29163       2   29157   29169
   29175       2   29157   29169   29178       2   29157   29169   29181       2
   29154   29157   29166       2   29154   29157   29172       2   29151   29136
   29154       2   29148   29136   29151       1   29148   29136   29154       2
   29139   29118   29142       1   29136   29118   29139       2   29136   29118
   29142       2   29136   29154   29160       2   29136   29154   29163       2
   29127   29106   29130       4   29127   29112   29133       4   29121   29097
   29124       1   29118   29097   29121       2   29118   29097   29124       2
   29118   29136   29148       2   29118   29136   29151       2   29112   29094
   29115       4   29112   29127   29145       4   29106   29091   29109       4
   29106   29127   29145       4   29100   29082   29103       1   29097   29082
   29100       2   29097   29082   29103       2   29097   29118   29139       2
   29097   29118   29142       2   29094   29112   29133       4   29091   29106
   29130       4   29085   29070   29088       1   29082   29070   29085       2
   29082   29070   29088       2   29082   29097   29121       2   29082   29097
   29124       2   29079   29091   29109       8   29079   29094   29115       8
   29073   29052   29076       1   29070   29052   29073       2   29070   29052
   29076       2   29070   29082   29100       2   29070   29082   29103       2
   29061   29040   29064       8   29061   29043   29067       8   29055   29034
   29058       1   29052   29034   29055       2   29052   29034   29058       2
   29052   29070   29085       2   29052   29070   29088       2   29043   29028
   29046       4   29034   29052   29073       2   29034   29052   29076       2
   29031   29022   29037       4   29028   29043   29067       4   29025   29040
   29064       4   29022   29031   29049       4   29016   29004   29019       4
   29016   29031   29049       4   29016   29034   29055      12   29016   29034
   29058      12   29013   29028   29046       4   29007   29022   29037       4
   28995   29004   29019       4   29370   29361   29373       1   29367   29361
   29370       1   29367   29361   29373       1   29361   29349   29364       2
   29358   29349   29361       2   29358   29349   29364       1   29352   29346
   29355       1   29349   29346   29352       2   29349   29346   29355       2
   29349   29361   29367       2   29349   29361   29370       2   29349   29361
   29373       2   29346   29349   29358       2   29346   29349   29364       2
   29343   29328   29346       2   29340   29328   29343       1   29340   29328
   29346       2   29331   29310   29334       1   29328   29310   29331       2
   29328   29310   29334       2   29328   29346   29352       2   29328   29346
   29355       2   29319   29298   29322       4   29319   29304   29325       4
   29313   29289   29316       1   29310   29289   29313       2   29310   29289
   29316       2   29310   29328   29340       2   29310   29328   29343       2
   29304   29286   29307       4   29304   29319   29337       4   29298   29283
   29301       4   29298   29319   29337       4   29292   29274   29295       1
   29289   29274   29292       2   29289   29274   29295       2   29289   29310
   29331       2   29289   29310   29334       2   29286   29304   29325       4
   29283   29298   29322       4   29277   29262   29280       1   29274   29262
   29277       2   29274   29262   29280       2   29274   29289   29313       2
   29274   29289   29316       2   29271   29283   29301       8   29271   29286
   29307       8   29265   29244   29268       1   29262   29244   29265       2
   29262   29244   29268       2   29262   29274   29292       2   29262   29274
   29295       2   29253   29232   29256       8   29253   29235   29259       8
   29247   29226   29250       1   29244   29226   29247       2   29244   29226
   29250       2   29244   29262   29277       2   29244   29262   29280       2
   29235   29220   29238       4   29226   29244   29265       2   29226   29244
   29268       2   29223   29214   29229       4   29220   29235   29259       4
   29217   29232   29256       4   29214   29223   29241       4   29208   29196
   29211       4   29208   29223   29241       4   29208   29226   29247      12
   29208   29226   29250      12   29205   29220   29238       4   29199   29214
   29229       4   29187   29196   29211       4   29562   29553   29565       1
   29559   29553   29562       1   29559   29553   29565       1   29553   29541
   29556       2   29550   29541   29553       2   29550   29541   29556       1
   29544   29538   29547       1   29541   29538   29544       2   29541   29538
   29547       2   29541   29553   29559       2   29541   29553   29562       2
   29541   29553   29565       2   29538   29541   29550       2   29538   29541
   29556       2   29535   29520   29538       2   29532   29520   29535       1
   29532   29520   29538       2   29523   29502   29526       1   29520   29502
   29523       2   29520   29502   29526       2   29520   29538   29544       2
   29520   29538   29547       2   29511   29490   29514       4   29511   29496
   29517       4   29505   29481   29508       1   29502   29481   29505       2
   29502   29481   29508       2   29502   29520   29532       2   29502   29520
   29535       2   29496   29478   29499       4   29496   29511   29529       4
   29490   29475   29493       4   29490   29511   29529       4   29484   29466
   29487       1   29481   29466   29484       2   29481   29466   29487       2
   29481   29502   29523       2   29481   29502   29526       2   29478   29496
   29517       4   29475   29490   29514       4   29469   29454   29472       1
   29466   29454   29469       2   29466   29454   29472       2   29466   29481
   29505       2   29466   29481   29508       2   29463   29475   29493       8
   29463   29478   29499       8   29457   29436   29460       1   29454   29436
   29457       2   29454   29436   29460       2   29454   29466   29484       2
   29454   29466   29487       2   29445   29424   29448       8   29445   29427
   29451       8   29439   29418   29442       1   29436   29418   29439       2
   29436   29418   29442       2   29436   29454   29469       2   29436   29454
   29472       2   29427   29412   29430       4   29418   29436   29457       2
   29418   29436   29460       2   29415   29406   29421       4   29412   29427
   29451       4   29409   29424   29448       4   29406   29415   29433       4
   29400   29388   29403       4   29400   29415   29433       4   29400   29418
   29439      12   29400   29418   29442      12   29397   29412   29430       4
   29391   29406   29421       4   29379   29388   29403       4   29754   29745
   29757       1   29751   29745   29754       1   29751   29745   29757       1
   29745   29733   29748       2   29742   29733   29745       2   29742   29733
   29748       1   29736   29730   29739       1   29733   29730   29736       2
   29733   29730   29739       2   29733   29745   29751       2   29733   29745
   29754       2   29733   29745   29757       2   29730   29733   29742       2
   29730   29733   29748       2   29727   29712   29730       2   29724   29712
   29727       1   29724   29712   29730       2   29715   29694   29718       1
   29712   29694   29715       2   29712   29694   29718       2   29712   29730
   29736       2   29712   29730   29739       2   29703   29682   29706       4
   29703   29688   29709       4   29697   29673   29700       1   29694   29673
   29697       2   29694   29673   29700       2   29694   29712   29724       2
   29694   29712   29727       2   29688   29670   29691       4   29688   29703
   29721       4   29682   29667   29685       4   29682   29703   29721       4
   29676   29658   29679       1   29673   29658   29676       2   29673   29658
   29679       2   29673   29694   29715       2   29673   29694   29718       2
   29670   29688   29709       4   29667   29682   29706       4   29661   29646
   29664       1   29658   29646   29661       2   29658   29646   29664       2
   29658   29673   29697       2   29658   29673   29700       2   29655   29667
   29685       8   29655   29670   29691       8   29649   29628   29652       1
   29646   29628   29649       2   29646   29628   29652       2   29646   29658
   29676       2   29646   29658   29679       2   29637   29616   29640       8
   29637   29619   29643       8   29631   29610   29634       1   29628   29610
   29631       2   29628   29610   29634       2   29628   29646   29661       2
   29628   29646   29664       2   29619   29604   29622       4   29610   29628
   29649       2   29610   29628   29652       2   29607   29598   29613       4
   29604   29619   29643       4   29601   29616   29640       4   29598   29607
   29625       4   29592   29580   29595       4   29592   29607   29625       4
   29592   29610   29631      12   29592   29610   29634      12   29589   29604
   29622       4   29583   29598   29613       4   29571   29580   29595       4
   29946   29937   29949       1   29943   29937   29946       1   29943   29937
   29949       1   29937   29925   29940       2   29934   29925   29937       2
   29934   29925   29940       1   29928   29922   29931       1   29925   29922
   29928       2   29925   29922   29931       2   29925   29937   29943       2
   29925   29937   29946       2   29925   29937   29949       2   29922   29925
   29934       2   29922   29925   29940       2   29919   29904   29922       2
   29916   29904   29919       1   29916   29904   29922       2   29907   29886
   29910       1   29904   29886   29907       2   29904   29886   29910       2
   29904   29922   29928       2   29904   29922   29931       2   29895   29874
   29898       4   29895   29880   29901       4   29889   29865   29892       1
   29886   29865   29889       2   29886   29865   29892       2   29886   29904
   29916       2   29886   29904   29919       2   29880   29862   29883       4
   29880   29895   29913       4   29874   29859   29877       4   29874   29895
   29913       4   29868   29850   29871       1   29865   29850   29868       2
   29865   29850   29871       2   29865   29886   29907       2   29865   29886
   29910       2   29862   29880   29901       4   29859   29874   29898       4
   29853   29838   29856       1   29850   29838   29853       2   29850   29838
   29856       2   29850   29865   29889       2   29850   29865   29892       2
   29847   29859   29877       8   29847   29862   29883       8   29841   29820
   29844       1   29838   29820   29841       2   29838   29820   29844       2
   29838   29850   29868       2   29838   29850   29871       2   29829   29808
   29832       8   29829   29811   29835       8   29823   29802   29826       1
   29820   29802   29823       2   29820   29802   29826       2   29820   29838
   29853       2   29820   29838   29856       2   29811   29796   29814       4
   29802   29820   29841       2   29802   29820   29844       2   29799   29790
   29805       4   29796   29811   29835       4   29793   29808   29832       4
   29790   29799   29817       4   29784   29772   29787       4   29784   29799
   29817       4   29784   29802   29823      12   29784   29802   29826      12
   29781   29796   29814       4   29775   29790   29805       4   29763   29772
   29787       4   30138   30129   30141       1   30135   30129   30138       1
   30135   30129   30141       1   30129   30117   30132       2   30126   30117
   30129       2   30126   30117   30132       1   30120   30114   30123       1
   30117   30114   30120       2   30117   30114   30123       2   30117   30129
   30135       2   30117   30129   30138       2   30117   30129   30141       2
   30114   30117   30126       2   30114   30117   30132       2   30111   30096
   30114       2   30108   30096   30111       1   30108   30096   30114       2
   30099   30078   30102       1   30096   30078   30099       2   30096   30078
   30102       2   30096   30114   30120       2   30096   30114   30123       2
   30087   30066   30090       4   30087   30072   30093       4   30081   30057
   30084       1   30078   30057   30081       2   30078   30057   30084       2
   30078   30096   30108       2   30078   30096   30111       2   30072   30054
   30075       4   30072   30087   30105       4   30066   30051   30069       4
   30066   30087   30105       4   30060   30042   30063       1   30057   30042
   30060       2   30057   30042   30063       2   30057   30078   30099       2
   30057   30078   30102       2   30054   30072   30093       4   30051   30066
   30090       4   30045   30030   30048       1   30042   30030   30045       2
   30042   30030   30048       2   30042   30057   30081       2   30042   30057
   30084       2   30039   30051   30069       8   30039   30054   30075       8
   30033   30012   30036       1   30030   30012   30033       2   30030   30012
   30036       2   30030   30042   30060       2   30030   30042   30063       2
   30021   30000   30024       8   30021   30003   30027       8   30015   29994
   30018       1   30012   29994   30015       2   30012   29994   30018       2
   30012   30030   30045       2   30012   30030   30048       2   30003   29988
   30006       4   29994   30012   30033       2   29994   30012   30036       2
   29991   29982   29997       4   29988   30003   30027       4   29985   30000
   30024       4   29982   29991   30009       4   29976   29964   29979       4
   29976   29991   30009       4   29976   29994   30015      12   29976   29994
   30018      12   29973   29988   30006       4   29967   29982   29997       4
   29955   29964   29979       4   30330   30321   30333       1   30327   30321
   30330       1   30327   30321   30333       1   30321   30309   30324       2
   30318   30309   30321       2   30318   30309   30324       1   30312   30306
   30315       1   30309   30306   30312       2   30309   30306   30315       2
   30309   30321   30327       2   30309   30321   30330       2   30309   30321
   30333       2   30306   30309   30318       2   30306   30309   30324       2
   30303   30288   30306       2   30300   30288   30303       1   30300   30288
   30306       2   30291   30270   30294       1   30288   30270   30291       2
   30288   30270   30294       2   30288   30306   30312       2   30288   30306
   30315       2   30279   30258   30282       4   30279   30264   30285       4
   30273   30249   30276       1   30270   30249   30273       2   30270   30249
   30276       2   30270   30288   30300       2   30270   30288   30303       2
   30264   30246   30267       4   30264   30279   30297       4   30258   30243
   30261       4   30258   30279   30297       4   30252   30234   30255       1
   30249   30234   30252       2   30249   30234   30255       2   30249   30270
   30291       2   30249   30270   30294       2   30246   30264   30285       4
   30243   30258   30282       4   30237   30222   30240       1   30234   30222
   30237       2   30234   30222   30240       2   30234   30249   30273       2
   30234   30249   30276       2   30231   30243   30261       8   30231   30246
   30267       8   30225   30204   30228       1   30222   30204   30225       2
   30222   30204   30228       2   30222   30234   30252       2   30222   30234
   30255       2   30213   30192   30216       8   30213   30195   30219       8
   30207   30186   30210       1   30204   30186   30207       2   30204   30186
   30210       2   30204   30222   30237       2   30204   30222   30240       2
   30195   30180   30198       4   30186   30204   30225       2   30186   30204
   30228       2   30183   30174   30189       4   30180   30195   30219       4
   30177   30192   30216       4   30174   30183   30201       4   30168   30156
   30171       4   30168   30183   30201       4   30168   30186   30207      12
   30168   30186   30210      12   30165   30180   30198       4   30159   30174
   30189       4   30147   30156   30171       4   30522   30513   30525       1
   30519   30513   30522       1   30519   30513   30525       1   30513   30501
   30516       2   30510   30501   30513       2   30510   30501   30516       1
   30504   30498   30507       1   30501   30498   30504       2   30501   30498
   30507       2   30501   30513   30519       2   30501   30513   30522       2
   30501   30513   30525       2   30498   30501   30510       2   30498   30501
   30516       2   30495   30480   30498       2   30492   30480   30495       1
   30492   30480   30498       2   30483   30462   30486       1   30480   30462
   30483       2   30480   30462   30486       2   30480   30498   30504       2
   30480   30498   30507       2   30471   30450   30474       4   30471   30456
   30477       4   30465   30441   30468       1   30462   30441   30465       2
   30462   30441   30468       2   30462   30480   30492       2   30462   30480
   30495       2   30456   30438   30459       4   30456   30471   30489       4
   30450   30435   30453       4   30450   30471   30489       4   30444   30426
   30447       1   30441   30426   30444       2   30441   30426   30447       2
   30441   30462   30483       2   30441   30462   30486       2   30438   30456
   30477       4   30435   30450   30474       4   30429   30414   30432       1
   30426   30414   30429       2   30426   30414   30432       2   30426   30441
   30465       2   30426   30441   30468       2   30423   30435   30453       8
   30423   30438   30459       8   30417   30396   30420       1   30414   30396
   30417       2   30414   30396   30420       2   30414   30426   30444       2
   30414   30426   30447       2   30405   30384   30408       8   30405   30387
   30411       8   30399   30378   30402       1   30396   30378   30399       2
   30396   30378   30402       2   30396   30414   30429       2   30396   30414
   30432       2   30387   30372   30390       4   30378   30396   30417       2
   30378   30396   30420       2   30375   30366   30381       4   30372   30387
   30411       4   30369   30384   30408       4   30366   30375   30393       4
   30360   30348   30363       4   30360   30375   30393       4   30360   30378
   30399      12   30360   30378   30402      12   30357   30372   30390       4
   30351   30366   30381       4   30339   30348   30363       4   30714   30705
   30717       1   30711   30705   30714       1   30711   30705   30717       1
   30705   30693   30708       2   30702   30693   30705       2   30702   30693
   30708       1   30696   30690   30699       1   30693   30690   30696       2
   30693   30690   30699       2   30693   30705   30711       2   30693   30705
   30714       2   30693   30705   30717       2   30690   30693   30702       2
   30690   30693   30708       2   30687   30672   30690       2   30684   30672
   30687       1   30684   30672   30690       2   30675   30654   30678       1
   30672   30654   30675       2   30672   30654   30678       2   30672   30690
   30696       2   30672   30690   30699       2   30663   30642   30666       4
   30663   30648   30669       4   30657   30633   30660       1   30654   30633
   30657       2   30654   30633   30660       2   30654   30672   30684       2
   30654   30672   30687       2   30648   30630   30651       4   30648   30663
   30681       4   30642   30627   30645       4   30642   30663   30681       4
   30636   30618   30639       1   30633   30618   30636       2   30633   30618
   30639       2   30633   30654   30675       2   30633   30654   30678       2
   30630   30648   30669       4   30627   30642   30666       4   30621   30606
   30624       1   30618   30606   30621       2   30618   30606   30624       2
   30618   30633   30657       2   30618   30633   30660       2   30615   30627
   30645       8   30615   30630   30651       8   30609   30588   30612       1
   30606   30588   30609       2   30606   30588   30612       2   30606   30618
   30636       2   30606   30618   30639       2   30597   30576   30600       8
   30597   30579   30603       8   30591   30570   30594       1   30588   30570
   30591       2   30588   30570   30594       2   30588   30606   30621       2
   30588   30606   30624       2   30579   30564   30582       4   30570   30588
   30609       2   30570   30588   30612       2   30567   30558   30573       4
   30564   30579   30603       4   30561   30576   30600       4   30558   30567
   30585       4   30552   30540   30555       4   30552   30567   30585       4
   30552   30570   30591      12   30552   30570   30594      12   30549   30564
   30582       4   30543   30558   30573       4   30531   30540   30555       4
   30906   30897   30909       1   30903   30897   30906       1   30903   30897
   30909       1   30897   30885   30900       2   30894   30885   30897       2
   30894   30885   30900       1   30888   30882   30891       1   30885   30882
   30888       2   30885   30882   30891       2   30885   30897   30903       2
   30885   30897   30906       2   30885   30897   30909       2   30882   30885
   30894       2   30882   30885   30900       2   30879   30864   30882       2
   30876   30864   30879       1   30876   30864   30882       2   30867   30846
   30870       1   30864   30846   30867       2   30864   30846   30870       2
   30864   30882   30888       2   30864   30882   30891       2   30855   30834
   30858       4   30855   30840   30861       4   30849   30825   30852       1
   30846   30825   30849       2   30846   30825   30852       2   30846   30864
   30876       2   30846   30864   30879       2   30840   30822   30843       4
   30840   30855   30873       4   30834   30819   30837       4   30834   30855
   30873       4   30828   30810   30831       1   30825   30810   30828       2
   30825   30810   30831       2   30825   30846   30867       2   30825   30846
   30870       2   30822   30840   30861       4   30819   30834   30858       4
   30813   30798   30816       1   30810   30798   30813       2   30810   30798
   30816       2   30810   30825   30849       2   30810   30825   30852       2
   30807   30819   30837       8   30807   30822   30843       8   30801   30780
   30804       1   30798   30780   30801       2   30798   30780   30804       2
   30798   30810   30828       2   30798   30810   30831       2   30789   30768
   30792       8   30789   30771   30795       8   30783   30762   30786       1
   30780   30762   30783       2   30780   30762   30786       2   30780   30798
   30813       2   30780   30798   30816       2   30771   30756   30774       4
   30762   30780   30801       2   30762   30780   30804       2   30759   30750
   30765       4   30756   30771   30795       4   30753   30768   30792       4
   30750   30759   30777       4   30744   30732   30747       4   30744   30759
   30777       4   30744   30762   30783      12   30744   30762   30786      12
   30741   30756   30774       4   30735   30750   30765       4   30723   30732
   30747       4   31098   31089   31101       1   31095   31089   31098       1
   31095   31089   31101       1   31089   31077   31092       2   31086   31077
   31089       2   31086   31077   31092       1   31080   31074   31083       1
   31077   31074   31080       2   31077   31074   31083       2   31077   31089
   31095       2   31077   31089   31098       2   31077   31089   31101       2
   31074   31077   31086       2   31074   31077   31092       2   31071   31056
   31074       2   31068   31056   31071       1   31068   31056   31074       2
   31059   31038   31062       1   31056   31038   31059       2   31056   31038
   31062       2   31056   31074   31080       2   31056   31074   31083       2
   31047   31026   31050       4   31047   31032   31053       4   31041   31017
   31044       1   31038   31017   31041       2   31038   31017   31044       2
   31038   31056   31068       2   31038   31056   31071       2   31032   31014
   31035       4   31032   31047   31065       4   31026   31011   31029       4
   31026   31047   31065       4   31020   31002   31023       1   31017   31002
   31020       2   31017   31002   31023       2   31017   31038   31059       2
   31017   31038   31062       2   31014   31032   31053       4   31011   31026
   31050       4   31005   30990   31008       1   31002   30990   31005       2
   31002   30990   31008       2   31002   31017   31041       2   31002   31017
   31044       2   30999   31011   31029       8   30999   31014   31035       8
   30993   30972   30996       1   30990   30972   30993       2   30990   30972
   30996       2   30990   31002   31020       2   30990   31002   31023       2
   30981   30960   30984       8   30981   30963   30987       8   30975   30954
   30978       1   30972   30954   30975       2   30972   30954   30978       2
   30972   30990   31005       2   30972   30990   31008       2   30963   30948
   30966       4   30954   30972   30993       2   30954   30972   30996       2
   30951   30942   30957       4   30948   30963   30987       4   30945   30960
   30984       4   30942   30951   30969       4   30936   30924   30939       4
   30936   30951   30969       4   30936   30954   30975      12   30936   30954
   30978      12   30933   30948   30966       4   30927   30942   30957       4
   30915   30924   30939       4   31290   31281   31293       1   31287   31281
   31290       1   31287   31281   31293       1   31281   31269   31284       2
   31278   31269   31281       2   31278   31269   31284       1   31272   31266
   31275       1   31269   31266   31272       2   31269   31266   31275       2
   31269   31281   31287       2   31269   31281   31290       2   31269   31281
   31293       2   31266   31269   31278       2   31266   31269   31284       2
   31263   31248   31266       2   31260   31248   31263       1   31260   31248
   31266       2   31251   31230   31254       1   31248   31230   31251       2
   31248   31230   31254       2   31248   31266   31272       2   31248   31266
   31275       2   31239   31218   31242       4   31239   31224   31245       4
   31233   31209   31236       1   31230   31209   31233       2   31230   31209
   31236       2   31230   31248   31260       2   31230   31248   31263       2
   31224   31206   31227       4   31224   31239   31257       4   31218   31203
   31221       4   31218   31239   31257       4   31212   31194   31215       1
   31209   31194   31212       2   31209   31194   31215       2   31209   31230
   31251       2   31209   31230   31254       2   31206   31224   31245       4
   31203   31218   31242       4   31197   31182   31200       1   31194   31182
   31197       2   31194   31182   31200       2   31194   31209   31233       2
   31194   31209   31236       2   31191   31203   31221       8   31191   31206
   31227       8   31185   31164   31188       1   31182   31164   31185       2
   31182   31164   31188       2   31182   31194   31212       2   31182   31194
   31215       2   31173   31152   31176       8   31173   31155   31179       8
   31167   31146   31170       1   31164   31146   31167       2   31164   31146
   31170       2   31164   31182   31197       2   31164   31182   31200       2
   31155   31140   31158       4   31146   31164   31185       2   31146   31164
   31188       2   31143   31134   31149       4   31140   31155   31179       4
   31137   31152   31176       4   31134   31143   31161       4   31128   31116
   31131       4   31128   31143   31161       4   31128   31146   31167      12
   31128   31146   31170      12   31125   31140   31158       4   31119   31134
   31149       4   31107   31116   31131       4   31482   31473   31485       1
   31479   31473   31482       1   31479   31473   31485       1   31473   31461
   31476       2   31470   31461   31473       2   31470   31461   31476       1
   31464   31458   31467       1   31461   31458   31464       2   31461   31458
   31467       2   31461   31473   31479       2   31461   31473   31482       2
   31461   31473   31485       2   31458   31461   31470       2   31458   31461
   31476       2   31455   31440   31458       2   31452   31440   31455       1
   31452   31440   31458       2   31443   31422   31446       1   31440   31422
   31443       2   31440   31422   31446       2   31440   31458   31464       2
   31440   31458   31467       2   31431   31410   31434       4   31431   31416
   31437       4   31425   31401   31428       1   31422   31401   31425       2
   31422   31401   31428       2   31422   31440   31452       2   31422   31440
   31455       2   31416   31398   31419       4   31416   31431   31449       4
   31410   31395   31413       4   31410   31431   31449       4   31404   31386
   31407       1   31401   31386   31404       2   31401   31386   31407       2
   31401   31422   31443       2   31401   31422   31446       2   31398   31416
   31437       4   31395   31410   31434       4   31389   31374   31392       1
   31386   31374   31389       2   31386   31374   31392       2   31386   31401
   31425       2   31386   31401   31428       2   31383   31395   31413       8
   31383   31398   31419       8   31377   31356   31380       1   31374   31356
   31377       2   31374   31356   31380       2   31374   31386   31404       2
   31374   31386   31407       2   31365   31344   31368       8   31365   31347
   31371       8   31359   31338   31362       1   31356   31338   31359       2
   31356   31338   31362       2   31356   31374   31389       2   31356   31374
   31392       2   31347   31332   31350       4   31338   31356   31377       2
   31338   31356   31380       2   31335   31326   31341       4   31332   31347
   31371       4   31329   31344   31368       4   31326   31335   31353       4
   31320   31308   31323       4   31320   31335   31353       4   31320   31338
   31359      12   31320   31338   31362      12   31317   31332   31350       4
   31311   31326   31341       4   31299   31308   31323       4   31674   31665
   31677       1   31671   31665   31674       1   31671   31665   31677       1
   31665   31653   31668       2   31662   31653   31665       2   31662   31653
   31668       1   31656   31650   31659       1   31653   31650   31656       2
   31653   31650   31659       2   31653   31665   31671       2   31653   31665
   31674       2   31653   31665   31677       2   31650   31653   31662       2
   31650   31653   31668       2   31647   31632   31650       2   31644   31632
   31647       1   31644   31632   31650       2   31635   31614   31638       1
   31632   31614   31635       2   31632   31614   31638       2   31632   31650
   31656       2   31632   31650   31659       2   31623   31602   31626       4
   31623   31608   31629       4   31617   31593   31620       1   31614   31593
   31617       2   31614   31593   31620       2   31614   31632   31644       2
   31614   31632   31647       2   31608   31590   31611       4   31608   31623
   31641       4   31602   31587   31605       4   31602   31623   31641       4
   31596   31578   31599       1   31593   31578   31596       2   31593   31578
   31599       2   31593   31614   31635       2   31593   31614   31638       2
   31590   31608   31629       4   31587   31602   31626       4   31581   31566
   31584       1   31578   31566   31581       2   31578   31566   31584       2
   31578   31593   31617       2   31578   31593   31620       2   31575   31587
   31605       8   31575   31590   31611       8   31569   31548   31572       1
   31566   31548   31569       2   31566   31548   31572       2   31566   31578
   31596       2   31566   31578   31599       2   31557   31536   31560       8
   31557   31539   31563       8   31551   31530   31554       1   31548   31530
   31551       2   31548   31530   31554       2   31548   31566   31581       2
   31548   31566   31584       2   31539   31524   31542       4   31530   31548
   31569       2   31530   31548   31572       2   31527   31518   31533       4
   31524   31539   31563       4   31521   31536   31560       4   31518   31527
   31545       4   31512   31500   31515       4   31512   31527   31545       4
   31512   31530   31551      12   31512   31530   31554      12   31509   31524
   31542       4   31503   31518   31533       4   31491   31500   31515       4
   31866   31857   31869       1   31863   31857   31866       1   31863   31857
   31869       1   31857   31845   31860       2   31854   31845   31857       2
   31854   31845   31860       1   31848   31842   31851       1   31845   31842
   31848       2   31845   31842   31851       2   31845   31857   31863       2
   31845   31857   31866       2   31845   31857   31869       2   31842   31845
   31854       2   31842   31845   31860       2   31839   31824   31842       2
   31836   31824   31839       1   31836   31824   31842       2   31827   31806
   31830       1   31824   31806   31827       2   31824   31806   31830       2
   31824   31842   31848       2   31824   31842   31851       2   31815   31794
   31818       4   31815   31800   31821       4   31809   31785   31812       1
   31806   31785   31809       2   31806   31785   31812       2   31806   31824
   31836       2   31806   31824   31839       2   31800   31782   31803       4
   31800   31815   31833       4   31794   31779   31797       4   31794   31815
   31833       4   31788   31770   31791       1   31785   31770   31788       2
   31785   31770   31791       2   31785   31806   31827       2   31785   31806
   31830       2   31782   31800   31821       4   31779   31794   31818       4
   31773   31758   31776       1   31770   31758   31773       2   31770   31758
   31776       2   31770   31785   31809       2   31770   31785   31812       2
   31767   31779   31797       8   31767   31782   31803       8   31761   31740
   31764       1   31758   31740   31761       2   31758   31740   31764       2
   31758   31770   31788       2   31758   31770   31791       2   31749   31728
   31752       8   31749   31731   31755       8   31743   31722   31746       1
   31740   31722   31743       2   31740   31722   31746       2   31740   31758
   31773       2   31740   31758   31776       2   31731   31716   31734       4
   31722   31740   31761       2   31722   31740   31764       2   31719   31710
   31725       4   31716   31731   31755       4   31713   31728   31752       4
   31710   31719   31737       4   31704   31692   31707       4   31704   31719
   31737       4   31704   31722   31743      12   31704   31722   31746      12
   31701   31716   31734       4   31695   31710   31725       4   31683   31692
   31707       4   32058   32049   32061       1   32055   32049   32058       1
   32055   32049   32061       1   32049   32037   32052       2   32046   32037
   32049       2   32046   32037   32052       1   32040   32034   32043       1
   32037   32034   32040       2   32037   32034   32043       2   32037   32049
   32055       2   32037   32049   32058       2   32037   32049   32061       2
   32034   32037   32046       2   32034   32037   32052       2   32031   32016
   32034       2   32028   32016   32031       1   32028   32016   32034       2
   32019   31998   32022       1   32016   31998   32019       2   32016   31998
   32022       2   32016   32034   32040       2   32016   32034   32043       2
   32007   31986   32010       4   32007   31992   32013       4   32001   31977
   32004       1   31998   31977   32001       2   31998   31977   32004       2
   31998   32016   32028       2   31998   32016   32031       2   31992   31974
   31995       4   31992   32007   32025       4   31986   31971   31989       4
   31986   32007   32025       4   31980   31962   31983       1   31977   31962
   31980       2   31977   31962   31983       2   31977   31998   32019       2
   31977   31998   32022       2   31974   31992   32013       4   31971   31986
   32010       4   31965   31950   31968       1   31962   31950   31965       2
   31962   31950   31968       2   31962   31977   32001       2   31962   31977
   32004       2   31959   31971   31989       8   31959   31974   31995       8
   31953   31932   31956       1   31950   31932   31953       2   31950   31932
   31956       2   31950   31962   31980       2   31950   31962   31983       2
   31941   31920   31944       8   31941   31923   31947       8   31935   31914
   31938       1   31932   31914   31935       2   31932   31914   31938       2
   31932   31950   31965       2   31932   31950   31968       2   31923   31908
   31926       4   31914   31932   31953       2   31914   31932   31956       2
   31911   31902   31917       4   31908   31923   31947       4   31905   31920
   31944       4   31902   31911   31929       4   31896   31884   31899       4
   31896   31911   31929       4   31896   31914   31935      12   31896   31914
   31938      12   31893   31908   31926       4   31887   31902   31917       4
   31875   31884   31899       4   32250   32241   32253       1   32247   32241
   32250       1   32247   32241   32253       1   32241   32229   32244       2
   32238   32229   32241       2   32238   32229   32244       1   32232   32226
   32235       1   32229   32226   32232       2   32229   32226   32235       2
   32229   32241   32247       2   32229   32241   32250       2   32229   32241
   32253       2   32226   32229   32238       2   32226   32229   32244       2
   32223   32208   32226       2   32220   32208   32223       1   32220   32208
   32226       2   32211   32190   32214       1   32208   32190   32211       2
   32208   32190   32214       2   32208   32226   32232       2   32208   32226
   32235       2   32199   32178   32202       4   32199   32184   32205       4
   32193   32169   32196       1   32190   32169   32193       2   32190   32169
   32196       2   32190   32208   32220       2   32190   32208   32223       2
   32184   32166   32187       4   32184   32199   32217       4   32178   32163
   32181       4   32178   32199   32217       4   32172   32154   32175       1
   32169   32154   32172       2   32169   32154   32175       2   32169   32190
   32211       2   32169   32190   32214       2   32166   32184   32205       4
   32163   32178   32202       4   32157   32142   32160       1   32154   32142
   32157       2   32154   32142   32160       2   32154   32169   32193       2
   32154   32169   32196       2   32151   32163   32181       8   32151   32166
   32187       8   32145   32124   32148       1   32142   32124   32145       2
   32142   32124   32148       2   32142   32154   32172       2   32142   32154
   32175       2   32133   32112   32136       8   32133   32115   32139       8
   32127   32106   32130       1   32124   32106   32127       2   32124   32106
   32130       2   32124   32142   32157       2   32124   32142   32160       2
   32115   32100   32118       4   32106   32124   32145       2   32106   32124
   32148       2   32103   32094   32109       4   32100   32115   32139       4
   32097   32112   32136       4   32094   32103   32121       4   32088   32076
   32091       4   32088   32103   32121       4   32088   32106   32127      12
   32088   32106   32130      12   32085   32100   32118       4   32079   32094
   32109       4   32067   32076   32091       4   32442   32433   32445       1
   32439   32433   32442       1   32439   32433   32445       1   32433   32421
   32436       2   32430   32421   32433       2   32430   32421   32436       1
   32424   32418   32427       1   32421   32418   32424       2   32421   32418
   32427       2   32421   32433   32439       2   32421   32433   32442       2
   32421   32433   32445       2   32418   32421   32430       2   32418   32421
   32436       2   32415   32400   32418       2   32412   32400   32415       1
   32412   32400   32418       2   32403   32382   32406       1   32400   32382
   32403       2   32400   32382   32406       2   32400   32418   32424       2
   32400   32418   32427       2   32391   32370   32394       4   32391   32376
   32397       4   32385   32361   32388       1   32382   32361   32385       2
   32382   32361   32388       2   32382   32400   32412       2   32382   32400
   32415       2   32376   32358   32379       4   32376   32391   32409       4
   32370   32355   32373       4   32370   32391   32409       4   32364   32346
   32367       1   32361   32346   32364       2   32361   32346   32367       2
   32361   32382   32403       2   32361   32382   32406       2   32358   32376
   32397       4   32355   32370   32394       4   32349   32334   32352       1
   32346   32334   32349       2   32346   32334   32352       2   32346   32361
   32385       2   32346   32361   32388       2   32343   32355   32373       8
   32343   32358   32379       8   32337   32316   32340       1   32334   32316
   32337       2   32334   32316   32340       2   32334   32346   32364       2
   32334   32346   32367       2   32325   32304   32328       8   32325   32307
   32331       8   32319   32298   32322       1   32316   32298   32319       2
   32316   32298   32322       2   32316   32334   32349       2   32316   32334
   32352       2   32307   32292   32310       4   32298   32316   32337       2
   32298   32316   32340       2   32295   32286   32301       4   32292   32307
   32331       4   32289   32304   32328       4   32286   32295   32313       4
   32280   32268   32283       4   32280   32295   32313       4   32280   32298
   32319      12   32280   32298   32322      12   32277   32292   32310       4
   32271   32286   32301       4   32259   32268   32283       4   32634   32625
   32637       1   32631   32625   32634       1   32631   32625   32637       1
   32625   32613   32628       2   32622   32613   32625       2   32622   32613
   32628       1   32616   32610   32619       1   32613   32610   32616       2
   32613   32610   32619       2   32613   32625   32631       2   32613   32625
   32634       2   32613   32625   32637       2   32610   32613   32622       2
   32610   32613   32628       2   32607   32592   32610       2   32604   32592
   32607       1   32604   32592   32610       2   32595   32574   32598       1
   32592   32574   32595       2   32592   32574   32598       2   32592   32610
   32616       2   32592   32610   32619       2   32583   32562   32586       4
   32583   32568   32589       4   32577   32553   32580       1   32574   32553
   32577       2   32574   32553   32580       2   32574   32592   32604       2
   32574   32592   32607       2   32568   32550   32571       4   32568   32583
   32601       4   32562   32547   32565       4   32562   32583   32601       4
   32556   32538   32559       1   32553   32538   32556       2   32553   32538
   32559       2   32553   32574   32595       2   32553   32574   32598       2
   32550   32568   32589       4   32547   32562   32586       4   32541   32526
   32544       1   32538   32526   32541       2   32538   32526   32544       2
   32538   32553   32577       2   32538   32553   32580       2   32535   32547
   32565       8   32535   32550   32571       8   32529   32508   32532       1
   32526   32508   32529       2   32526   32508   32532       2   32526   32538
   32556       2   32526   32538   32559       2   32517   32496   32520       8
   32517   32499   32523       8   32511   32490   32514       1   32508   32490
   32511       2   32508   32490   32514       2   32508   32526   32541       2
   32508   32526   32544       2   32499   32484   32502       4   32490   32508
   32529       2   32490   32508   32532       2   32487   32478   32493       4
   32484   32499   32523       4   32481   32496   32520       4   32478   32487
   32505       4   32472   32460   32475       4   32472   32487   32505       4
   32472   32490   32511      12   32472   32490   32514      12   32469   32484
   32502       4   32463   32478   32493       4   32451   32460   32475       4
   32826   32817   32829       1   32823   32817   32826       1   32823   32817
   32829       1   32817   32805   32820       2   32814   32805   32817       2
   32814   32805   32820       1   32808   32802   32811       1   32805   32802
   32808       2   32805   32802   32811       2   32805   32817   32823       2
   32805   32817   32826       2   32805   32817   32829       2   32802   32805
   32814       2   32802   32805   32820       2   32799   32784   32802       2
   32796   32784   32799       1   32796   32784   32802       2   32787   32766
   32790       1   32784   32766   32787       2   32784   32766   32790       2
   32784   32802   32808       2   32784   32802   32811       2   32775   32754
   32778       4   32775   32760   32781       4   32769   32745   32772       1
   32766   32745   32769       2   32766   32745   32772       2   32766   32784
   32796       2   32766   32784   32799       2   32760   32742   32763       4
   32760   32775   32793       4   32754   32739   32757       4   32754   32775
   32793       4   32748   32730   32751       1   32745   32730   32748       2
   32745   32730   32751       2   32745   32766   32787       2   32745   32766
   32790       2   32742   32760   32781       4   32739   32754   32778       4
   32733   32718   32736       1   32730   32718   32733       2   32730   32718
   32736       2   32730   32745   32769       2   32730   32745   32772       2
   32727   32739   32757       8   32727   32742   32763       8   32721   32700
   32724       1   32718   32700   32721       2   32718   32700   32724       2
   32718   32730   32748       2   32718   32730   32751       2   32709   32688
   32712       8   32709   32691   32715       8   32703   32682   32706       1
   32700   32682   32703       2   32700   32682   32706       2   32700   32718
   32733       2   32700   32718   32736       2   32691   32676   32694       4
   32682   32700   32721       2   32682   32700   32724       2   32679   32670
   32685       4   32676   32691   32715       4   32673   32688   32712       4
   32670   32679   32697       4   32664   32652   32667       4   32664   32679
   32697       4   32664   32682   32703      12   32664   32682   32706      12
   32661   32676   32694       4   32655   32670   32685       4   32643   32652
   32667       4   33018   33009   33021       1   33015   33009   33018       1
   33015   33009   33021       1   33009   32997   33012       2   33006   32997
   33009       2   33006   32997   33012       1   33000   32994   33003       1
   32997   32994   33000       2   32997   32994   33003       2   32997   33009
   33015       2   32997   33009   33018       2   32997   33009   33021       2
   32994   32997   33006       2   32994   32997   33012       2   32991   32976
   32994       2   32988   32976   32991       1   32988   32976   32994       2
   32979   32958   32982       1   32976   32958   32979       2   32976   32958
   32982       2   32976   32994   33000       2   32976   32994   33003       2
   32967   32946   32970       4   32967   32952   32973       4   32961   32937
   32964       1   32958   32937   32961       2   32958   32937   32964       2
   32958   32976   32988       2   32958   32976   32991       2   32952   32934
   32955       4   32952   32967   32985       4   32946   32931   32949       4
   32946   32967   32985       4   32940   32922   32943       1   32937   32922
   32940       2   32937   32922   32943       2   32937   32958   32979       2
   32937   32958   32982       2   32934   32952   32973       4   32931   32946
   32970       4   32925   32910   32928       1   32922   32910   32925       2
   32922   32910   32928       2   32922   32937   32961       2   32922   32937
   32964       2   32919   32931   32949       8   32919   32934   32955       8
   32913   32892   32916       1   32910   32892   32913       2   32910   32892
   32916       2   32910   32922   32940       2   32910   32922   32943       2
   32901   32880   32904       8   32901   32883   32907       8   32895   32874
   32898       1   32892   32874   32895       2   32892   32874   32898       2
   32892   32910   32925       2   32892   32910   32928       2   32883   32868
   32886       4   32874   32892   32913       2   32874   32892   32916       2
   32871   32862   32877       4   32868   32883   32907       4   32865   32880
   32904       4   32862   32871   32889       4   32856   32844   32859       4
   32856   32871   32889       4   32856   32874   32895      12   32856   32874
   32898      12   32853   32868   32886       4   32847   32862   32877       4
   32835   32844   32859       4   33210   33201   33213       1   33207   33201
   33210       1   33207   33201   33213       1   33201   33189   33204       2
   33198   33189   33201       2   33198   33189   33204       1   33192   33186
   33195       1   33189   33186   33192       2   33189   33186   33195       2
   33189   33201   33207       2   33189   33201   33210       2   33189   33201
   33213       2   33186   33189   33198       2   33186   33189   33204       2
   33183   33168   33186       2   33180   33168   33183       1   33180   33168
   33186       2   33171   33150   33174       1   33168   33150   33171       2
   33168   33150   33174       2   33168   33186   33192       2   33168   33186
   33195       2   33159   33138   33162       4   33159   33144   33165       4
   33153   33129   33156       1   33150   33129   33153       2   33150   33129
   33156       2   33150   33168   33180       2   33150   33168   33183       2
   33144   33126   33147       4   33144   33159   33177       4   33138   33123
   33141       4   33138   33159   33177       4   33132   33114   33135       1
   33129   33114   33132       2   33129   33114   33135       2   33129   33150
   33171       2   33129   33150   33174       2   33126   33144   33165       4
   33123   33138   33162       4   33117   33102   33120       1   33114   33102
   33117       2   33114   33102   33120       2   33114   33129   33153       2
   33114   33129   33156       2   33111   33123   33141       8   33111   33126
   33147       8   33105   33084   33108       1   33102   33084   33105       2
   33102   33084   33108       2   33102   33114   33132       2   33102   33114
   33135       2   33093   33072   33096       8   33093   33075   33099       8
   33087   33066   33090       1   33084   33066   33087       2   33084   33066
   33090       2   33084   33102   33117       2   33084   33102   33120       2
   33075   33060   33078       4   33066   33084   33105       2   33066   33084
   33108       2   33063   33054   33069       4   33060   33075   33099       4
   33057   33072   33096       4   33054   33063   33081       4   33048   33036
   33051       4   33048   33063   33081       4   33048   33066   33087      12
   33048   33066   33090      12   33045   33060   33078       4   33039   33054
   33069       4   33027   33036   33051       4   33402   33393   33405       1
   33399   33393   33402       1   33399   33393   33405       1   33393   33381
   33396       2   33390   33381   33393       2   33390   33381   33396       1
   33384   33378   33387       1   33381   33378   33384       2   33381   33378
   33387       2   33381   33393   33399       2   33381   33393   33402       2
   33381   33393   33405       2   33378   33381   33390       2   33378   33381
   33396       2   33375   33360   33378       2   33372   33360   33375       1
   33372   33360   33378       2   33363   33342   33366       1   33360   33342
   33363       2   33360   33342   33366       2   33360   33378   33384       2
   33360   33378   33387       2   33351   33330   33354       4   33351   33336
   33357       4   33345   33321   33348       1   33342   33321   33345       2
   33342   33321   33348       2   33342   33360   33372       2   33342   33360
   33375       2   33336   33318   33339       4   33336   33351   33369       4
   33330   33315   33333       4   33330   33351   33369       4   33324   33306
   33327       1   33321   33306   33324       2   33321   33306   33327       2
   33321   33342   33363       2   33321   33342   33366       2   33318   33336
   33357       4   33315   33330   33354       4   33309   33294   33312       1
   33306   33294   33309       2   33306   33294   33312       2   33306   33321
   33345       2   33306   33321   33348       2   33303   33315   33333       8
   33303   33318   33339       8   33297   33276   33300       1   33294   33276
   33297       2   33294   33276   33300       2   33294   33306   33324       2
   33294   33306   33327       2   33285   33264   33288       8   33285   33267
   33291       8   33279   33258   33282       1   33276   33258   33279       2
   33276   33258   33282       2   33276   33294   33309       2   33276   33294
   33312       2   33267   33252   33270       4   33258   33276   33297       2
   33258   33276   33300       2   33255   33246   33261       4   33252   33267
   33291       4   33249   33264   33288       4   33246   33255   33273       4
   33240   33228   33243       4   33240   33255   33273       4   33240   33258
   33279      12   33240   33258   33282      12   33237   33252   33270       4
   33231   33246   33261       4   33219   33228   33243       4   33594   33585
   33597       1   33591   33585   33594       1   33591   33585   33597       1
   33585   33573   33588       2   33582   33573   33585       2   33582   33573
   33588       1   33576   33570   33579       1   33573   33570   33576       2
   33573   33570   33579       2   33573   33585   33591       2   33573   33585
   33594       2   33573   33585   33597       2   33570   33573   33582       2
   33570   33573   33588       2   33567   33552   33570       2   33564   33552
   33567       1   33564   33552   33570       2   33555   33534   33558       1
   33552   33534   33555       2   33552   33534   33558       2   33552   33570
   33576       2   33552   33570   33579       2   33543   33522   33546       4
   33543   33528   33549       4   33537   33513   33540       1   33534   33513
   33537       2   33534   33513   33540       2   33534   33552   33564       2
   33534   33552   33567       2   33528   33510   33531       4   33528   33543
   33561       4   33522   33507   33525       4   33522   33543   33561       4
   33516   33498   33519       1   33513   33498   33516       2   33513   33498
   33519       2   33513   33534   33555       2   33513   33534   33558       2
   33510   33528   33549       4   33507   33522   33546       4   33501   33486
   33504       1   33498   33486   33501       2   33498   33486   33504       2
   33498   33513   33537       2   33498   33513   33540       2   33495   33507
   33525       8   33495   33510   33531       8   33489   33468   33492       1
   33486   33468   33489       2   33486   33468   33492       2   33486   33498
   33516       2   33486   33498   33519       2   33477   33456   33480       8
   33477   33459   33483       8   33471   33450   33474       1   33468   33450
   33471       2   33468   33450   33474       2   33468   33486   33501       2
   33468   33486   33504       2   33459   33444   33462       4   33450   33468
   33489       2   33450   33468   33492       2   33447   33438   33453       4
   33444   33459   33483       4   33441   33456   33480       4   33438   33447
   33465       4   33432   33420   33435       4   33432   33447   33465       4
   33432   33450   33471      12   33432   33450   33474      12   33429   33444
   33462       4   33423   33438   33453       4   33411   33420   33435       4
   33786   33777   33789       1   33783   33777   33786       1   33783   33777
   33789       1   33777   33765   33780       2   33774   33765   33777       2
   33774   33765   33780       1   33768   33762   33771       1   33765   33762
   33768       2   33765   33762   33771       2   33765   33777   33783       2
   33765   33777   33786       2   33765   33777   33789       2   33762   33765
   33774       2   33762   33765   33780       2   33759   33744   33762       2
   33756   33744   33759       1   33756   33744   33762       2   33747   33726
   33750       1   33744   33726   33747       2   33744   33726   33750       2
   33744   33762   33768       2   33744   33762   33771       2   33735   33714
   33738       4   33735   33720   33741       4   33729   33705   33732       1
   33726   33705   33729       2   33726   33705   33732       2   33726   33744
   33756       2   33726   33744   33759       2   33720   33702   33723       4
   33720   33735   33753       4   33714   33699   33717       4   33714   33735
   33753       4   33708   33690   33711       1   33705   33690   33708       2
   33705   33690   33711       2   33705   33726   33747       2   33705   33726
   33750       2   33702   33720   33741       4   33699   33714   33738       4
   33693   33678   33696       1   33690   33678   33693       2   33690   33678
   33696       2   33690   33705   33729       2   33690   33705   33732       2
   33687   33699   33717       8   33687   33702   33723       8   33681   33660
   33684       1   33678   33660   33681       2   33678   33660   33684       2
   33678   33690   33708       2   33678   33690   33711       2   33669   33648
   33672       8   33669   33651   33675       8   33663   33642   33666       1
   33660   33642   33663       2   33660   33642   33666       2   33660   33678
   33693       2   33660   33678   33696       2   33651   33636   33654       4
   33642   33660   33681       2   33642   33660   33684       2   33639   33630
   33645       4   33636   33651   33675       4   33633   33648   33672       4
   33630   33639   33657       4   33624   33612   33627       4   33624   33639
   33657       4   33624   33642   33663      12   33624   33642   33666      12
   33621   33636   33654       4   33615   33630   33645       4   33603   33612
   33627       4   33978   33969   33981       1   33975   33969   33978       1
   33975   33969   33981       1   33969   33957   33972       2   33966   33957
   33969       2   33966   33957   33972       1   33960   33954   33963       1
   33957   33954   33960       2   33957   33954   33963       2   33957   33969
   33975       2   33957   33969   33978       2   33957   33969   33981       2
   33954   33957   33966       2   33954   33957   33972       2   33951   33936
   33954       2   33948   33936   33951       1   33948   33936   33954       2
   33939   33918   33942       1   33936   33918   33939       2   33936   33918
   33942       2   33936   33954   33960       2   33936   33954   33963       2
   33927   33906   33930       4   33927   33912   33933       4   33921   33897
   33924       1   33918   33897   33921       2   33918   33897   33924       2
   33918   33936   33948       2   33918   33936   33951       2   33912   33894
   33915       4   33912   33927   33945       4   33906   33891   33909       4
   33906   33927   33945       4   33900   33882   33903       1   33897   33882
   33900       2   33897   33882   33903       2   33897   33918   33939       2
   33897   33918   33942       2   33894   33912   33933       4   33891   33906
   33930       4   33885   33870   33888       1   33882   33870   33885       2
   33882   33870   33888       2   33882   33897   33921       2   33882   33897
   33924       2   33879   33891   33909       8   33879   33894   33915       8
   33873   33852   33876       1   33870   33852   33873       2   33870   33852
   33876       2   33870   33882   33900       2   33870   33882   33903       2
   33861   33840   33864       8   33861   33843   33867       8   33855   33834
   33858       1   33852   33834   33855       2   33852   33834   33858       2
   33852   33870   33885       2   33852   33870   33888       2   33843   33828
   33846       4   33834   33852   33873       2   33834   33852   33876       2
   33831   33822   33837       4   33828   33843   33867       4   33825   33840
   33864       4   33822   33831   33849       4   33816   33804   33819       4
   33816   33831   33849       4   33816   33834   33855      12   33816   33834
   33858      12   33813   33828   33846       4   33807   33822   33837       4
   33795   33804   33819       4   34170   34161   34173       1   34167   34161
   34170       1   34167   34161   34173       1   34161   34149   34164       2
   34158   34149   34161       2   34158   34149   34164       1   34152   34146
   34155       1   34149   34146   34152       2   34149   34146   34155       2
   34149   34161   34167       2   34149   34161   34170       2   34149   34161
   34173       2   34146   34149   34158       2   34146   34149   34164       2
   34143   34128   34146       2   34140   34128   34143       1   34140   34128
   34146       2   34131   34110   34134       1   34128   34110   34131       2
   34128   34110   34134       2   34128   34146   34152       2   34128   34146
   34155       2   34119   34098   34122       4   34119   34104   34125       4
   34113   34089   34116       1   34110   34089   34113       2   34110   34089
   34116       2   34110   34128   34140       2   34110   34128   34143       2
   34104   34086   34107       4   34104   34119   34137       4   34098   34083
   34101       4   34098   34119   34137       4   34092   34074   34095       1
   34089   34074   34092       2   34089   34074   34095       2   34089   34110
   34131       2   34089   34110   34134       2   34086   34104   34125       4
   34083   34098   34122       4   34077   34062   34080       1   34074   34062
   34077       2   34074   34062   34080       2   34074   34089   34113       2
   34074   34089   34116       2   34071   34083   34101       8   34071   34086
   34107       8   34065   34044   34068       1   34062   34044   34065       2
   34062   34044   34068       2   34062   34074   34092       2   34062   34074
   34095       2   34053   34032   34056       8   34053   34035   34059       8
   34047   34026   34050       1   34044   34026   34047       2   34044   34026
   34050       2   34044   34062   34077       2   34044   34062   34080       2
   34035   34020   34038       4   34026   34044   34065       2   34026   34044
   34068       2   34023   34014   34029       4   34020   34035   34059       4
   34017   34032   34056       4   34014   34023   34041       4   34008   33996
   34011       4   34008   34023   34041       4   34008   34026   34047      12
   34008   34026   34050      12   34005   34020   34038       4   33999   34014
   34029       4   33987   33996   34011       4   34362   34353   34365       1
   34359   34353   34362       1   34359   34353   34365       1   34353   34341
   34356       2   34350   34341   34353       2   34350   34341   34356       1
   34344   34338   34347       1   34341   34338   34344       2   34341   34338
   34347       2   34341   34353   34359       2   34341   34353   34362       2
   34341   34353   34365       2   34338   34341   34350       2   34338   34341
   34356       2   34335   34320   34338       2   34332   34320   34335       1
   34332   34320   34338       2   34323   34302   34326       1   34320   34302
   34323       2   34320   34302   34326       2   34320   34338   34344       2
   34320   34338   34347       2   34311   34290   34314       4   34311   34296
   34317       4   34305   34281   34308       1   34302   34281   34305       2
   34302   34281   34308       2   34302   34320   34332       2   34302   34320
   34335       2   34296   34278   34299       4   34296   34311   34329       4
   34290   34275   34293       4   34290   34311   34329       4   34284   34266
   34287       1   34281   34266   34284       2   34281   34266   34287       2
   34281   34302   34323       2   34281   34302   34326       2   34278   34296
   34317       4   34275   34290   34314       4   34269   34254   34272       1
   34266   34254   34269       2   34266   34254   34272       2   34266   34281
   34305       2   34266   34281   34308       2   34263   34275   34293       8
   34263   34278   34299       8   34257   34236   34260       1   34254   34236
   34257       2   34254   34236   34260       2   34254   34266   34284       2
   34254   34266   34287       2   34245   34224   34248       8   34245   34227
   34251       8   34239   34218   34242       1   34236   34218   34239       2
   34236   34218   34242       2   34236   34254   34269       2   34236   34254
   34272       2   34227   34212   34230       4   34218   34236   34257       2
   34218   34236   34260       2   34215   34206   34221       4   34212   34227
   34251       4   34209   34224   34248       4   34206   34215   34233       4
   34200   34188   34203       4   34200   34215   34233       4   34200   34218
   34239      12   34200   34218   34242      12   34197   34212   34230       4
   34191   34206   34221       4   34179   34188   34203       4   34554   34545
   34557       1   34551   34545   34554       1   34551   34545   34557       1
   34545   34533   34548       2   34542   34533   34545       2   34542   34533
   34548       1   34536   34530   34539       1   34533   34530   34536       2
   34533   34530   34539       2   34533   34545   34551       2   34533   34545
   34554       2   34533   34545   34557       2   34530   34533   34542       2
   34530   34533   34548       2   34527   34512   34530       2   34524   34512
   34527       1   34524   34512   34530       2   34515   34494   34518       1
   34512   34494   34515       2   34512   34494   34518       2   34512   34530
   34536       2   34512   34530   34539       2   34503   34482   34506       4
   34503   34488   34509       4   34497   34473   34500       1   34494   34473
   34497       2   34494   34473   34500       2   34494   34512   34524       2
   34494   34512   34527       2   34488   34470   34491       4   34488   34503
   34521       4   34482   34467   34485       4   34482   34503   34521       4
   34476   34458   34479       1   34473   34458   34476       2   34473   34458
   34479       2   34473   34494   34515       2   34473   34494   34518       2
   34470   34488   34509       4   34467   34482   34506       4   34461   34446
   34464       1   34458   34446   34461       2   34458   34446   34464       2
   34458   34473   34497       2   34458   34473   34500       2   34455   34467
   34485       8   34455   34470   34491       8   34449   34428   34452       1
   34446   34428   34449       2   34446   34428   34452       2   34446   34458
   34476       2   34446   34458   34479       2   34437   34416   34440       8
   34437   34419   34443       8   34431   34410   34434       1   34428   34410
   34431       2   34428   34410   34434       2   34428   34446   34461       2
   34428   34446   34464       2   34419   34404   34422       4   34410   34428
   34449       2   34410   34428   34452       2   34407   34398   34413       4
   34404   34419   34443       4   34401   34416   34440       4   34398   34407
   34425       4   34392   34380   34395       4   34392   34407   34425       4
   34392   34410   34431      12   34392   34410   34434      12   34389   34404
   34422       4   34383   34398   34413       4   34371   34380   34395       4
   34746   34737   34749       1   34743   34737   34746       1   34743   34737
   34749       1   34737   34725   34740       2   34734   34725   34737       2
   34734   34725   34740       1   34728   34722   34731       1   34725   34722
   34728       2   34725   34722   34731       2   34725   34737   34743       2
   34725   34737   34746       2   34725   34737   34749       2   34722   34725
   34734       2   34722   34725   34740       2   34719   34704   34722       2
   34716   34704   34719       1   34716   34704   34722       2   34707   34686
   34710       1   34704   34686   34707       2   34704   34686   34710       2
   34704   34722   34728       2   34704   34722   34731       2   34695   34674
   34698       4   34695   34680   34701       4   34689   34665   34692       1
   34686   34665   34689       2   34686   34665   34692       2   34686   34704
   34716       2   34686   34704   34719       2   34680   34662   34683       4
   34680   34695   34713       4   34674   34659   34677       4   34674   34695
   34713       4   34668   34650   34671       1   34665   34650   34668       2
   34665   34650   34671       2   34665   34686   34707       2   34665   34686
   34710       2   34662   34680   34701       4   34659   34674   34698       4
   34653   34638   34656       1   34650   34638   34653       2   34650   34638
   34656       2   34650   34665   34689       2   34650   34665   34692       2
   34647   34659   34677       8   34647   34662   34683       8   34641   34620
   34644       1   34638   34620   34641       2   34638   34620   34644       2
   34638   34650   34668       2   34638   34650   34671       2   34629   34608
   34632       8   34629   34611   34635       8   34623   34602   34626       1
   34620   34602   34623       2   34620   34602   34626       2   34620   34638
   34653       2   34620   34638   34656       2   34611   34596   34614       4
   34602   34620   34641       2   34602   34620   34644       2   34599   34590
   34605       4   34596   34611   34635       4   34593   34608   34632       4
   34590   34599   34617       4   34584   34572   34587       4   34584   34599
   34617       4   34584   34602   34623      12   34584   34602   34626      12
   34581   34596   34614       4   34575   34590   34605       4   34563   34572
   34587       4   34938   34929   34941       1   34935   34929   34938       1
   34935   34929   34941       1   34929   34917   34932       2   34926   34917
   34929       2   34926   34917   34932       1   34920   34914   34923       1
   34917   34914   34920       2   34917   34914   34923       2   34917   34929
   34935       2   34917   34929   34938       2   34917   34929   34941       2
   34914   34917   34926       2   34914   34917   34932       2   34911   34896
   34914       2   34908   34896   34911       1   34908   34896   34914       2
   34899   34878   34902       1   34896   34878   34899       2   34896   34878
   34902       2   34896   34914   34920       2   34896   34914   34923       2
   34887   34866   34890       4   34887   34872   34893       4   34881   34857
   34884       1   34878   34857   34881       2   34878   34857   34884       2
   34878   34896   34908       2   34878   34896   34911       2   34872   34854
   34875       4   34872   34887   34905       4   34866   34851   34869       4
   34866   34887   34905       4   34860   34842   34863       1   34857   34842
   34860       2   34857   34842   34863       2   34857   34878   34899       2
   34857   34878   34902       2   34854   34872   34893       4   34851   34866
   34890       4   34845   34830   34848       1   34842   34830   34845       2
   34842   34830   34848       2   34842   34857   34881       2   34842   34857
   34884       2   34839   34851   34869       8   34839   34854   34875       8
   34833   34812   34836       1   34830   34812   34833       2   34830   34812
   34836       2   34830   34842   34860       2   34830   34842   34863       2
   34821   34800   34824       8   34821   34803   34827       8   34815   34794
   34818       1   34812   34794   34815       2   34812   34794   34818       2
   34812   34830   34845       2   34812   34830   34848       2   34803   34788
   34806       4   34794   34812   34833       2   34794   34812   34836       2
   34791   34782   34797       4   34788   34803   34827       4   34785   34800
   34824       4   34782   34791   34809       4   34776   34764   34779       4
   34776   34791   34809       4   34776   34794   34815      12   34776   34794
   34818      12   34773   34788   34806       4   34767   34782   34797       4
   34755   34764   34779       4   35130   35121   35133       1   35127   35121
   35130       1   35127   35121   35133       1   35121   35109   35124       2
   35118   35109   35121       2   35118   35109   35124       1   35112   35106
   35115       1   35109   35106   35112       2   35109   35106   35115       2
   35109   35121   35127       2   35109   35121   35130       2   35109   35121
   35133       2   35106   35109   35118       2   35106   35109   35124       2
   35103   35088   35106       2   35100   35088   35103       1   35100   35088
   35106       2   35091   35070   35094       1   35088   35070   35091       2
   35088   35070   35094       2   35088   35106   35112       2   35088   35106
   35115       2   35079   35058   35082       4   35079   35064   35085       4
   35073   35049   35076       1   35070   35049   35073       2   35070   35049
   35076       2   35070   35088   35100       2   35070   35088   35103       2
   35064   35046   35067       4   35064   35079   35097       4   35058   35043
   35061       4   35058   35079   35097       4   35052   35034   35055       1
   35049   35034   35052       2   35049   35034   35055       2   35049   35070
   35091       2   35049   35070   35094       2   35046   35064   35085       4
   35043   35058   35082       4   35037   35022   35040       1   35034   35022
   35037       2   35034   35022   35040       2   35034   35049   35073       2
   35034   35049   35076       2   35031   35043   35061       8   35031   35046
   35067       8   35025   35004   35028       1   35022   35004   35025       2
   35022   35004   35028       2   35022   35034   35052       2   35022   35034
   35055       2   35013   34992   35016       8   35013   34995   35019       8
   35007   34986   35010       1   35004   34986   35007       2   35004   34986
   35010       2   35004   35022   35037       2   35004   35022   35040       2
   34995   34980   34998       4   34986   35004   35025       2   34986   35004
   35028       2   34983   34974   34989       4   34980   34995   35019       4
   34977   34992   35016       4   34974   34983   35001       4   34968   34956
   34971       4   34968   34983   35001       4   34968   34986   35007      12
   34968   34986   35010      12   34965   34980   34998       4   34959   34974
   34989       4   34947   34956   34971       4   35322   35313   35325       1
   35319   35313   35322       1   35319   35313   35325       1   35313   35301
   35316       2   35310   35301   35313       2   35310   35301   35316       1
   35304   35298   35307       1   35301   35298   35304       2   35301   35298
   35307       2   35301   35313   35319       2   35301   35313   35322       2
   35301   35313   35325       2   35298   35301   35310       2   35298   35301
   35316       2   35295   35280   35298       2   35292   35280   35295       1
   35292   35280   35298       2   35283   35262   35286       1   35280   35262
   35283       2   35280   35262   35286       2   35280   35298   35304       2
   35280   35298   35307       2   35271   35250   35274       4   35271   35256
   35277       4   35265   35241   35268       1   35262   35241   35265       2
   35262   35241   35268       2   35262   35280   35292       2   35262   35280
   35295       2   35256   35238   35259       4   35256   35271   35289       4
   35250   35235   35253       4   35250   35271   35289       4   35244   35226
   35247       1   35241   35226   35244       2   35241   35226   35247       2
   35241   35262   35283       2   35241   35262   35286       2   35238   35256
   35277       4   35235   35250   35274       4   35229   35214   35232       1
   35226   35214   35229       2   35226   35214   35232       2   35226   35241
   35265       2   35226   35241   35268       2   35223   35235   35253       8
   35223   35238   35259       8   35217   35196   35220       1   35214   35196
   35217       2   35214   35196   35220       2   35214   35226   35244       2
   35214   35226   35247       2   35205   35184   35208       8   35205   35187
   35211       8   35199   35178   35202       1   35196   35178   35199       2
   35196   35178   35202       2   35196   35214   35229       2   35196   35214
   35232       2   35187   35172   35190       4   35178   35196   35217       2
   35178   35196   35220       2   35175   35166   35181       4   35172   35187
   35211       4   35169   35184   35208       4   35166   35175   35193       4
   35160   35148   35163       4   35160   35175   35193       4   35160   35178
   35199      12   35160   35178   35202      12   35157   35172   35190       4
   35151   35166   35181       4   35139   35148   35163       4   35514   35505
   35517       1   35511   35505   35514       1   35511   35505   35517       1
   35505   35493   35508       2   35502   35493   35505       2   35502   35493
   35508       1   35496   35490   35499       1   35493   35490   35496       2
   35493   35490   35499       2   35493   35505   35511       2   35493   35505
   35514       2   35493   35505   35517       2   35490   35493   35502       2
   35490   35493   35508       2   35487   35472   35490       2   35484   35472
   35487       1   35484   35472   35490       2   35475   35454   35478       1
   35472   35454   35475       2   35472   35454   35478       2   35472   35490
   35496       2   35472   35490   35499       2   35463   35442   35466       4
   35463   35448   35469       4   35457   35433   35460       1   35454   35433
   35457       2   35454   35433   35460       2   35454   35472   35484       2
   35454   35472   35487       2   35448   35430   35451       4   35448   35463
   35481       4   35442   35427   35445       4   35442   35463   35481       4
   35436   35418   35439       1   35433   35418   35436       2   35433   35418
   35439       2   35433   35454   35475       2   35433   35454   35478       2
   35430   35448   35469       4   35427   35442   35466       4   35421   35406
   35424       1   35418   35406   35421       2   35418   35406   35424       2
   35418   35433   35457       2   35418   35433   35460       2   35415   35427
   35445       8   35415   35430   35451       8   35409   35388   35412       1
   35406   35388   35409       2   35406   35388   35412       2   35406   35418
   35436       2   35406   35418   35439       2   35397   35376   35400       8
   35397   35379   35403       8   35391   35370   35394       1   35388   35370
   35391       2   35388   35370   35394       2   35388   35406   35421       2
   35388   35406   35424       2   35379   35364   35382       4   35370   35388
   35409       2   35370   35388   35412       2   35367   35358   35373       4
   35364   35379   35403       4   35361   35376   35400       4   35358   35367
   35385       4   35352   35340   35355       4   35352   35367   35385       4
   35352   35370   35391      12   35352   35370   35394      12   35349   35364
   35382       4   35343   35358   35373       4   35331   35340   35355       4
   35706   35697   35709       1   35703   35697   35706       1   35703   35697
   35709       1   35697   35685   35700       2   35694   35685   35697       2
   35694   35685   35700       1   35688   35682   35691       1   35685   35682
   35688       2   35685   35682   35691       2   35685   35697   35703       2
   35685   35697   35706       2   35685   35697   35709       2   35682   35685
   35694       2   35682   35685   35700       2   35679   35664   35682       2
   35676   35664   35679       1   35676   35664   35682       2   35667   35646
   35670       1   35664   35646   35667       2   35664   35646   35670       2
   35664   35682   35688       2   35664   35682   35691       2   35655   35634
   35658       4   35655   35640   35661       4   35649   35625   35652       1
   35646   35625   35649       2   35646   35625   35652       2   35646   35664
   35676       2   35646   35664   35679       2   35640   35622   35643       4
   35640   35655   35673       4   35634   35619   35637       4   35634   35655
   35673       4   35628   35610   35631       1   35625   35610   35628       2
   35625   35610   35631       2   35625   35646   35667       2   35625   35646
   35670       2   35622   35640   35661       4   35619   35634   35658       4
   35613   35598   35616       1   35610   35598   35613       2   35610   35598
   35616       2   35610   35625   35649       2   35610   35625   35652       2
   35607   35619   35637       8   35607   35622   35643       8   35601   35580
   35604       1   35598   35580   35601       2   35598   35580   35604       2
   35598   35610   35628       2   35598   35610   35631       2   35589   35568
   35592       8   35589   35571   35595       8   35583   35562   35586       1
   35580   35562   35583       2   35580   35562   35586       2   35580   35598
   35613       2   35580   35598   35616       2   35571   35556   35574       4
   35562   35580   35601       2   35562   35580   35604       2   35559   35550
   35565       4   35556   35571   35595       4   35553   35568   35592       4
   35550   35559   35577       4   35544   35532   35547       4   35544   35559
   35577       4   35544   35562   35583      12   35544   35562   35586      12
   35541   35556   35574       4   35535   35550   35565       4   35523   35532
   35547       4   35898   35889   35901       1   35895   35889   35898       1
   35895   35889   35901       1   35889   35877   35892       2   35886   35877
   35889       2   35886   35877   35892       1   35880   35874   35883       1
   35877   35874   35880       2   35877   35874   35883       2   35877   35889
   35895       2   35877   35889   35898       2   35877   35889   35901       2
   35874   35877   35886       2   35874   35877   35892       2   35871   35856
   35874       2   35868   35856   35871       1   35868   35856   35874       2
   35859   35838   35862       1   35856   35838   35859       2   35856   35838
   35862       2   35856   35874   35880       2   35856   35874   35883       2
   35847   35826   35850       4   35847   35832   35853       4   35841   35817
   35844       1   35838   35817   35841       2   35838   35817   35844       2
   35838   35856   35868       2   35838   35856   35871       2   35832   35814
   35835       4   35832   35847   35865       4   35826   35811   35829       4
   35826   35847   35865       4   35820   35802   35823       1   35817   35802
   35820       2   35817   35802   35823       2   35817   35838   35859       2
   35817   35838   35862       2   35814   35832   35853       4   35811   35826
   35850       4   35805   35790   35808       1   35802   35790   35805       2
   35802   35790   35808       2   35802   35817   35841       2   35802   35817
   35844       2   35799   35811   35829       8   35799   35814   35835       8
   35793   35772   35796       1   35790   35772   35793       2   35790   35772
   35796       2   35790   35802   35820       2   35790   35802   35823       2
   35781   35760   35784       8   35781   35763   35787       8   35775   35754
   35778       1   35772   35754   35775       2   35772   35754   35778       2
   35772   35790   35805       2   35772   35790   35808       2   35763   35748
   35766       4   35754   35772   35793       2   35754   35772   35796       2
   35751   35742   35757       4   35748   35763   35787       4   35745   35760
   35784       4   35742   35751   35769       4   35736   35724   35739       4
   35736   35751   35769       4   35736   35754   35775      12   35736   35754
   35778      12   35733   35748   35766       4   35727   35742   35757       4
   35715   35724   35739       4   36090   36081   36093       1   36087   36081
   36090       1   36087   36081   36093       1   36081   36069   36084       2
   36078   36069   36081       2   36078   36069   36084       1   36072   36066
   36075       1   36069   36066   36072       2   36069   36066   36075       2
   36069   36081   36087       2   36069   36081   36090       2   36069   36081
   36093       2   36066   36069   36078       2   36066   36069   36084       2
   36063   36048   36066       2   36060   36048   36063       1   36060   36048
   36066       2   36051   36030   36054       1   36048   36030   36051       2
   36048   36030   36054       2   36048   36066   36072       2   36048   36066
   36075       2   36039   36018   36042       4   36039   36024   36045       4
   36033   36009   36036       1   36030   36009   36033       2   36030   36009
   36036       2   36030   36048   36060       2   36030   36048   36063       2
   36024   36006   36027       4   36024   36039   36057       4   36018   36003
   36021       4   36018   36039   36057       4   36012   35994   36015       1
   36009   35994   36012       2   36009   35994   36015       2   36009   36030
   36051       2   36009   36030   36054       2   36006   36024   36045       4
   36003   36018   36042       4   35997   35982   36000       1   35994   35982
   35997       2   35994   35982   36000       2   35994   36009   36033       2
   35994   36009   36036       2   35991   36003   36021       8   35991   36006
   36027       8   35985   35964   35988       1   35982   35964   35985       2
   35982   35964   35988       2   35982   35994   36012       2   35982   35994
   36015       2   35973   35952   35976       8   35973   35955   35979       8
   35967   35946   35970       1   35964   35946   35967       2   35964   35946
   35970       2   35964   35982   35997       2   35964   35982   36000       2
   35955   35940   35958       4   35946   35964   35985       2   35946   35964
   35988       2   35943   35934   35949       4   35940   35955   35979       4
   35937   35952   35976       4   35934   35943   35961       4   35928   35916
   35931       4   35928   35943   35961       4   35928   35946   35967      12
   35928   35946   35970      12   35925   35940   35958       4   35919   35934
   35949       4   35907   35916   35931       4   36282   36273   36285       1
   36279   36273   36282       1   36279   36273   36285       1   36273   36261
   36276       2   36270   36261   36273       2   36270   36261   36276       1
   36264   36258   36267       1   36261   36258   36264       2   36261   36258
   36267       2   36261   36273   36279       2   36261   36273   36282       2
   36261   36273   36285       2   36258   36261   36270       2   36258   36261
   36276       2   36255   36240   36258       2   36252   36240   36255       1
   36252   36240   36258       2   36243   36222   36246       1   36240   36222
   36243       2   36240   36222   36246       2   36240   36258   36264       2
   36240   36258   36267       2   36231   36210   36234       4   36231   36216
   36237       4   36225   36201   36228       1   36222   36201   36225       2
   36222   36201   36228       2   36222   36240   36252       2   36222   36240
   36255       2   36216   36198   36219       4   36216   36231   36249       4
   36210   36195   36213       4   36210   36231   36249       4   36204   36186
   36207       1   36201   36186   36204       2   36201   36186   36207       2
   36201   36222   36243       2   36201   36222   36246       2   36198   36216
   36237       4   36195   36210   36234       4   36189   36174   36192       1
   36186   36174   36189       2   36186   36174   36192       2   36186   36201
   36225       2   36186   36201   36228       2   36183   36195   36213       8
   36183   36198   36219       8   36177   36156   36180       1   36174   36156
   36177       2   36174   36156   36180       2   36174   36186   36204       2
   36174   36186   36207       2   36165   36144   36168       8   36165   36147
   36171       8   36159   36138   36162       1   36156   36138   36159       2
   36156   36138   36162       2   36156   36174   36189       2   36156   36174
   36192       2   36147   36132   36150       4   36138   36156   36177       2
   36138   36156   36180       2   36135   36126   36141       4   36132   36147
   36171       4   36129   36144   36168       4   36126   36135   36153       4
   36120   36108   36123       4   36120   36135   36153       4   36120   36138
   36159      12   36120   36138   36162      12   36117   36132   36150       4
   36111   36126   36141       4   36099   36108   36123       4   36474   36465
   36477       1   36471   36465   36474       1   36471   36465   36477       1
   36465   36453   36468       2   36462   36453   36465       2   36462   36453
   36468       1   36456   36450   36459       1   36453   36450   36456       2
   36453   36450   36459       2   36453   36465   36471       2   36453   36465
   36474       2   36453   36465   36477       2   36450   36453   36462       2
   36450   36453   36468       2   36447   36432   36450       2   36444   36432
   36447       1   36444   36432   36450       2   36435   36414   36438       1
   36432   36414   36435       2   36432   36414   36438       2   36432   36450
   36456       2   36432   36450   36459       2   36423   36402   36426       4
   36423   36408   36429       4   36417   36393   36420       1   36414   36393
   36417       2   36414   36393   36420       2   36414   36432   36444       2
   36414   36432   36447       2   36408   36390   36411       4   36408   36423
   36441       4   36402   36387   36405       4   36402   36423   36441       4
   36396   36378   36399       1   36393   36378   36396       2   36393   36378
   36399       2   36393   36414   36435       2   36393   36414   36438       2
   36390   36408   36429       4   36387   36402   36426       4   36381   36366
   36384       1   36378   36366   36381       2   36378   36366   36384       2
   36378   36393   36417       2   36378   36393   36420       2   36375   36387
   36405       8   36375   36390   36411       8   36369   36348   36372       1
   36366   36348   36369       2   36366   36348   36372       2   36366   36378
   36396       2   36366   36378   36399       2   36357   36336   36360       8
   36357   36339   36363       8   36351   36330   36354       1   36348   36330
   36351       2   36348   36330   36354       2   36348   36366   36381       2
   36348   36366   36384       2   36339   36324   36342       4   36330   36348
   36369       2   36330   36348   36372       2   36327   36318   36333       4
   36324   36339   36363       4   36321   36336   36360       4   36318   36327
   36345       4   36312   36300   36315       4   36312   36327   36345       4
   36312   36330   36351      12   36312   36330   36354      12   36309   36324
   36342       4   36303   36318   36333       4   36291   36300   36315       4
   36666   36657   36669       1   36663   36657   36666       1   36663   36657
   36669       1   36657   36645   36660       2   36654   36645   36657       2
   36654   36645   36660       1   36648   36642   36651       1   36645   36642
   36648       2   36645   36642   36651       2   36645   36657   36663       2
   36645   36657   36666       2   36645   36657   36669       2   36642   36645
   36654       2   36642   36645   36660       2   36639   36624   36642       2
   36636   36624   36639       1   36636   36624   36642       2   36627   36606
   36630       1   36624   36606   36627       2   36624   36606   36630       2
   36624   36642   36648       2   36624   36642   36651       2   36615   36594
   36618       4   36615   36600   36621       4   36609   36585   36612       1
   36606   36585   36609       2   36606   36585   36612       2   36606   36624
   36636       2   36606   36624   36639       2   36600   36582   36603       4
   36600   36615   36633       4   36594   36579   36597       4   36594   36615
   36633       4   36588   36570   36591       1   36585   36570   36588       2
   36585   36570   36591       2   36585   36606   36627       2   36585   36606
   36630       2   36582   36600   36621       4   36579   36594   36618       4
   36573   36558   36576       1   36570   36558   36573       2   36570   36558
   36576       2   36570   36585   36609       2   36570   36585   36612       2
   36567   36579   36597       8   36567   36582   36603       8   36561   36540
   36564       1   36558   36540   36561       2   36558   36540   36564       2
   36558   36570   36588       2   36558   36570   36591       2   36549   36528
   36552       8   36549   36531   36555       8   36543   36522   36546       1
   36540   36522   36543       2   36540   36522   36546       2   36540   36558
   36573       2   36540   36558   36576       2   36531   36516   36534       4
   36522   36540   36561       2   36522   36540   36564       2   36519   36510
   36525       4   36516   36531   36555       4   36513   36528   36552       4
   36510   36519   36537       4   36504   36492   36507       4   36504   36519
   36537       4   36504   36522   36543      12   36504   36522   36546      12
   36501   36516   36534       4   36495   36510   36525       4   36483   36492
   36507       4   36858   36849   36861       1   36855   36849   36858       1
   36855   36849   36861       1   36849   36837   36852       2   36846   36837
   36849       2   36846   36837   36852       1   36840   36834   36843       1
   36837   36834   36840       2   36837   36834   36843       2   36837   36849
   36855       2   36837   36849   36858       2   36837   36849   36861       2
   36834   36837   36846       2   36834   36837   36852       2   36831   36816
   36834       2   36828   36816   36831       1   36828   36816   36834       2
   36819   36798   36822       1   36816   36798   36819       2   36816   36798
   36822       2   36816   36834   36840       2   36816   36834   36843       2
   36807   36786   36810       4   36807   36792   36813       4   36801   36777
   36804       1   36798   36777   36801       2   36798   36777   36804       2
   36798   36816   36828       2   36798   36816   36831       2   36792   36774
   36795       4   36792   36807   36825       4   36786   36771   36789       4
   36786   36807   36825       4   36780   36762   36783       1   36777   36762
   36780       2   36777   36762   36783       2   36777   36798   36819       2
   36777   36798   36822       2   36774   36792   36813       4   36771   36786
   36810       4   36765   36750   36768       1   36762   36750   36765       2
   36762   36750   36768       2   36762   36777   36801       2   36762   36777
   36804       2   36759   36771   36789       8   36759   36774   36795       8
   36753   36732   36756       1   36750   36732   36753       2   36750   36732
   36756       2   36750   36762   36780       2   36750   36762   36783       2
   36741   36720   36744       8   36741   36723   36747       8   36735   36714
   36738       1   36732   36714   36735       2   36732   36714   36738       2
   36732   36750   36765       2   36732   36750   36768       2   36723   36708
   36726       4   36714   36732   36753       2   36714   36732   36756       2
   36711   36702   36717       4   36708   36723   36747       4   36705   36720
   36744       4   36702   36711   36729       4   36696   36684   36699       4
   36696   36711   36729       4   36696   36714   36735      12   36696   36714
   36738      12   36693   36708   36726       4   36687   36702   36717       4
   36675   36684   36699       4   37050   37041   37053       1   37047   37041
   37050       1   37047   37041   37053       1   37041   37029   37044       2
   37038   37029   37041       2   37038   37029   37044       1   37032   37026
   37035       1   37029   37026   37032       2   37029   37026   37035       2
   37029   37041   37047       2   37029   37041   37050       2   37029   37041
   37053       2   37026   37029   37038       2   37026   37029   37044       2
   37023   37008   37026       2   37020   37008   37023       1   37020   37008
   37026       2   37011   36990   37014       1   37008   36990   37011       2
   37008   36990   37014       2   37008   37026   37032       2   37008   37026
   37035       2   36999   36978   37002       4   36999   36984   37005       4
   36993   36969   36996       1   36990   36969   36993       2   36990   36969
   36996       2   36990   37008   37020       2   36990   37008   37023       2
   36984   36966   36987       4   36984   36999   37017       4   36978   36963
   36981       4   36978   36999   37017       4   36972   36954   36975       1
   36969   36954   36972       2   36969   36954   36975       2   36969   36990
   37011       2   36969   36990   37014       2   36966   36984   37005       4
   36963   36978   37002       4   36957   36942   36960       1   36954   36942
   36957       2   36954   36942   36960       2   36954   36969   36993       2
   36954   36969   36996       2   36951   36963   36981       8   36951   36966
   36987       8   36945   36924   36948       1   36942   36924   36945       2
   36942   36924   36948       2   36942   36954   36972       2   36942   36954
   36975       2   36933   36912   36936       8   36933   36915   36939       8
   36927   36906   36930       1   36924   36906   36927       2   36924   36906
   36930       2   36924   36942   36957       2   36924   36942   36960       2
   36915   36900   36918       4   36906   36924   36945       2   36906   36924
   36948       2   36903   36894   36909       4   36900   36915   36939       4
   36897   36912   36936       4   36894   36903   36921       4   36888   36876
   36891       4   36888   36903   36921       4   36888   36906   36927      12
   36888   36906   36930      12   36885   36900   36918       4   36879   36894
   36909       4   36867   36876   36891       4   37242   37233   37245       1
   37239   37233   37242       1   37239   37233   37245       1   37233   37221
   37236       2   37230   37221   37233       2   37230   37221   37236       1
   37224   37218   37227       1   37221   37218   37224       2   37221   37218
   37227       2   37221   37233   37239       2   37221   37233   37242       2
   37221   37233   37245       2   37218   37221   37230       2   37218   37221
   37236       2   37215   37200   37218       2   37212   37200   37215       1
   37212   37200   37218       2   37203   37182   37206       1   37200   37182
   37203       2   37200   37182   37206       2   37200   37218   37224       2
   37200   37218   37227       2   37191   37170   37194       4   37191   37176
   37197       4   37185   37161   37188       1   37182   37161   37185       2
   37182   37161   37188       2   37182   37200   37212       2   37182   37200
   37215       2   37176   37158   37179       4   37176   37191   37209       4
   37170   37155   37173       4   37170   37191   37209       4   37164   37146
   37167       1   37161   37146   37164       2   37161   37146   37167       2
   37161   37182   37203       2   37161   37182   37206       2   37158   37176
   37197       4   37155   37170   37194       4   37149   37134   37152       1
   37146   37134   37149       2   37146   37134   37152       2   37146   37161
   37185       2   37146   37161   37188       2   37143   37155   37173       8
   37143   37158   37179       8   37137   37116   37140       1   37134   37116
   37137       2   37134   37116   37140       2   37134   37146   37164       2
   37134   37146   37167       2   37125   37104   37128       8   37125   37107
   37131       8   37119   37098   37122       1   37116   37098   37119       2
   37116   37098   37122       2   37116   37134   37149       2   37116   37134
   37152       2   37107   37092   37110       4   37098   37116   37137       2
   37098   37116   37140       2   37095   37086   37101       4   37092   37107
   37131       4   37089   37104   37128       4   37086   37095   37113       4
   37080   37068   37083       4   37080   37095   37113       4   37080   37098
   37119      12   37080   37098   37122      12   37077   37092   37110       4
   37071   37086   37101       4   37059   37068   37083       4   37434   37425
   37437       1   37431   37425   37434       1   37431   37425   37437       1
   37425   37413   37428       2   37422   37413   37425       2   37422   37413
   37428       1   37416   37410   37419       1   37413   37410   37416       2
   37413   37410   37419       2   37413   37425   37431       2   37413   37425
   37434       2   37413   37425   37437       2   37410   37413   37422       2
   37410   37413   37428       2   37407   37392   37410       2   37404   37392
   37407       1   37404   37392   37410       2   37395   37374   37398       1
   37392   37374   37395       2   37392   37374   37398       2   37392   37410
   37416       2   37392   37410   37419       2   37383   37362   37386       4
   37383   37368   37389       4   37377   37353   37380       1   37374   37353
   37377       2   37374   37353   37380       2   37374   37392   37404       2
   37374   37392   37407       2   37368   37350   37371       4   37368   37383
   37401       4   37362   37347   37365       4   37362   37383   37401       4
   37356   37338   37359       1   37353   37338   37356       2   37353   37338
   37359       2   37353   37374   37395       2   37353   37374   37398       2
   37350   37368   37389       4   37347   37362   37386       4   37341   37326
   37344       1   37338   37326   37341       2   37338   37326   37344       2
   37338   37353   37377       2   37338   37353   37380       2   37335   37347
   37365       8   37335   37350   37371       8   37329   37308   37332       1
   37326   37308   37329       2   37326   37308   37332       2   37326   37338
   37356       2   37326   37338   37359       2   37317   37296   37320       8
   37317   37299   37323       8   37311   37290   37314       1   37308   37290
   37311       2   37308   37290   37314       2   37308   37326   37341       2
   37308   37326   37344       2   37299   37284   37302       4   37290   37308
   37329       2   37290   37308   37332       2   37287   37278   37293       4
   37284   37299   37323       4   37281   37296   37320       4   37278   37287
   37305       4   37272   37260   37275       4   37272   37287   37305       4
   37272   37290   37311      12   37272   37290   37314      12   37269   37284
   37302       4   37263   37278   37293       4   37251   37260   37275       4
   37626   37617   37629       1   37623   37617   37626       1   37623   37617
   37629       1   37617   37605   37620       2   37614   37605   37617       2
   37614   37605   37620       1   37608   37602   37611       1   37605   37602
   37608       2   37605   37602   37611       2   37605   37617   37623       2
   37605   37617   37626       2   37605   37617   37629       2   37602   37605
   37614       2   37602   37605   37620       2   37599   37584   37602       2
   37596   37584   37599       1   37596   37584   37602       2   37587   37566
   37590       1   37584   37566   37587       2   37584   37566   37590       2
   37584   37602   37608       2   37584   37602   37611       2   37575   37554
   37578       4   37575   37560   37581       4   37569   37545   37572       1
   37566   37545   37569       2   37566   37545   37572       2   37566   37584
   37596       2   37566   37584   37599       2   37560   37542   37563       4
   37560   37575   37593       4   37554   37539   37557       4   37554   37575
   37593       4   37548   37530   37551       1   37545   37530   37548       2
   37545   37530   37551       2   37545   37566   37587       2   37545   37566
   37590       2   37542   37560   37581       4   37539   37554   37578       4
   37533   37518   37536       1   37530   37518   37533       2   37530   37518
   37536       2   37530   37545   37569       2   37530   37545   37572       2
   37527   37539   37557       8   37527   37542   37563       8   37521   37500
   37524       1   37518   37500   37521       2   37518   37500   37524       2
   37518   37530   37548       2   37518   37530   37551       2   37509   37488
   37512       8   37509   37491   37515       8   37503   37482   37506       1
   37500   37482   37503       2   37500   37482   37506       2   37500   37518
   37533       2   37500   37518   37536       2   37491   37476   37494       4
   37482   37500   37521       2   37482   37500   37524       2   37479   37470
   37485       4   37476   37491   37515       4   37473   37488   37512       4
   37470   37479   37497       4   37464   37452   37467       4   37464   37479
   37497       4   37464   37482   37503      12   37464   37482   37506      12
   37461   37476   37494       4   37455   37470   37485       4   37443   37452
   37467       4   37818   37809   37821       1   37815   37809   37818       1
   37815   37809   37821       1   37809   37797   37812       2   37806   37797
   37809       2   37806   37797   37812       1   37800   37794   37803       1
   37797   37794   37800       2   37797   37794   37803       2   37797   37809
   37815       2   37797   37809   37818       2   37797   37809   37821       2
   37794   37797   37806       2   37794   37797   37812       2   37791   37776
   37794       2   37788   37776   37791       1   37788   37776   37794       2
   37779   37758   37782       1   37776   37758   37779       2   37776   37758
   37782       2   37776   37794   37800       2   37776   37794   37803       2
   37767   37746   37770       4   37767   37752   37773       4   37761   37737
   37764       1   37758   37737   37761       2   37758   37737   37764       2
   37758   37776   37788       2   37758   37776   37791       2   37752   37734
   37755       4   37752   37767   37785       4   37746   37731   37749       4
   37746   37767   37785       4   37740   37722   37743       1   37737   37722
   37740       2   37737   37722   37743       2   37737   37758   37779       2
   37737   37758   37782       2   37734   37752   37773       4   37731   37746
   37770       4   37725   37710   37728       1   37722   37710   37725       2
   37722   37710   37728       2   37722   37737   37761       2   37722   37737
   37764       2   37719   37731   37749       8   37719   37734   37755       8
   37713   37692   37716       1   37710   37692   37713       2   37710   37692
   37716       2   37710   37722   37740       2   37710   37722   37743       2
   37701   37680   37704       8   37701   37683   37707       8   37695   37674
   37698       1   37692   37674   37695       2   37692   37674   37698       2
   37692   37710   37725       2   37692   37710   37728       2   37683   37668
   37686       4   37674   37692   37713       2   37674   37692   37716       2
   37671   37662   37677       4   37668   37683   37707       4   37665   37680
   37704       4   37662   37671   37689       4   37656   37644   37659       4
   37656   37671   37689       4   37656   37674   37695      12   37656   37674
   37698      12   37653   37668   37686       4   37647   37662   37677       4
   37635   37644   37659       4   38010   38001   38013       1   38007   38001
   38010       1   38007   38001   38013       1   38001   37989   38004       2
   37998   37989   38001       2   37998   37989   38004       1   37992   37986
   37995       1   37989   37986   37992       2   37989   37986   37995       2
   37989   38001   38007       2   37989   38001   38010       2   37989   38001
   38013       2   37986   37989   37998       2   37986   37989   38004       2
   37983   37968   37986       2   37980   37968   37983       1   37980   37968
   37986       2   37971   37950   37974       1   37968   37950   37971       2
   37968   37950   37974       2   37968   37986   37992       2   37968   37986
   37995       2   37959   37938   37962       4   37959   37944   37965       4
   37953   37929   37956       1   37950   37929   37953       2   37950   37929
   37956       2   37950   37968   37980       2   37950   37968   37983       2
   37944   37926   37947       4   37944   37959   37977       4   37938   37923
   37941       4   37938   37959   37977       4   37932   37914   37935       1
   37929   37914   37932       2   37929   37914   37935       2   37929   37950
   37971       2   37929   37950   37974       2   37926   37944   37965       4
   37923   37938   37962       4   37917   37902   37920       1   37914   37902
   37917       2   37914   37902   37920       2   37914   37929   37953       2
   37914   37929   37956       2   37911   37923   37941       8   37911   37926
   37947       8   37905   37884   37908       1   37902   37884   37905       2
   37902   37884   37908       2   37902   37914   37932       2   37902   37914
   37935       2   37893   37872   37896       8   37893   37875   37899       8
   37887   37866   37890       1   37884   37866   37887       2   37884   37866
   37890       2   37884   37902   37917       2   37884   37902   37920       2
   37875   37860   37878       4   37866   37884   37905       2   37866   37884
   37908       2   37863   37854   37869       4   37860   37875   37899       4
   37857   37872   37896       4   37854   37863   37881       4   37848   37836
   37851       4   37848   37863   37881       4   37848   37866   37887      12
   37848   37866   37890      12   37845   37860   37878       4   37839   37854
   37869       4   37827   37836   37851       4   38202   38193   38205       1
   38199   38193   38202       1   38199   38193   38205       1   38193   38181
   38196       2   38190   38181   38193       2   38190   38181   38196       1
   38184   38178   38187       1   38181   38178   38184       2   38181   38178
   38187       2   38181   38193   38199       2   38181   38193   38202       2
   38181   38193   38205       2   38178   38181   38190       2   38178   38181
   38196       2   38175   38160   38178       2   38172   38160   38175       1
   38172   38160   38178       2   38163   38142   38166       1   38160   38142
   38163       2   38160   38142   38166       2   38160   38178   38184       2
   38160   38178   38187       2   38151   38130   38154       4   38151   38136
   38157       4   38145   38121   38148       1   38142   38121   38145       2
   38142   38121   38148       2   38142   38160   38172       2   38142   38160
   38175       2   38136   38118   38139       4   38136   38151   38169       4
   38130   38115   38133       4   38130   38151   38169       4   38124   38106
   38127       1   38121   38106   38124       2   38121   38106   38127       2
   38121   38142   38163       2   38121   38142   38166       2   38118   38136
   38157       4   38115   38130   38154       4   38109   38094   38112       1
   38106   38094   38109       2   38106   38094   38112       2   38106   38121
   38145       2   38106   38121   38148       2   38103   38115   38133       8
   38103   38118   38139       8   38097   38076   38100       1   38094   38076
   38097       2   38094   38076   38100       2   38094   38106   38124       2
   38094   38106   38127       2   38085   38064   38088       8   38085   38067
   38091       8   38079   38058   38082       1   38076   38058   38079       2
   38076   38058   38082       2   38076   38094   38109       2   38076   38094
   38112       2   38067   38052   38070       4   38058   38076   38097       2
   38058   38076   38100       2   38055   38046   38061       4   38052   38067
   38091       4   38049   38064   38088       4   38046   38055   38073       4
   38040   38028   38043       4   38040   38055   38073       4   38040   38058
   38079      12   38040   38058   38082      12   38037   38052   38070       4
   38031   38046   38061       4   38019   38028   38043       4   38394   38385
   38397       1   38391   38385   38394       1   38391   38385   38397       1
   38385   38373   38388       2   38382   38373   38385       2   38382   38373
   38388       1   38376   38370   38379       1   38373   38370   38376       2
   38373   38370   38379       2   38373   38385   38391       2   38373   38385
   38394       2   38373   38385   38397       2   38370   38373   38382       2
   38370   38373   38388       2   38367   38352   38370       2   38364   38352
   38367       1   38364   38352   38370       2   38355   38334   38358       1
   38352   38334   38355       2   38352   38334   38358       2   38352   38370
   38376       2   38352   38370   38379       2   38343   38322   38346       4
   38343   38328   38349       4   38337   38313   38340       1   38334   38313
   38337       2   38334   38313   38340       2   38334   38352   38364       2
   38334   38352   38367       2   38328   38310   38331       4   38328   38343
   38361       4   38322   38307   38325       4   38322   38343   38361       4
   38316   38298   38319       1   38313   38298   38316       2   38313   38298
   38319       2   38313   38334   38355       2   38313   38334   38358       2
   38310   38328   38349       4   38307   38322   38346       4   38301   38286
   38304       1   38298   38286   38301       2   38298   38286   38304       2
   38298   38313   38337       2   38298   38313   38340       2   38295   38307
   38325       8   38295   38310   38331       8   38289   38268   38292       1
   38286   38268   38289       2   38286   38268   38292       2   38286   38298
   38316       2   38286   38298   38319       2   38277   38256   38280       8
   38277   38259   38283       8   38271   38250   38274       1   38268   38250
   38271       2   38268   38250   38274       2   38268   38286   38301       2
   38268   38286   38304       2   38259   38244   38262       4   38250   38268
   38289       2   38250   38268   38292       2   38247   38238   38253       4
   38244   38259   38283       4   38241   38256   38280       4   38238   38247
   38265       4   38232   38220   38235       4   38232   38247   38265       4
   38232   38250   38271      12   38232   38250   38274      12   38229   38244
   38262       4   38223   38238   38253       4   38211   38220   38235       4
   38586   38577   38589       1   38583   38577   38586       1   38583   38577
   38589       1   38577   38565   38580       2   38574   38565   38577       2
   38574   38565   38580       1   38568   38562   38571       1   38565   38562
   38568       2   38565   38562   38571       2   38565   38577   38583       2
   38565   38577   38586       2   38565   38577   38589       2   38562   38565
   38574       2   38562   38565   38580       2   38559   38544   38562       2
   38556   38544   38559       1   38556   38544   38562       2   38547   38526
   38550       1   38544   38526   38547       2   38544   38526   38550       2
   38544   38562   38568       2   38544   38562   38571       2   38535   38514
   38538       4   38535   38520   38541       4   38529   38505   38532       1
   38526   38505   38529       2   38526   38505   38532       2   38526   38544
   38556       2   38526   38544   38559       2   38520   38502   38523       4
   38520   38535   38553       4   38514   38499   38517       4   38514   38535
   38553       4   38508   38490   38511       1   38505   38490   38508       2
   38505   38490   38511       2   38505   38526   38547       2   38505   38526
   38550       2   38502   38520   38541       4   38499   38514   38538       4
   38493   38478   38496       1   38490   38478   38493       2   38490   38478
   38496       2   38490   38505   38529       2   38490   38505   38532       2
   38487   38499   38517       8   38487   38502   38523       8   38481   38460
   38484       1   38478   38460   38481       2   38478   38460   38484       2
   38478   38490   38508       2   38478   38490   38511       2   38469   38448
   38472       8   38469   38451   38475       8   38463   38442   38466       1
   38460   38442   38463       2   38460   38442   38466       2   38460   38478
   38493       2   38460   38478   38496       2   38451   38436   38454       4
   38442   38460   38481       2   38442   38460   38484       2   38439   38430
   38445       4   38436   38451   38475       4   38433   38448   38472       4
   38430   38439   38457       4   38424   38412   38427       4   38424   38439
   38457       4   38424   38442   38463      12   38424   38442   38466      12
   38421   38436   38454       4   38415   38430   38445       4   38403   38412
   38427       4   38778   38769   38781       1   38775   38769   38778       1
   38775   38769   38781       1   38769   38757   38772       2   38766   38757
   38769       2   38766   38757   38772       1   38760   38754   38763       1
   38757   38754   38760       2   38757   38754   38763       2   38757   38769
   38775       2   38757   38769   38778       2   38757   38769   38781       2
   38754   38757   38766       2   38754   38757   38772       2   38751   38736
   38754       2   38748   38736   38751       1   38748   38736   38754       2
   38739   38718   38742       1   38736   38718   38739       2   38736   38718
   38742       2   38736   38754   38760       2   38736   38754   38763       2
   38727   38706   38730       4   38727   38712   38733       4   38721   38697
   38724       1   38718   38697   38721       2   38718   38697   38724       2
   38718   38736   38748       2   38718   38736   38751       2   38712   38694
   38715       4   38712   38727   38745       4   38706   38691   38709       4
   38706   38727   38745       4   38700   38682   38703       1   38697   38682
   38700       2   38697   38682   38703       2   38697   38718   38739       2
   38697   38718   38742       2   38694   38712   38733       4   38691   38706
   38730       4   38685   38670   38688       1   38682   38670   38685       2
   38682   38670   38688       2   38682   38697   38721       2   38682   38697
   38724       2   38679   38691   38709       8   38679   38694   38715       8
   38673   38652   38676       1   38670   38652   38673       2   38670   38652
   38676       2   38670   38682   38700       2   38670   38682   38703       2
   38661   38640   38664       8   38661   38643   38667       8   38655   38634
   38658       1   38652   38634   38655       2   38652   38634   38658       2
   38652   38670   38685       2   38652   38670   38688       2   38643   38628
   38646       4   38634   38652   38673       2   38634   38652   38676       2
   38631   38622   38637       4   38628   38643   38667       4   38625   38640
   38664       4   38622   38631   38649       4   38616   38604   38619       4
   38616   38631   38649       4   38616   38634   38655      12   38616   38634
   38658      12   38613   38628   38646       4   38607   38622   38637       4
   38595   38604   38619       4   38970   38961   38973       1   38967   38961
   38970       1   38967   38961   38973       1   38961   38949   38964       2
   38958   38949   38961       2   38958   38949   38964       1   38952   38946
   38955       1   38949   38946   38952       2   38949   38946   38955       2
   38949   38961   38967       2   38949   38961   38970       2   38949   38961
   38973       2   38946   38949   38958       2   38946   38949   38964       2
   38943   38928   38946       2   38940   38928   38943       1   38940   38928
   38946       2   38931   38910   38934       1   38928   38910   38931       2
   38928   38910   38934       2   38928   38946   38952       2   38928   38946
   38955       2   38919   38898   38922       4   38919   38904   38925       4
   38913   38889   38916       1   38910   38889   38913       2   38910   38889
   38916       2   38910   38928   38940       2   38910   38928   38943       2
   38904   38886   38907       4   38904   38919   38937       4   38898   38883
   38901       4   38898   38919   38937       4   38892   38874   38895       1
   38889   38874   38892       2   38889   38874   38895       2   38889   38910
   38931       2   38889   38910   38934       2   38886   38904   38925       4
   38883   38898   38922       4   38877   38862   38880       1   38874   38862
   38877       2   38874   38862   38880       2   38874   38889   38913       2
   38874   38889   38916       2   38871   38883   38901       8   38871   38886
   38907       8   38865   38844   38868       1   38862   38844   38865       2
   38862   38844   38868       2   38862   38874   38892       2   38862   38874
   38895       2   38853   38832   38856       8   38853   38835   38859       8
   38847   38826   38850       1   38844   38826   38847       2   38844   38826
   38850       2   38844   38862   38877       2   38844   38862   38880       2
   38835   38820   38838       4   38826   38844   38865       2   38826   38844
   38868       2   38823   38814   38829       4   38820   38835   38859       4
   38817   38832   38856       4   38814   38823   38841       4   38808   38796
   38811       4   38808   38823   38841       4   38808   38826   38847      12
   38808   38826   38850      12   38805   38820   38838       4   38799   38814
   38829       4   38787   38796   38811       4   39162   39153   39165       1
   39159   39153   39162       1   39159   39153   39165       1   39153   39141
   39156       2   39150   39141   39153       2   39150   39141   39156       1
   39144   39138   39147       1   39141   39138   39144       2   39141   39138
   39147       2   39141   39153   39159       2   39141   39153   39162       2
   39141   39153   39165       2   39138   39141   39150       2   39138   39141
   39156       2   39135   39120   39138       2   39132   39120   39135       1
   39132   39120   39138       2   39123   39102   39126       1   39120   39102
   39123       2   39120   39102   39126       2   39120   39138   39144       2
   39120   39138   39147       2   39111   39090   39114       4   39111   39096
   39117       4   39105   39081   39108       1   39102   39081   39105       2
   39102   39081   39108       2   39102   39120   39132       2   39102   39120
   39135       2   39096   39078   39099       4   39096   39111   39129       4
   39090   39075   39093       4   39090   39111   39129       4   39084   39066
   39087       1   39081   39066   39084       2   39081   39066   39087       2
   39081   39102   39123       2   39081   39102   39126       2   39078   39096
   39117       4   39075   39090   39114       4   39069   39054   39072       1
   39066   39054   39069       2   39066   39054   39072       2   39066   39081
   39105       2   39066   39081   39108       2   39063   39075   39093       8
   39063   39078   39099       8   39057   39036   39060       1   39054   39036
   39057       2   39054   39036   39060       2   39054   39066   39084       2
   39054   39066   39087       2   39045   39024   39048       8   39045   39027
   39051       8   39039   39018   39042       1   39036   39018   39039       2
   39036   39018   39042       2   39036   39054   39069       2   39036   39054
   39072       2   39027   39012   39030       4   39018   39036   39057       2
   39018   39036   39060       2   39015   39006   39021       4   39012   39027
   39051       4   39009   39024   39048       4   39006   39015   39033       4
   39000   38988   39003       4   39000   39015   39033       4   39000   39018
   39039      12   39000   39018   39042      12   38997   39012   39030       4
   38991   39006   39021       4   38979   38988   39003       4   39354   39345
   39357       1   39351   39345   39354       1   39351   39345   39357       1
   39345   39333   39348       2   39342   39333   39345       2   39342   39333
   39348       1   39336   39330   39339       1   39333   39330   39336       2
   39333   39330   39339       2   39333   39345   39351       2   39333   39345
   39354       2   39333   39345   39357       2   39330   39333   39342       2
   39330   39333   39348       2   39327   39312   39330       2   39324   39312
   39327       1   39324   39312   39330       2   39315   39294   39318       1
   39312   39294   39315       2   39312   39294   39318       2   39312   39330
   39336       2   39312   39330   39339       2   39303   39282   39306       4
   39303   39288   39309       4   39297   39273   39300       1   39294   39273
   39297       2   39294   39273   39300       2   39294   39312   39324       2
   39294   39312   39327       2   39288   39270   39291       4   39288   39303
   39321       4   39282   39267   39285       4   39282   39303   39321       4
   39276   39258   39279       1   39273   39258   39276       2   39273   39258
   39279       2   39273   39294   39315       2   39273   39294   39318       2
   39270   39288   39309       4   39267   39282   39306       4   39261   39246
   39264       1   39258   39246   39261       2   39258   39246   39264       2
   39258   39273   39297       2   39258   39273   39300       2   39255   39267
   39285       8   39255   39270   39291       8   39249   39228   39252       1
   39246   39228   39249       2   39246   39228   39252       2   39246   39258
   39276       2   39246   39258   39279       2   39237   39216   39240       8
   39237   39219   39243       8   39231   39210   39234       1   39228   39210
   39231       2   39228   39210   39234       2   39228   39246   39261       2
   39228   39246   39264       2   39219   39204   39222       4   39210   39228
   39249       2   39210   39228   39252       2   39207   39198   39213       4
   39204   39219   39243       4   39201   39216   39240       4   39198   39207
   39225       4   39192   39180   39195       4   39192   39207   39225       4
   39192   39210   39231      12   39192   39210   39234      12   39189   39204
   39222       4   39183   39198   39213       4   39171   39180   39195       4
   39546   39537   39549       1   39543   39537   39546       1   39543   39537
   39549       1   39537   39525   39540       2   39534   39525   39537       2
   39534   39525   39540       1   39528   39522   39531       1   39525   39522
   39528       2   39525   39522   39531       2   39525   39537   39543       2
   39525   39537   39546       2   39525   39537   39549       2   39522   39525
   39534       2   39522   39525   39540       2   39519   39504   39522       2
   39516   39504   39519       1   39516   39504   39522       2   39507   39486
   39510       1   39504   39486   39507       2   39504   39486   39510       2
   39504   39522   39528       2   39504   39522   39531       2   39495   39474
   39498       4   39495   39480   39501       4   39489   39465   39492       1
   39486   39465   39489       2   39486   39465   39492       2   39486   39504
   39516       2   39486   39504   39519       2   39480   39462   39483       4
   39480   39495   39513       4   39474   39459   39477       4   39474   39495
   39513       4   39468   39450   39471       1   39465   39450   39468       2
   39465   39450   39471       2   39465   39486   39507       2   39465   39486
   39510       2   39462   39480   39501       4   39459   39474   39498       4
   39453   39438   39456       1   39450   39438   39453       2   39450   39438
   39456       2   39450   39465   39489       2   39450   39465   39492       2
   39447   39459   39477       8   39447   39462   39483       8   39441   39420
   39444       1   39438   39420   39441       2   39438   39420   39444       2
   39438   39450   39468       2   39438   39450   39471       2   39429   39408
   39432       8   39429   39411   39435       8   39423   39402   39426       1
   39420   39402   39423       2   39420   39402   39426       2   39420   39438
   39453       2   39420   39438   39456       2   39411   39396   39414       4
   39402   39420   39441       2   39402   39420   39444       2   39399   39390
   39405       4   39396   39411   39435       4   39393   39408   39432       4
   39390   39399   39417       4   39384   39372   39387       4   39384   39399
   39417       4   39384   39402   39423      12   39384   39402   39426      12
   39381   39396   39414       4   39375   39390   39405       4   39363   39372
   39387       4   39738   39729   39741       1   39735   39729   39738       1
   39735   39729   39741       1   39729   39717   39732       2   39726   39717
   39729       2   39726   39717   39732       1   39720   39714   39723       1
   39717   39714   39720       2   39717   39714   39723       2   39717   39729
   39735       2   39717   39729   39738       2   39717   39729   39741       2
   39714   39717   39726       2   39714   39717   39732       2   39711   39696
   39714       2   39708   39696   39711       1   39708   39696   39714       2
   39699   39678   39702       1   39696   39678   39699       2   39696   39678
   39702       2   39696   39714   39720       2   39696   39714   39723       2
   39687   39666   39690       4   39687   39672   39693       4   39681   39657
   39684       1   39678   39657   39681       2   39678   39657   39684       2
   39678   39696   39708       2   39678   39696   39711       2   39672   39654
   39675       4   39672   39687   39705       4   39666   39651   39669       4
   39666   39687   39705       4   39660   39642   39663       1   39657   39642
   39660       2   39657   39642   39663       2   39657   39678   39699       2
   39657   39678   39702       2   39654   39672   39693       4   39651   39666
   39690       4   39645   39630   39648       1   39642   39630   39645       2
   39642   39630   39648       2   39642   39657   39681       2   39642   39657
   39684       2   39639   39651   39669       8   39639   39654   39675       8
   39633   39612   39636       1   39630   39612   39633       2   39630   39612
   39636       2   39630   39642   39660       2   39630   39642   39663       2
   39621   39600   39624       8   39621   39603   39627       8   39615   39594
   39618       1   39612   39594   39615       2   39612   39594   39618       2
   39612   39630   39645       2   39612   39630   39648       2   39603   39588
   39606       4   39594   39612   39633       2   39594   39612   39636       2
   39591   39582   39597       4   39588   39603   39627       4   39585   39600
   39624       4   39582   39591   39609       4   39576   39564   39579       4
   39576   39591   39609       4   39576   39594   39615      12   39576   39594
   39618      12   39573   39588   39606       4   39567   39582   39597       4
   39555   39564   39579       4   39930   39921   39933       1   39927   39921
   39930       1   39927   39921   39933       1   39921   39909   39924       2
   39918   39909   39921       2   39918   39909   39924       1   39912   39906
   39915       1   39909   39906   39912       2   39909   39906   39915       2
   39909   39921   39927       2   39909   39921   39930       2   39909   39921
   39933       2   39906   39909   39918       2   39906   39909   39924       2
   39903   39888   39906       2   39900   39888   39903       1   39900   39888
   39906       2   39891   39870   39894       1   39888   39870   39891       2
   39888   39870   39894       2   39888   39906   39912       2   39888   39906
   39915       2   39879   39858   39882       4   39879   39864   39885       4
   39873   39849   39876       1   39870   39849   39873       2   39870   39849
   39876       2   39870   39888   39900       2   39870   39888   39903       2
   39864   39846   39867       4   39864   39879   39897       4   39858   39843
   39861       4   39858   39879   39897       4   39852   39834   39855       1
   39849   39834   39852       2   39849   39834   39855       2   39849   39870
   39891       2   39849   39870   39894       2   39846   39864   39885       4
   39843   39858   39882       4   39837   39822   39840       1   39834   39822
   39837       2   39834   39822   39840       2   39834   39849   39873       2
   39834   39849   39876       2   39831   39843   39861       8   39831   39846
   39867       8   39825   39804   39828       1   39822   39804   39825       2
   39822   39804   39828       2   39822   39834   39852       2   39822   39834
   39855       2   39813   39792   39816       8   39813   39795   39819       8
   39807   39786   39810       1   39804   39786   39807       2   39804   39786
   39810       2   39804   39822   39837       2   39804   39822   39840       2
   39795   39780   39798       4   39786   39804   39825       2   39786   39804
   39828       2   39783   39774   39789       4   39780   39795   39819       4
   39777   39792   39816       4   39774   39783   39801       4   39768   39756
   39771       4   39768   39783   39801       4   39768   39786   39807      12
   39768   39786   39810      12   39765   39780   39798       4   39759   39774
   39789       4   39747   39756   39771       4   40122   40113   40125       1
   40119   40113   40122       1   40119   40113   40125       1   40113   40101
   40116       2   40110   40101   40113       2   40110   40101   40116       1
   40104   40098   40107       1   40101   40098   40104       2   40101   40098
   40107       2   40101   40113   40119       2   40101   40113   40122       2
   40101   40113   40125       2   40098   40101   40110       2   40098   40101
   40116       2   40095   40080   40098       2   40092   40080   40095       1
   40092   40080   40098       2   40083   40062   40086       1   40080   40062
   40083       2   40080   40062   40086       2   40080   40098   40104       2
   40080   40098   40107       2   40071   40050   40074       4   40071   40056
   40077       4   40065   40041   40068       1   40062   40041   40065       2
   40062   40041   40068       2   40062   40080   40092       2   40062   40080
   40095       2   40056   40038   40059       4   40056   40071   40089       4
   40050   40035   40053       4   40050   40071   40089       4   40044   40026
   40047       1   40041   40026   40044       2   40041   40026   40047       2
   40041   40062   40083       2   40041   40062   40086       2   40038   40056
   40077       4   40035   40050   40074       4   40029   40014   40032       1
   40026   40014   40029       2   40026   40014   40032       2   40026   40041
   40065       2   40026   40041   40068       2   40023   40035   40053       8
   40023   40038   40059       8   40017   39996   40020       1   40014   39996
   40017       2   40014   39996   40020       2   40014   40026   40044       2
   40014   40026   40047       2   40005   39984   40008       8   40005   39987
   40011       8   39999   39978   40002       1   39996   39978   39999       2
   39996   39978   40002       2   39996   40014   40029       2   39996   40014
   40032       2   39987   39972   39990       4   39978   39996   40017       2
   39978   39996   40020       2   39975   39966   39981       4   39972   39987
   40011       4   39969   39984   40008       4   39966   39975   39993       4
   39960   39948   39963       4   39960   39975   39993       4   39960   39978
   39999      12   39960   39978   40002      12   39957   39972   39990       4
   39951   39966   39981       4   39939   39948   39963       4   40314   40305
   40317       1   40311   40305   40314       1   40311   40305   40317       1
   40305   40293   40308       2   40302   40293   40305       2   40302   40293
   40308       1   40296   40290   40299       1   40293   40290   40296       2
   40293   40290   40299       2   40293   40305   40311       2   40293   40305
   40314       2   40293   40305   40317       2   40290   40293   40302       2
   40290   40293   40308       2   40287   40272   40290       2   40284   40272
   40287       1   40284   40272   40290       2   40275   40254   40278       1
   40272   40254   40275       2   40272   40254   40278       2   40272   40290
   40296       2   40272   40290   40299       2   40263   40242   40266       4
   40263   40248   40269       4   40257   40233   40260       1   40254   40233
   40257       2   40254   40233   40260       2   40254   40272   40284       2
   40254   40272   40287       2   40248   40230   40251       4   40248   40263
   40281       4   40242   40227   40245       4   40242   40263   40281       4
   40236   40218   40239       1   40233   40218   40236       2   40233   40218
   40239       2   40233   40254   40275       2   40233   40254   40278       2
   40230   40248   40269       4   40227   40242   40266       4   40221   40206
   40224       1   40218   40206   40221       2   40218   40206   40224       2
   40218   40233   40257       2   40218   40233   40260       2   40215   40227
   40245       8   40215   40230   40251       8   40209   40188   40212       1
   40206   40188   40209       2   40206   40188   40212       2   40206   40218
   40236       2   40206   40218   40239       2   40197   40176   40200       8
   40197   40179   40203       8   40191   40170   40194       1   40188   40170
   40191       2   40188   40170   40194       2   40188   40206   40221       2
   40188   40206   40224       2   40179   40164   40182       4   40170   40188
   40209       2   40170   40188   40212       2   40167   40158   40173       4
   40164   40179   40203       4   40161   40176   40200       4   40158   40167
   40185       4   40152   40140   40155       4   40152   40167   40185       4
   40152   40170   40191      12   40152   40170   40194      12   40149   40164
   40182       4   40143   40158   40173       4   40131   40140   40155       4
   40506   40497   40509       1   40503   40497   40506       1   40503   40497
   40509       1   40497   40485   40500       2   40494   40485   40497       2
   40494   40485   40500       1   40488   40482   40491       1   40485   40482
   40488       2   40485   40482   40491       2   40485   40497   40503       2
   40485   40497   40506       2   40485   40497   40509       2   40482   40485
   40494       2   40482   40485   40500       2   40479   40464   40482       2
   40476   40464   40479       1   40476   40464   40482       2   40467   40446
   40470       1   40464   40446   40467       2   40464   40446   40470       2
   40464   40482   40488       2   40464   40482   40491       2   40455   40434
   40458       4   40455   40440   40461       4   40449   40425   40452       1
   40446   40425   40449       2   40446   40425   40452       2   40446   40464
   40476       2   40446   40464   40479       2   40440   40422   40443       4
   40440   40455   40473       4   40434   40419   40437       4   40434   40455
   40473       4   40428   40410   40431       1   40425   40410   40428       2
   40425   40410   40431       2   40425   40446   40467       2   40425   40446
   40470       2   40422   40440   40461       4   40419   40434   40458       4
   40413   40398   40416       1   40410   40398   40413       2   40410   40398
   40416       2   40410   40425   40449       2   40410   40425   40452       2
   40407   40419   40437       8   40407   40422   40443       8   40401   40380
   40404       1   40398   40380   40401       2   40398   40380   40404       2
   40398   40410   40428       2   40398   40410   40431       2   40389   40368
   40392       8   40389   40371   40395       8   40383   40362   40386       1
   40380   40362   40383       2   40380   40362   40386       2   40380   40398
   40413       2   40380   40398   40416       2   40371   40356   40374       4
   40362   40380   40401       2   40362   40380   40404       2   40359   40350
   40365       4   40356   40371   40395       4   40353   40368   40392       4
   40350   40359   40377       4   40344   40332   40347       4   40344   40359
   40377       4   40344   40362   40383      12   40344   40362   40386      12
   40341   40356   40374       4   40335   40350   40365       4   40323   40332
   40347       4   40698   40689   40701       1   40695   40689   40698       1
   40695   40689   40701       1   40689   40677   40692       2   40686   40677
   40689       2   40686   40677   40692       1   40680   40674   40683       1
   40677   40674   40680       2   40677   40674   40683       2   40677   40689
   40695       2   40677   40689   40698       2   40677   40689   40701       2
   40674   40677   40686       2   40674   40677   40692       2   40671   40656
   40674       2   40668   40656   40671       1   40668   40656   40674       2
   40659   40638   40662       1   40656   40638   40659       2   40656   40638
   40662       2   40656   40674   40680       2   40656   40674   40683       2
   40647   40626   40650       4   40647   40632   40653       4   40641   40617
   40644       1   40638   40617   40641       2   40638   40617   40644       2
   40638   40656   40668       2   40638   40656   40671       2   40632   40614
   40635       4   40632   40647   40665       4   40626   40611   40629       4
   40626   40647   40665       4   40620   40602   40623       1   40617   40602
   40620       2   40617   40602   40623       2   40617   40638   40659       2
   40617   40638   40662       2   40614   40632   40653       4   40611   40626
   40650       4   40605   40590   40608       1   40602   40590   40605       2
   40602   40590   40608       2   40602   40617   40641       2   40602   40617
   40644       2   40599   40611   40629       8   40599   40614   40635       8
   40593   40572   40596       1   40590   40572   40593       2   40590   40572
   40596       2   40590   40602   40620       2   40590   40602   40623       2
   40581   40560   40584       8   40581   40563   40587       8   40575   40554
   40578       1   40572   40554   40575       2   40572   40554   40578       2
   40572   40590   40605       2   40572   40590   40608       2   40563   40548
   40566       4   40554   40572   40593       2   40554   40572   40596       2
   40551   40542   40557       4   40548   40563   40587       4   40545   40560
   40584       4   40542   40551   40569       4   40536   40524   40539       4
   40536   40551   40569       4   40536   40554   40575      12   40536   40554
   40578      12   40533   40548   40566       4   40527   40542   40557       4
   40515   40524   40539       4   40890   40881   40893       1   40887   40881
   40890       1   40887   40881   40893       1   40881   40869   40884       2
   40878   40869   40881       2   40878   40869   40884       1   40872   40866
   40875       1   40869   40866   40872       2   40869   40866   40875       2
   40869   40881   40887       2   40869   40881   40890       2   40869   40881
   40893       2   40866   40869   40878       2   40866   40869   40884       2
   40863   40848   40866       2   40860   40848   40863       1   40860   40848
   40866       2   40851   40830   40854       1   40848   40830   40851       2
   40848   40830   40854       2   40848   40866   40872       2   40848   40866
   40875       2   40839   40818   40842       4   40839   40824   40845       4
   40833   40809   40836       1   40830   40809   40833       2   40830   40809
   40836       2   40830   40848   40860       2   40830   40848   40863       2
   40824   40806   40827       4   40824   40839   40857       4   40818   40803
   40821       4   40818   40839   40857       4   40812   40794   40815       1
   40809   40794   40812       2   40809   40794   40815       2   40809   40830
   40851       2   40809   40830   40854       2   40806   40824   40845       4
   40803   40818   40842       4   40797   40782   40800       1   40794   40782
   40797       2   40794   40782   40800       2   40794   40809   40833       2
   40794   40809   40836       2   40791   40803   40821       8   40791   40806
   40827       8   40785   40764   40788       1   40782   40764   40785       2
   40782   40764   40788       2   40782   40794   40812       2   40782   40794
   40815       2   40773   40752   40776       8   40773   40755   40779       8
   40767   40746   40770       1   40764   40746   40767       2   40764   40746
   40770       2   40764   40782   40797       2   40764   40782   40800       2
   40755   40740   40758       4   40746   40764   40785       2   40746   40764
   40788       2   40743   40734   40749       4   40740   40755   40779       4
   40737   40752   40776       4   40734   40743   40761       4   40728   40716
   40731       4   40728   40743   40761       4   40728   40746   40767      12
   40728   40746   40770      12   40725   40740   40758       4   40719   40734
   40749       4   40707   40716   40731       4   41082   41073   41085       1
   41079   41073   41082       1   41079   41073   41085       1   41073   41061
   41076       2   41070   41061   41073       2   41070   41061   41076       1
   41064   41058   41067       1   41061   41058   41064       2   41061   41058
   41067       2   41061   41073   41079       2   41061   41073   41082       2
   41061   41073   41085       2   41058   41061   41070       2   41058   41061
   41076       2   41055   41040   41058       2   41052   41040   41055       1
   41052   41040   41058       2   41043   41022   41046       1   41040   41022
   41043       2   41040   41022   41046       2   41040   41058   41064       2
   41040   41058   41067       2   41031   41010   41034       4   41031   41016
   41037       4   41025   41001   41028       1   41022   41001   41025       2
   41022   41001   41028       2   41022   41040   41052       2   41022   41040
   41055       2   41016   40998   41019       4   41016   41031   41049       4
   41010   40995   41013       4   41010   41031   41049       4   41004   40986
   41007       1   41001   40986   41004       2   41001   40986   41007       2
   41001   41022   41043       2   41001   41022   41046       2   40998   41016
   41037       4   40995   41010   41034       4   40989   40974   40992       1
   40986   40974   40989       2   40986   40974   40992       2   40986   41001
   41025       2   40986   41001   41028       2   40983   40995   41013       8
   40983   40998   41019       8   40977   40956   40980       1   40974   40956
   40977       2   40974   40956   40980       2   40974   40986   41004       2
   40974   40986   41007       2   40965   40944   40968       8   40965   40947
   40971       8   40959   40938   40962       1   40956   40938   40959       2
   40956   40938   40962       2   40956   40974   40989       2   40956   40974
   40992       2   40947   40932   40950       4   40938   40956   40977       2
   40938   40956   40980       2   40935   40926   40941       4   40932   40947
   40971       4   40929   40944   40968       4   40926   40935   40953       4
   40920   40908   40923       4   40920   40935   40953       4   40920   40938
   40959      12   40920   40938   40962      12   40917   40932   40950       4
   40911   40926   40941       4   40899   40908   40923       4   41274   41265
   41277       1   41271   41265   41274       1   41271   41265   41277       1
   41265   41253   41268       2   41262   41253   41265       2   41262   41253
   41268       1   41256   41250   41259       1   41253   41250   41256       2
   41253   41250   41259       2   41253   41265   41271       2   41253   41265
   41274       2   41253   41265   41277       2   41250   41253   41262       2
   41250   41253   41268       2   41247   41232   41250       2   41244   41232
   41247       1   41244   41232   41250       2   41235   41214   41238       1
   41232   41214   41235       2   41232   41214   41238       2   41232   41250
   41256       2   41232   41250   41259       2   41223   41202   41226       4
   41223   41208   41229       4   41217   41193   41220       1   41214   41193
   41217       2   41214   41193   41220       2   41214   41232   41244       2
   41214   41232   41247       2   41208   41190   41211       4   41208   41223
   41241       4   41202   41187   41205       4   41202   41223   41241       4
   41196   41178   41199       1   41193   41178   41196       2   41193   41178
   41199       2   41193   41214   41235       2   41193   41214   41238       2
   41190   41208   41229       4   41187   41202   41226       4   41181   41166
   41184       1   41178   41166   41181       2   41178   41166   41184       2
   41178   41193   41217       2   41178   41193   41220       2   41175   41187
   41205       8   41175   41190   41211       8   41169   41148   41172       1
   41166   41148   41169       2   41166   41148   41172       2   41166   41178
   41196       2   41166   41178   41199       2   41157   41136   41160       8
   41157   41139   41163       8   41151   41130   41154       1   41148   41130
   41151       2   41148   41130   41154       2   41148   41166   41181       2
   41148   41166   41184       2   41139   41124   41142       4   41130   41148
   41169       2   41130   41148   41172       2   41127   41118   41133       4
   41124   41139   41163       4   41121   41136   41160       4   41118   41127
   41145       4   41112   41100   41115       4   41112   41127   41145       4
   41112   41130   41151      12   41112   41130   41154      12   41109   41124
   41142       4   41103   41118   41133       4   41091   41100   41115       4
   41466   41457   41469       1   41463   41457   41466       1   41463   41457
   41469       1   41457   41445   41460       2   41454   41445   41457       2
   41454   41445   41460       1   41448   41442   41451       1   41445   41442
   41448       2   41445   41442   41451       2   41445   41457   41463       2
   41445   41457   41466       2   41445   41457   41469       2   41442   41445
   41454       2   41442   41445   41460       2   41439   41424   41442       2
   41436   41424   41439       1   41436   41424   41442       2   41427   41406
   41430       1   41424   41406   41427       2   41424   41406   41430       2
   41424   41442   41448       2   41424   41442   41451       2   41415   41394
   41418       4   41415   41400   41421       4   41409   41385   41412       1
   41406   41385   41409       2   41406   41385   41412       2   41406   41424
   41436       2   41406   41424   41439       2   41400   41382   41403       4
   41400   41415   41433       4   41394   41379   41397       4   41394   41415
   41433       4   41388   41370   41391       1   41385   41370   41388       2
   41385   41370   41391       2   41385   41406   41427       2   41385   41406
   41430       2   41382   41400   41421       4   41379   41394   41418       4
   41373   41358   41376       1   41370   41358   41373       2   41370   41358
   41376       2   41370   41385   41409       2   41370   41385   41412       2
   41367   41379   41397       8   41367   41382   41403       8   41361   41340
   41364       1   41358   41340   41361       2   41358   41340   41364       2
   41358   41370   41388       2   41358   41370   41391       2   41349   41328
   41352       8   41349   41331   41355       8   41343   41322   41346       1
   41340   41322   41343       2   41340   41322   41346       2   41340   41358
   41373       2   41340   41358   41376       2   41331   41316   41334       4
   41322   41340   41361       2   41322   41340   41364       2   41319   41310
   41325       4   41316   41331   41355       4   41313   41328   41352       4
   41310   41319   41337       4   41304   41292   41307       4   41304   41319
   41337       4   41304   41322   41343      12   41304   41322   41346      12
   41301   41316   41334       4   41295   41310   41325       4   41283   41292
   41307       4   41658   41649   41661       1   41655   41649   41658       1
   41655   41649   41661       1   41649   41637   41652       2   41646   41637
   41649       2   41646   41637   41652       1   41640   41634   41643       1
   41637   41634   41640       2   41637   41634   41643       2   41637   41649
   41655       2   41637   41649   41658       2   41637   41649   41661       2
   41634   41637   41646       2   41634   41637   41652       2   41631   41616
   41634       2   41628   41616   41631       1   41628   41616   41634       2
   41619   41598   41622       1   41616   41598   41619       2   41616   41598
   41622       2   41616   41634   41640       2   41616   41634   41643       2
   41607   41586   41610       4   41607   41592   41613       4   41601   41577
   41604       1   41598   41577   41601       2   41598   41577   41604       2
   41598   41616   41628       2   41598   41616   41631       2   41592   41574
   41595       4   41592   41607   41625       4   41586   41571   41589       4
   41586   41607   41625       4   41580   41562   41583       1   41577   41562
   41580       2   41577   41562   41583       2   41577   41598   41619       2
   41577   41598   41622       2   41574   41592   41613       4   41571   41586
   41610       4   41565   41550   41568       1   41562   41550   41565       2
   41562   41550   41568       2   41562   41577   41601       2   41562   41577
   41604       2   41559   41571   41589       8   41559   41574   41595       8
   41553   41532   41556       1   41550   41532   41553       2   41550   41532
   41556       2   41550   41562   41580       2   41550   41562   41583       2
   41541   41520   41544       8   41541   41523   41547       8   41535   41514
   41538       1   41532   41514   41535       2   41532   41514   41538       2
   41532   41550   41565       2   41532   41550   41568       2   41523   41508
   41526       4   41514   41532   41553       2   41514   41532   41556       2
   41511   41502   41517       4   41508   41523   41547       4   41505   41520
   41544       4   41502   41511   41529       4   41496   41484   41499       4
   41496   41511   41529       4   41496   41514   41535      12   41496   41514
   41538      12   41493   41508   41526       4   41487   41502   41517       4
   41475   41484   41499       4   41850   41841   41853       1   41847   41841
   41850       1   41847   41841   41853       1   41841   41829   41844       2
   41838   41829   41841       2   41838   41829   41844       1   41832   41826
   41835       1   41829   41826   41832       2   41829   41826   41835       2
   41829   41841   41847       2   41829   41841   41850       2   41829   41841
   41853       2   41826   41829   41838       2   41826   41829   41844       2
   41823   41808   41826       2   41820   41808   41823       1   41820   41808
   41826       2   41811   41790   41814       1   41808   41790   41811       2
   41808   41790   41814       2   41808   41826   41832       2   41808   41826
   41835       2   41799   41778   41802       4   41799   41784   41805       4
   41793   41769   41796       1   41790   41769   41793       2   41790   41769
   41796       2   41790   41808   41820       2   41790   41808   41823       2
   41784   41766   41787       4   41784   41799   41817       4   41778   41763
   41781       4   41778   41799   41817       4   41772   41754   41775       1
   41769   41754   41772       2   41769   41754   41775       2   41769   41790
   41811       2   41769   41790   41814       2   41766   41784   41805       4
   41763   41778   41802       4   41757   41742   41760       1   41754   41742
   41757       2   41754   41742   41760       2   41754   41769   41793       2
   41754   41769   41796       2   41751   41763   41781       8   41751   41766
   41787       8   41745   41724   41748       1   41742   41724   41745       2
   41742   41724   41748       2   41742   41754   41772       2   41742   41754
   41775       2   41733   41712   41736       8   41733   41715   41739       8
   41727   41706   41730       1   41724   41706   41727       2   41724   41706
   41730       2   41724   41742   41757       2   41724   41742   41760       2
   41715   41700   41718       4   41706   41724   41745       2   41706   41724
   41748       2   41703   41694   41709       4   41700   41715   41739       4
   41697   41712   41736       4   41694   41703   41721       4   41688   41676
   41691       4   41688   41703   41721       4   41688   41706   41727      12
   41688   41706   41730      12   41685   41700   41718       4   41679   41694
   41709       4   41667   41676   41691       4   42042   42033   42045       1
   42039   42033   42042       1   42039   42033   42045       1   42033   42021
   42036       2   42030   42021   42033       2   42030   42021   42036       1
   42024   42018   42027       1   42021   42018   42024       2   42021   42018
   42027       2   42021   42033   42039       2   42021   42033   42042       2
   42021   42033   42045       2   42018   42021   42030       2   42018   42021
   42036       2   42015   42000   42018       2   42012   42000   42015       1
   42012   42000   42018       2   42003   41982   42006       1   42000   41982
   42003       2   42000   41982   42006       2   42000   42018   42024       2
   42000   42018   42027       2   41991   41970   41994       4   41991   41976
   41997       4   41985   41961   41988       1   41982   41961   41985       2
   41982   41961   41988       2   41982   42000   42012       2   41982   42000
   42015       2   41976   41958   41979       4   41976   41991   42009       4
   41970   41955   41973       4   41970   41991   42009       4   41964   41946
   41967       1   41961   41946   41964       2   41961   41946   41967       2
   41961   41982   42003       2   41961   41982   42006       2   41958   41976
   41997       4   41955   41970   41994       4   41949   41934   41952       1
   41946   41934   41949       2   41946   41934   41952       2   41946   41961
   41985       2   41946   41961   41988       2   41943   41955   41973       8
   41943   41958   41979       8   41937   41916   41940       1   41934   41916
   41937       2   41934   41916   41940       2   41934   41946   41964       2
   41934   41946   41967       2   41925   41904   41928       8   41925   41907
   41931       8   41919   41898   41922       1   41916   41898   41919       2
   41916   41898   41922       2   41916   41934   41949       2   41916   41934
   41952       2   41907   41892   41910       4   41898   41916   41937       2
   41898   41916   41940       2   41895   41886   41901       4   41892   41907
   41931       4   41889   41904   41928       4   41886   41895   41913       4
   41880   41868   41883       4   41880   41895   41913       4   41880   41898
   41919      12   41880   41898   41922      12   41877   41892   41910       4
   41871   41886   41901       4   41859   41868   41883       4   42234   42225
   42237       1   42231   42225   42234       1   42231   42225   42237       1
   42225   42213   42228       2   42222   42213   42225       2   42222   42213
   42228       1   42216   42210   42219       1   42213   42210   42216       2
   42213   42210   42219       2   42213   42225   42231       2   42213   42225
   42234       2   42213   42225   42237       2   42210   42213   42222       2
   42210   42213   42228       2   42207   42192   42210       2   42204   42192
   42207       1   42204   42192   42210       2   42195   42174   42198       1
   42192   42174   42195       2   42192   42174   42198       2   42192   42210
   42216       2   42192   42210   42219       2   42183   42162   42186       4
   42183   42168   42189       4   42177   42153   42180       1   42174   42153
   42177       2   42174   42153   42180       2   42174   42192   42204       2
   42174   42192   42207       2   42168   42150   42171       4   42168   42183
   42201       4   42162   42147   42165       4   42162   42183   42201       4
   42156   42138   42159       1   42153   42138   42156       2   42153   42138
   42159       2   42153   42174   42195       2   42153   42174   42198       2
   42150   42168   42189       4   42147   42162   42186       4   42141   42126
   42144       1   42138   42126   42141       2   42138   42126   42144       2
   42138   42153   42177       2   42138   42153   42180       2   42135   42147
   42165       8   42135   42150   42171       8   42129   42108   42132       1
   42126   42108   42129       2   42126   42108   42132       2   42126   42138
   42156       2   42126   42138   42159       2   42117   42096   42120       8
   42117   42099   42123       8   42111   42090   42114       1   42108   42090
   42111       2   42108   42090   42114       2   42108   42126   42141       2
   42108   42126   42144       2   42099   42084   42102       4   42090   42108
   42129       2   42090   42108   42132       2   42087   42078   42093       4
   42084   42099   42123       4   42081   42096   42120       4   42078   42087
   42105       4   42072   42060   42075       4   42072   42087   42105       4
   42072   42090   42111      12   42072   42090   42114      12   42069   42084
   42102       4   42063   42078   42093       4   42051   42060   42075       4
   42426   42417   42429       1   42423   42417   42426       1   42423   42417
   42429       1   42417   42405   42420       2   42414   42405   42417       2
   42414   42405   42420       1   42408   42402   42411       1   42405   42402
   42408       2   42405   42402   42411       2   42405   42417   42423       2
   42405   42417   42426       2   42405   42417   42429       2   42402   42405
   42414       2   42402   42405   42420       2   42399   42384   42402       2
   42396   42384   42399       1   42396   42384   42402       2   42387   42366
   42390       1   42384   42366   42387       2   42384   42366   42390       2
   42384   42402   42408       2   42384   42402   42411       2   42375   42354
   42378       4   42375   42360   42381       4   42369   42345   42372       1
   42366   42345   42369       2   42366   42345   42372       2   42366   42384
   42396       2   42366   42384   42399       2   42360   42342   42363       4
   42360   42375   42393       4   42354   42339   42357       4   42354   42375
   42393       4   42348   42330   42351       1   42345   42330   42348       2
   42345   42330   42351       2   42345   42366   42387       2   42345   42366
   42390       2   42342   42360   42381       4   42339   42354   42378       4
   42333   42318   42336       1   42330   42318   42333       2   42330   42318
   42336       2   42330   42345   42369       2   42330   42345   42372       2
   42327   42339   42357       8   42327   42342   42363       8   42321   42300
   42324       1   42318   42300   42321       2   42318   42300   42324       2
   42318   42330   42348       2   42318   42330   42351       2   42309   42288
   42312       8   42309   42291   42315       8   42303   42282   42306       1
   42300   42282   42303       2   42300   42282   42306       2   42300   42318
   42333       2   42300   42318   42336       2   42291   42276   42294       4
   42282   42300   42321       2   42282   42300   42324       2   42279   42270
   42285       4   42276   42291   42315       4   42273   42288   42312       4
   42270   42279   42297       4   42264   42252   42267       4   42264   42279
   42297       4   42264   42282   42303      12   42264   42282   42306      12
   42261   42276   42294       4   42255   42270   42285       4   42243   42252
   42267       4   42618   42609   42621       1   42615   42609   42618       1
   42615   42609   42621       1   42609   42597   42612       2   42606   42597
   42609       2   42606   42597   42612       1   42600   42594   42603       1
   42597   42594   42600       2   42597   42594   42603       2   42597   42609
   42615       2   42597   42609   42618       2   42597   42609   42621       2
   42594   42597   42606       2   42594   42597   42612       2   42591   42576
   42594       2   42588   42576   42591       1   42588   42576   42594       2
   42579   42558   42582       1   42576   42558   42579       2   42576   42558
   42582       2   42576   42594   42600       2   42576   42594   42603       2
   42567   42546   42570       4   42567   42552   42573       4   42561   42537
   42564       1   42558   42537   42561       2   42558   42537   42564       2
   42558   42576   42588       2   42558   42576   42591       2   42552   42534
   42555       4   42552   42567   42585       4   42546   42531   42549       4
   42546   42567   42585       4   42540   42522   42543       1   42537   42522
   42540       2   42537   42522   42543       2   42537   42558   42579       2
   42537   42558   42582       2   42534   42552   42573       4   42531   42546
   42570       4   42525   42510   42528       1   42522   42510   42525       2
   42522   42510   42528       2   42522   42537   42561       2   42522   42537
   42564       2   42519   42531   42549       8   42519   42534   42555       8
   42513   42492   42516       1   42510   42492   42513       2   42510   42492
   42516       2   42510   42522   42540       2   42510   42522   42543       2
   42501   42480   42504       8   42501   42483   42507       8   42495   42474
   42498       1   42492   42474   42495       2   42492   42474   42498       2
   42492   42510   42525       2   42492   42510   42528       2   42483   42468
   42486       4   42474   42492   42513       2   42474   42492   42516       2
   42471   42462   42477       4   42468   42483   42507       4   42465   42480
   42504       4   42462   42471   42489       4   42456   42444   42459       4
   42456   42471   42489       4   42456   42474   42495      12   42456   42474
   42498      12   42453   42468   42486       4   42447   42462   42477       4
   42435   42444   42459       4   42810   42801   42813       1   42807   42801
   42810       1   42807   42801   42813       1   42801   42789   42804       2
   42798   42789   42801       2   42798   42789   42804       1   42792   42786
   42795       1   42789   42786   42792       2   42789   42786   42795       2
   42789   42801   42807       2   42789   42801   42810       2   42789   42801
   42813       2   42786   42789   42798       2   42786   42789   42804       2
   42783   42768   42786       2   42780   42768   42783       1   42780   42768
   42786       2   42771   42750   42774       1   42768   42750   42771       2
   42768   42750   42774       2   42768   42786   42792       2   42768   42786
   42795       2   42759   42738   42762       4   42759   42744   42765       4
   42753   42729   42756       1   42750   42729   42753       2   42750   42729
   42756       2   42750   42768   42780       2   42750   42768   42783       2
   42744   42726   42747       4   42744   42759   42777       4   42738   42723
   42741       4   42738   42759   42777       4   42732   42714   42735       1
   42729   42714   42732       2   42729   42714   42735       2   42729   42750
   42771       2   42729   42750   42774       2   42726   42744   42765       4
   42723   42738   42762       4   42717   42702   42720       1   42714   42702
   42717       2   42714   42702   42720       2   42714   42729   42753       2
   42714   42729   42756       2   42711   42723   42741       8   42711   42726
   42747       8   42705   42684   42708       1   42702   42684   42705       2
   42702   42684   42708       2   42702   42714   42732       2   42702   42714
   42735       2   42693   42672   42696       8   42693   42675   42699       8
   42687   42666   42690       1   42684   42666   42687       2   42684   42666
   42690       2   42684   42702   42717       2   42684   42702   42720       2
   42675   42660   42678       4   42666   42684   42705       2   42666   42684
   42708       2   42663   42654   42669       4   42660   42675   42699       4
   42657   42672   42696       4   42654   42663   42681       4   42648   42636
   42651       4   42648   42663   42681       4   42648   42666   42687      12
   42648   42666   42690      12   42645   42660   42678       4   42639   42654
   42669       4   42627   42636   42651       4   43002   42993   43005       1
   42999   42993   43002       1   42999   42993   43005       1   42993   42981
   42996       2   42990   42981   42993       2   42990   42981   42996       1
   42984   42978   42987       1   42981   42978   42984       2   42981   42978
   42987       2   42981   42993   42999       2   42981   42993   43002       2
   42981   42993   43005       2   42978   42981   42990       2   42978   42981
   42996       2   42975   42960   42978       2   42972   42960   42975       1
   42972   42960   42978       2   42963   42942   42966       1   42960   42942
   42963       2   42960   42942   42966       2   42960   42978   42984       2
   42960   42978   42987       2   42951   42930   42954       4   42951   42936
   42957       4   42945   42921   42948       1   42942   42921   42945       2
   42942   42921   42948       2   42942   42960   42972       2   42942   42960
   42975       2   42936   42918   42939       4   42936   42951   42969       4
   42930   42915   42933       4   42930   42951   42969       4   42924   42906
   42927       1   42921   42906   42924       2   42921   42906   42927       2
   42921   42942   42963       2   42921   42942   42966       2   42918   42936
   42957       4   42915   42930   42954       4   42909   42894   42912       1
   42906   42894   42909       2   42906   42894   42912       2   42906   42921
   42945       2   42906   42921   42948       2   42903   42915   42933       8
   42903   42918   42939       8   42897   42876   42900       1   42894   42876
   42897       2   42894   42876   42900       2   42894   42906   42924       2
   42894   42906   42927       2   42885   42864   42888       8   42885   42867
   42891       8   42879   42858   42882       1   42876   42858   42879       2
   42876   42858   42882       2   42876   42894   42909       2   42876   42894
   42912       2   42867   42852   42870       4   42858   42876   42897       2
   42858   42876   42900       2   42855   42846   42861       4   42852   42867
   42891       4   42849   42864   42888       4   42846   42855   42873       4
   42840   42828   42843       4   42840   42855   42873       4   42840   42858
   42879      12   42840   42858   42882      12   42837   42852   42870       4
   42831   42846   42861       4   42819   42828   42843       4   43194   43185
   43197       1   43191   43185   43194       1   43191   43185   43197       1
   43185   43173   43188       2   43182   43173   43185       2   43182   43173
   43188       1   43176   43170   43179       1   43173   43170   43176       2
   43173   43170   43179       2   43173   43185   43191       2   43173   43185
   43194       2   43173   43185   43197       2   43170   43173   43182       2
   43170   43173   43188       2   43167   43152   43170       2   43164   43152
   43167       1   43164   43152   43170       2   43155   43134   43158       1
   43152   43134   43155       2   43152   43134   43158       2   43152   43170
   43176       2   43152   43170   43179       2   43143   43122   43146       4
   43143   43128   43149       4   43137   43113   43140       1   43134   43113
   43137       2   43134   43113   43140       2   43134   43152   43164       2
   43134   43152   43167       2   43128   43110   43131       4   43128   43143
   43161       4   43122   43107   43125       4   43122   43143   43161       4
   43116   43098   43119       1   43113   43098   43116       2   43113   43098
   43119       2   43113   43134   43155       2   43113   43134   43158       2
   43110   43128   43149       4   43107   43122   43146       4   43101   43086
   43104       1   43098   43086   43101       2   43098   43086   43104       2
   43098   43113   43137       2   43098   43113   43140       2   43095   43107
   43125       8   43095   43110   43131       8   43089   43068   43092       1
   43086   43068   43089       2   43086   43068   43092       2   43086   43098
   43116       2   43086   43098   43119       2   43077   43056   43080       8
   43077   43059   43083       8   43071   43050   43074       1   43068   43050
   43071       2   43068   43050   43074       2   43068   43086   43101       2
   43068   43086   43104       2   43059   43044   43062       4   43050   43068
   43089       2   43050   43068   43092       2   43047   43038   43053       4
   43044   43059   43083       4   43041   43056   43080       4   43038   43047
   43065       4   43032   43020   43035       4   43032   43047   43065       4
   43032   43050   43071      12   43032   43050   43074      12   43029   43044
   43062       4   43023   43038   43053       4   43011   43020   43035       4
   43386   43377   43389       1   43383   43377   43386       1   43383   43377
   43389       1   43377   43365   43380       2   43374   43365   43377       2
   43374   43365   43380       1   43368   43362   43371       1   43365   43362
   43368       2   43365   43362   43371       2   43365   43377   43383       2
   43365   43377   43386       2   43365   43377   43389       2   43362   43365
   43374       2   43362   43365   43380       2   43359   43344   43362       2
   43356   43344   43359       1   43356   43344   43362       2   43347   43326
   43350       1   43344   43326   43347       2   43344   43326   43350       2
   43344   43362   43368       2   43344   43362   43371       2   43335   43314
   43338       4   43335   43320   43341       4   43329   43305   43332       1
   43326   43305   43329       2   43326   43305   43332       2   43326   43344
   43356       2   43326   43344   43359       2   43320   43302   43323       4
   43320   43335   43353       4   43314   43299   43317       4   43314   43335
   43353       4   43308   43290   43311       1   43305   43290   43308       2
   43305   43290   43311       2   43305   43326   43347       2   43305   43326
   43350       2   43302   43320   43341       4   43299   43314   43338       4
   43293   43278   43296       1   43290   43278   43293       2   43290   43278
   43296       2   43290   43305   43329       2   43290   43305   43332       2
   43287   43299   43317       8   43287   43302   43323       8   43281   43260
   43284       1   43278   43260   43281       2   43278   43260   43284       2
   43278   43290   43308       2   43278   43290   43311       2   43269   43248
   43272       8   43269   43251   43275       8   43263   43242   43266       1
   43260   43242   43263       2   43260   43242   43266       2   43260   43278
   43293       2   43260   43278   43296       2   43251   43236   43254       4
   43242   43260   43281       2   43242   43260   43284       2   43239   43230
   43245       4   43236   43251   43275       4   43233   43248   43272       4
   43230   43239   43257       4   43224   43212   43227       4   43224   43239
   43257       4   43224   43242   43263      12   43224   43242   43266      12
   43221   43236   43254       4   43215   43230   43245       4   43203   43212
   43227       4   43578   43569   43581       1   43575   43569   43578       1
   43575   43569   43581       1   43569   43557   43572       2   43566   43557
   43569       2   43566   43557   43572       1   43560   43554   43563       1
   43557   43554   43560       2   43557   43554   43563       2   43557   43569
   43575       2   43557   43569   43578       2   43557   43569   43581       2
   43554   43557   43566       2   43554   43557   43572       2   43551   43536
   43554       2   43548   43536   43551       1   43548   43536   43554       2
   43539   43518   43542       1   43536   43518   43539       2   43536   43518
   43542       2   43536   43554   43560       2   43536   43554   43563       2
   43527   43506   43530       4   43527   43512   43533       4   43521   43497
   43524       1   43518   43497   43521       2   43518   43497   43524       2
   43518   43536   43548       2   43518   43536   43551       2   43512   43494
   43515       4   43512   43527   43545       4   43506   43491   43509       4
   43506   43527   43545       4   43500   43482   43503       1   43497   43482
   43500       2   43497   43482   43503       2   43497   43518   43539       2
   43497   43518   43542       2   43494   43512   43533       4   43491   43506
   43530       4   43485   43470   43488       1   43482   43470   43485       2
   43482   43470   43488       2   43482   43497   43521       2   43482   43497
   43524       2   43479   43491   43509       8   43479   43494   43515       8
   43473   43452   43476       1   43470   43452   43473       2   43470   43452
   43476       2   43470   43482   43500       2   43470   43482   43503       2
   43461   43440   43464       8   43461   43443   43467       8   43455   43434
   43458       1   43452   43434   43455       2   43452   43434   43458       2
   43452   43470   43485       2   43452   43470   43488       2   43443   43428
   43446       4   43434   43452   43473       2   43434   43452   43476       2
   43431   43422   43437       4   43428   43443   43467       4   43425   43440
   43464       4   43422   43431   43449       4   43416   43404   43419       4
   43416   43431   43449       4   43416   43434   43455      12   43416   43434
   43458      12   43413   43428   43446       4   43407   43422   43437       4
   43395   43404   43419       4   43770   43761   43773       1   43767   43761
   43770       1   43767   43761   43773       1   43761   43749   43764       2
   43758   43749   43761       2   43758   43749   43764       1   43752   43746
   43755       1   43749   43746   43752       2   43749   43746   43755       2
   43749   43761   43767       2   43749   43761   43770       2   43749   43761
   43773       2   43746   43749   43758       2   43746   43749   43764       2
   43743   43728   43746       2   43740   43728   43743       1   43740   43728
   43746       2   43731   43710   43734       1   43728   43710   43731       2
   43728   43710   43734       2   43728   43746   43752       2   43728   43746
   43755       2   43719   43698   43722       4   43719   43704   43725       4
   43713   43689   43716       1   43710   43689   43713       2   43710   43689
   43716       2   43710   43728   43740       2   43710   43728   43743       2
   43704   43686   43707       4   43704   43719   43737       4   43698   43683
   43701       4   43698   43719   43737       4   43692   43674   43695       1
   43689   43674   43692       2   43689   43674   43695       2   43689   43710
   43731       2   43689   43710   43734       2   43686   43704   43725       4
   43683   43698   43722       4   43677   43662   43680       1   43674   43662
   43677       2   43674   43662   43680       2   43674   43689   43713       2
   43674   43689   43716       2   43671   43683   43701       8   43671   43686
   43707       8   43665   43644   43668       1   43662   43644   43665       2
   43662   43644   43668       2   43662   43674   43692       2   43662   43674
   43695       2   43653   43632   43656       8   43653   43635   43659       8
   43647   43626   43650       1   43644   43626   43647       2   43644   43626
   43650       2   43644   43662   43677       2   43644   43662   43680       2
   43635   43620   43638       4   43626   43644   43665       2   43626   43644
   43668       2   43623   43614   43629       4   43620   43635   43659       4
   43617   43632   43656       4   43614   43623   43641       4   43608   43596
   43611       4   43608   43623   43641       4   43608   43626   43647      12
   43608   43626   43650      12   43605   43620   43638       4   43599   43614
   43629       4   43587   43596   43611       4   43962   43953   43965       1
   43959   43953   43962       1   43959   43953   43965       1   43953   43941
   43956       2   43950   43941   43953       2   43950   43941   43956       1
   43944   43938   43947       1   43941   43938   43944       2   43941   43938
   43947       2   43941   43953   43959       2   43941   43953   43962       2
   43941   43953   43965       2   43938   43941   43950       2   43938   43941
   43956       2   43935   43920   43938       2   43932   43920   43935       1
   43932   43920   43938       2   43923   43902   43926       1   43920   43902
   43923       2   43920   43902   43926       2   43920   43938   43944       2
   43920   43938   43947       2   43911   43890   43914       4   43911   43896
   43917       4   43905   43881   43908       1   43902   43881   43905       2
   43902   43881   43908       2   43902   43920   43932       2   43902   43920
   43935       2   43896   43878   43899       4   43896   43911   43929       4
   43890   43875   43893       4   43890   43911   43929       4   43884   43866
   43887       1   43881   43866   43884       2   43881   43866   43887       2
   43881   43902   43923       2   43881   43902   43926       2   43878   43896
   43917       4   43875   43890   43914       4   43869   43854   43872       1
   43866   43854   43869       2   43866   43854   43872       2   43866   43881
   43905       2   43866   43881   43908       2   43863   43875   43893       8
   43863   43878   43899       8   43857   43836   43860       1   43854   43836
   43857       2   43854   43836   43860       2   43854   43866   43884       2
   43854   43866   43887       2   43845   43824   43848       8   43845   43827
   43851       8   43839   43818   43842       1   43836   43818   43839       2
   43836   43818   43842       2   43836   43854   43869       2   43836   43854
   43872       2   43827   43812   43830       4   43818   43836   43857       2
   43818   43836   43860       2   43815   43806   43821       4   43812   43827
   43851       4   43809   43824   43848       4   43806   43815   43833       4
   43800   43788   43803       4   43800   43815   43833       4   43800   43818
   43839      12   43800   43818   43842      12   43797   43812   43830       4
   43791   43806   43821       4   43779   43788   43803       4   44154   44145
   44157       1   44151   44145   44154       1   44151   44145   44157       1
   44145   44133   44148       2   44142   44133   44145       2   44142   44133
   44148       1   44136   44130   44139       1   44133   44130   44136       2
   44133   44130   44139       2   44133   44145   44151       2   44133   44145
   44154       2   44133   44145   44157       2   44130   44133   44142       2
   44130   44133   44148       2   44127   44112   44130       2   44124   44112
   44127       1   44124   44112   44130       2   44115   44094   44118       1
   44112   44094   44115       2   44112   44094   44118       2   44112   44130
   44136       2   44112   44130   44139       2   44103   44082   44106       4
   44103   44088   44109       4   44097   44073   44100       1   44094   44073
   44097       2   44094   44073   44100       2   44094   44112   44124       2
   44094   44112   44127       2   44088   44070   44091       4   44088   44103
   44121       4   44082   44067   44085       4   44082   44103   44121       4
   44076   44058   44079       1   44073   44058   44076       2   44073   44058
   44079       2   44073   44094   44115       2   44073   44094   44118       2
   44070   44088   44109       4   44067   44082   44106       4   44061   44046
   44064       1   44058   44046   44061       2   44058   44046   44064       2
   44058   44073   44097       2   44058   44073   44100       2   44055   44067
   44085       8   44055   44070   44091       8   44049   44028   44052       1
   44046   44028   44049       2   44046   44028   44052       2   44046   44058
   44076       2   44046   44058   44079       2   44037   44016   44040       8
   44037   44019   44043       8   44031   44010   44034       1   44028   44010
   44031       2   44028   44010   44034       2   44028   44046   44061       2
   44028   44046   44064       2   44019   44004   44022       4   44010   44028
   44049       2   44010   44028   44052       2   44007   43998   44013       4
   44004   44019   44043       4   44001   44016   44040       4   43998   44007
   44025       4   43992   43980   43995       4   43992   44007   44025       4
   43992   44010   44031      12   43992   44010   44034      12   43989   44004
   44022       4   43983   43998   44013       4   43971   43980   43995       4
   44346   44337   44349       1   44343   44337   44346       1   44343   44337
   44349       1   44337   44325   44340       2   44334   44325   44337       2
   44334   44325   44340       1   44328   44322   44331       1   44325   44322
   44328       2   44325   44322   44331       2   44325   44337   44343       2
   44325   44337   44346       2   44325   44337   44349       2   44322   44325
   44334       2   44322   44325   44340       2   44319   44304   44322       2
   44316   44304   44319       1   44316   44304   44322       2   44307   44286
   44310       1   44304   44286   44307       2   44304   44286   44310       2
   44304   44322   44328       2   44304   44322   44331       2   44295   44274
   44298       4   44295   44280   44301       4   44289   44265   44292       1
   44286   44265   44289       2   44286   44265   44292       2   44286   44304
   44316       2   44286   44304   44319       2   44280   44262   44283       4
   44280   44295   44313       4   44274   44259   44277       4   44274   44295
   44313       4   44268   44250   44271       1   44265   44250   44268       2
   44265   44250   44271       2   44265   44286   44307       2   44265   44286
   44310       2   44262   44280   44301       4   44259   44274   44298       4
   44253   44238   44256       1   44250   44238   44253       2   44250   44238
   44256       2   44250   44265   44289       2   44250   44265   44292       2
   44247   44259   44277       8   44247   44262   44283       8   44241   44220
   44244       1   44238   44220   44241       2   44238   44220   44244       2
   44238   44250   44268       2   44238   44250   44271       2   44229   44208
   44232       8   44229   44211   44235       8   44223   44202   44226       1
   44220   44202   44223       2   44220   44202   44226       2   44220   44238
   44253       2   44220   44238   44256       2   44211   44196   44214       4
   44202   44220   44241       2   44202   44220   44244       2   44199   44190
   44205       4   44196   44211   44235       4   44193   44208   44232       4
   44190   44199   44217       4   44184   44172   44187       4   44184   44199
   44217       4   44184   44202   44223      12   44184   44202   44226      12
   44181   44196   44214       4   44175   44190   44205       4   44163   44172
   44187       4   44538   44529   44541       1   44535   44529   44538       1
   44535   44529   44541       1   44529   44517   44532       2   44526   44517
   44529       2   44526   44517   44532       1   44520   44514   44523       1
   44517   44514   44520       2   44517   44514   44523       2   44517   44529
   44535       2   44517   44529   44538       2   44517   44529   44541       2
   44514   44517   44526       2   44514   44517   44532       2   44511   44496
   44514       2   44508   44496   44511       1   44508   44496   44514       2
   44499   44478   44502       1   44496   44478   44499       2   44496   44478
   44502       2   44496   44514   44520       2   44496   44514   44523       2
   44487   44466   44490       4   44487   44472   44493       4   44481   44457
   44484       1   44478   44457   44481       2   44478   44457   44484       2
   44478   44496   44508       2   44478   44496   44511       2   44472   44454
   44475       4   44472   44487   44505       4   44466   44451   44469       4
   44466   44487   44505       4   44460   44442   44463       1   44457   44442
   44460       2   44457   44442   44463       2   44457   44478   44499       2
   44457   44478   44502       2   44454   44472   44493       4   44451   44466
   44490       4   44445   44430   44448       1   44442   44430   44445       2
   44442   44430   44448       2   44442   44457   44481       2   44442   44457
   44484       2   44439   44451   44469       8   44439   44454   44475       8
   44433   44412   44436       1   44430   44412   44433       2   44430   44412
   44436       2   44430   44442   44460       2   44430   44442   44463       2
   44421   44400   44424       8   44421   44403   44427       8   44415   44394
   44418       1   44412   44394   44415       2   44412   44394   44418       2
   44412   44430   44445       2   44412   44430   44448       2   44403   44388
   44406       4   44394   44412   44433       2   44394   44412   44436       2
   44391   44382   44397       4   44388   44403   44427       4   44385   44400
   44424       4   44382   44391   44409       4   44376   44364   44379       4
   44376   44391   44409       4   44376   44394   44415      12   44376   44394
   44418      12   44373   44388   44406       4   44367   44382   44397       4
   44355   44364   44379       4   44730   44721   44733       1   44727   44721
   44730       1   44727   44721   44733       1   44721   44709   44724       2
   44718   44709   44721       2   44718   44709   44724       1   44712   44706
   44715       1   44709   44706   44712       2   44709   44706   44715       2
   44709   44721   44727       2   44709   44721   44730       2   44709   44721
   44733       2   44706   44709   44718       2   44706   44709   44724       2
   44703   44688   44706       2   44700   44688   44703       1   44700   44688
   44706       2   44691   44670   44694       1   44688   44670   44691       2
   44688   44670   44694       2   44688   44706   44712       2   44688   44706
   44715       2   44679   44658   44682       4   44679   44664   44685       4
   44673   44649   44676       1   44670   44649   44673       2   44670   44649
   44676       2   44670   44688   44700       2   44670   44688   44703       2
   44664   44646   44667       4   44664   44679   44697       4   44658   44643
   44661       4   44658   44679   44697       4   44652   44634   44655       1
   44649   44634   44652       2   44649   44634   44655       2   44649   44670
   44691       2   44649   44670   44694       2   44646   44664   44685       4
   44643   44658   44682       4   44637   44622   44640       1   44634   44622
   44637       2   44634   44622   44640       2   44634   44649   44673       2
   44634   44649   44676       2   44631   44643   44661       8   44631   44646
   44667       8   44625   44604   44628       1   44622   44604   44625       2
   44622   44604   44628       2   44622   44634   44652       2   44622   44634
   44655       2   44613   44592   44616       8   44613   44595   44619       8
   44607   44586   44610       1   44604   44586   44607       2   44604   44586
   44610       2   44604   44622   44637       2   44604   44622   44640       2
   44595   44580   44598       4   44586   44604   44625       2   44586   44604
   44628       2   44583   44574   44589       4   44580   44595   44619       4
   44577   44592   44616       4   44574   44583   44601       4   44568   44556
   44571       4   44568   44583   44601       4   44568   44586   44607      12
   44568   44586   44610      12   44565   44580   44598       4   44559   44574
   44589       4   44547   44556   44571       4   44922   44913   44925       1
   44919   44913   44922       1   44919   44913   44925       1   44913   44901
   44916       2   44910   44901   44913       2   44910   44901   44916       1
   44904   44898   44907       1   44901   44898   44904       2   44901   44898
   44907       2   44901   44913   44919       2   44901   44913   44922       2
   44901   44913   44925       2   44898   44901   44910       2   44898   44901
   44916       2   44895   44880   44898       2   44892   44880   44895       1
   44892   44880   44898       2   44883   44862   44886       1   44880   44862
   44883       2   44880   44862   44886       2   44880   44898   44904       2
   44880   44898   44907       2   44871   44850   44874       4   44871   44856
   44877       4   44865   44841   44868       1   44862   44841   44865       2
   44862   44841   44868       2   44862   44880   44892       2   44862   44880
   44895       2   44856   44838   44859       4   44856   44871   44889       4
   44850   44835   44853       4   44850   44871   44889       4   44844   44826
   44847       1   44841   44826   44844       2   44841   44826   44847       2
   44841   44862   44883       2   44841   44862   44886       2   44838   44856
   44877       4   44835   44850   44874       4   44829   44814   44832       1
   44826   44814   44829       2   44826   44814   44832       2   44826   44841
   44865       2   44826   44841   44868       2   44823   44835   44853       8
   44823   44838   44859       8   44817   44796   44820       1   44814   44796
   44817       2   44814   44796   44820       2   44814   44826   44844       2
   44814   44826   44847       2   44805   44784   44808       8   44805   44787
   44811       8   44799   44778   44802       1   44796   44778   44799       2
   44796   44778   44802       2   44796   44814   44829       2   44796   44814
   44832       2   44787   44772   44790       4   44778   44796   44817       2
   44778   44796   44820       2   44775   44766   44781       4   44772   44787
   44811       4   44769   44784   44808       4   44766   44775   44793       4
   44760   44748   44763       4   44760   44775   44793       4   44760   44778
   44799      12   44760   44778   44802      12   44757   44772   44790       4
   44751   44766   44781       4   44739   44748   44763       4   45114   45105
   45117       1   45111   45105   45114       1   45111   45105   45117       1
   45105   45093   45108       2   45102   45093   45105       2   45102   45093
   45108       1   45096   45090   45099       1   45093   45090   45096       2
   45093   45090   45099       2   45093   45105   45111       2   45093   45105
   45114       2   45093   45105   45117       2   45090   45093   45102       2
   45090   45093   45108       2   45087   45072   45090       2   45084   45072
   45087       1   45084   45072   45090       2   45075   45054   45078       1
   45072   45054   45075       2   45072   45054   45078       2   45072   45090
   45096       2   45072   45090   45099       2   45063   45042   45066       4
   45063   45048   45069       4   45057   45033   45060       1   45054   45033
   45057       2   45054   45033   45060       2   45054   45072   45084       2
   45054   45072   45087       2   45048   45030   45051       4   45048   45063
   45081       4   45042   45027   45045       4   45042   45063   45081       4
   45036   45018   45039       1   45033   45018   45036       2   45033   45018
   45039       2   45033   45054   45075       2   45033   45054   45078       2
   45030   45048   45069       4   45027   45042   45066       4   45021   45006
   45024       1   45018   45006   45021       2   45018   45006   45024       2
   45018   45033   45057       2   45018   45033   45060       2   45015   45027
   45045       8   45015   45030   45051       8   45009   44988   45012       1
   45006   44988   45009       2   45006   44988   45012       2   45006   45018
   45036       2   45006   45018   45039       2   44997   44976   45000       8
   44997   44979   45003       8   44991   44970   44994       1   44988   44970
   44991       2   44988   44970   44994       2   44988   45006   45021       2
   44988   45006   45024       2   44979   44964   44982       4   44970   44988
   45009       2   44970   44988   45012       2   44967   44958   44973       4
   44964   44979   45003       4   44961   44976   45000       4   44958   44967
   44985       4   44952   44940   44955       4   44952   44967   44985       4
   44952   44970   44991      12   44952   44970   44994      12   44949   44964
   44982       4   44943   44958   44973       4   44931   44940   44955       4
   45306   45297   45309       1   45303   45297   45306       1   45303   45297
   45309       1   45297   45285   45300       2   45294   45285   45297       2
   45294   45285   45300       1   45288   45282   45291       1   45285   45282
   45288       2   45285   45282   45291       2   45285   45297   45303       2
   45285   45297   45306       2   45285   45297   45309       2   45282   45285
   45294       2   45282   45285   45300       2   45279   45264   45282       2
   45276   45264   45279       1   45276   45264   45282       2   45267   45246
   45270       1   45264   45246   45267       2   45264   45246   45270       2
   45264   45282   45288       2   45264   45282   45291       2   45255   45234
   45258       4   45255   45240   45261       4   45249   45225   45252       1
   45246   45225   45249       2   45246   45225   45252       2   45246   45264
   45276       2   45246   45264   45279       2   45240   45222   45243       4
   45240   45255   45273       4   45234   45219   45237       4   45234   45255
   45273       4   45228   45210   45231       1   45225   45210   45228       2
   45225   45210   45231       2   45225   45246   45267       2   45225   45246
   45270       2   45222   45240   45261       4   45219   45234   45258       4
   45213   45198   45216       1   45210   45198   45213       2   45210   45198
   45216       2   45210   45225   45249       2   45210   45225   45252       2
   45207   45219   45237       8   45207   45222   45243       8   45201   45180
   45204       1   45198   45180   45201       2   45198   45180   45204       2
   45198   45210   45228       2   45198   45210   45231       2   45189   45168
   45192       8   45189   45171   45195       8   45183   45162   45186       1
   45180   45162   45183       2   45180   45162   45186       2   45180   45198
   45213       2   45180   45198   45216       2   45171   45156   45174       4
   45162   45180   45201       2   45162   45180   45204       2   45159   45150
   45165       4   45156   45171   45195       4   45153   45168   45192       4
   45150   45159   45177       4   45144   45132   45147       4   45144   45159
   45177       4   45144   45162   45183      12   45144   45162   45186      12
   45141   45156   45174       4   45135   45150   45165       4   45123   45132
   45147       4   45498   45489   45501       1   45495   45489   45498       1
   45495   45489   45501       1   45489   45477   45492       2   45486   45477
   45489       2   45486   45477   45492       1   45480   45474   45483       1
   45477   45474   45480       2   45477   45474   45483       2   45477   45489
   45495       2   45477   45489   45498       2   45477   45489   45501       2
   45474   45477   45486       2   45474   45477   45492       2   45471   45456
   45474       2   45468   45456   45471       1   45468   45456   45474       2
   45459   45438   45462       1   45456   45438   45459       2   45456   45438
   45462       2   45456   45474   45480       2   45456   45474   45483       2
   45447   45426   45450       4   45447   45432   45453       4   45441   45417
   45444       1   45438   45417   45441       2   45438   45417   45444       2
   45438   45456   45468       2   45438   45456   45471       2   45432   45414
   45435       4   45432   45447   45465       4   45426   45411   45429       4
   45426   45447   45465       4   45420   45402   45423       1   45417   45402
   45420       2   45417   45402   45423       2   45417   45438   45459       2
   45417   45438   45462       2   45414   45432   45453       4   45411   45426
   45450       4   45405   45390   45408       1   45402   45390   45405       2
   45402   45390   45408       2   45402   45417   45441       2   45402   45417
   45444       2   45399   45411   45429       8   45399   45414   45435       8
   45393   45372   45396       1   45390   45372   45393       2   45390   45372
   45396       2   45390   45402   45420       2   45390   45402   45423       2
   45381   45360   45384       8   45381   45363   45387       8   45375   45354
   45378       1   45372   45354   45375       2   45372   45354   45378       2
   45372   45390   45405       2   45372   45390   45408       2   45363   45348
   45366       4   45354   45372   45393       2   45354   45372   45396       2
   45351   45342   45357       4   45348   45363   45387       4   45345   45360
   45384       4   45342   45351   45369       4   45336   45324   45339       4
   45336   45351   45369       4   45336   45354   45375      12   45336   45354
   45378      12   45333   45348   45366       4   45327   45342   45357       4
   45315   45324   45339       4   45690   45681   45693       1   45687   45681
   45690       1   45687   45681   45693       1   45681   45669   45684       2
   45678   45669   45681       2   45678   45669   45684       1   45672   45666
   45675       1   45669   45666   45672       2   45669   45666   45675       2
   45669   45681   45687       2   45669   45681   45690       2   45669   45681
   45693       2   45666   45669   45678       2   45666   45669   45684       2
   45663   45648   45666       2   45660   45648   45663       1   45660   45648
   45666       2   45651   45630   45654       1   45648   45630   45651       2
   45648   45630   45654       2   45648   45666   45672       2   45648   45666
   45675       2   45639   45618   45642       4   45639   45624   45645       4
   45633   45609   45636       1   45630   45609   45633       2   45630   45609
   45636       2   45630   45648   45660       2   45630   45648   45663       2
   45624   45606   45627       4   45624   45639   45657       4   45618   45603
   45621       4   45618   45639   45657       4   45612   45594   45615       1
   45609   45594   45612       2   45609   45594   45615       2   45609   45630
   45651       2   45609   45630   45654       2   45606   45624   45645       4
   45603   45618   45642       4   45597   45582   45600       1   45594   45582
   45597       2   45594   45582   45600       2   45594   45609   45633       2
   45594   45609   45636       2   45591   45603   45621       8   45591   45606
   45627       8   45585   45564   45588       1   45582   45564   45585       2
   45582   45564   45588       2   45582   45594   45612       2   45582   45594
   45615       2   45573   45552   45576       8   45573   45555   45579       8
   45567   45546   45570       1   45564   45546   45567       2   45564   45546
   45570       2   45564   45582   45597       2   45564   45582   45600       2
   45555   45540   45558       4   45546   45564   45585       2   45546   45564
   45588       2   45543   45534   45549       4   45540   45555   45579       4
   45537   45552   45576       4   45534   45543   45561       4   45528   45516
   45531       4   45528   45543   45561       4   45528   45546   45567      12
   45528   45546   45570      12   45525   45540   45558       4   45519   45534
   45549       4   45507   45516   45531       4   45882   45873   45885       1
   45879   45873   45882       1   45879   45873   45885       1   45873   45861
   45876       2   45870   45861   45873       2   45870   45861   45876       1
   45864   45858   45867       1   45861   45858   45864       2   45861   45858
   45867       2   45861   45873   45879       2   45861   45873   45882       2
   45861   45873   45885       2   45858   45861   45870       2   45858   45861
   45876       2   45855   45840   45858       2   45852   45840   45855       1
   45852   45840   45858       2   45843   45822   45846       1   45840   45822
   45843       2   45840   45822   45846       2   45840   45858   45864       2
   45840   45858   45867       2   45831   45810   45834       4   45831   45816
   45837       4   45825   45801   45828       1   45822   45801   45825       2
   45822   45801   45828       2   45822   45840   45852       2   45822   45840
   45855       2   45816   45798   45819       4   45816   45831   45849       4
   45810   45795   45813       4   45810   45831   45849       4   45804   45786
   45807       1   45801   45786   45804       2   45801   45786   45807       2
   45801   45822   45843       2   45801   45822   45846       2   45798   45816
   45837       4   45795   45810   45834       4   45789   45774   45792       1
   45786   45774   45789       2   45786   45774   45792       2   45786   45801
   45825       2   45786   45801   45828       2   45783   45795   45813       8
   45783   45798   45819       8   45777   45756   45780       1   45774   45756
   45777       2   45774   45756   45780       2   45774   45786   45804       2
   45774   45786   45807       2   45765   45744   45768       8   45765   45747
   45771       8   45759   45738   45762       1   45756   45738   45759       2
   45756   45738   45762       2   45756   45774   45789       2   45756   45774
   45792       2   45747   45732   45750       4   45738   45756   45777       2
   45738   45756   45780       2   45735   45726   45741       4   45732   45747
   45771       4   45729   45744   45768       4   45726   45735   45753       4
   45720   45708   45723       4   45720   45735   45753       4   45720   45738
   45759      12   45720   45738   45762      12   45717   45732   45750       4
   45711   45726   45741       4   45699   45708   45723       4   46074   46065
   46077       1   46071   46065   46074       1   46071   46065   46077       1
   46065   46053   46068       2   46062   46053   46065       2   46062   46053
   46068       1   46056   46050   46059       1   46053   46050   46056       2
   46053   46050   46059       2   46053   46065   46071       2   46053   46065
   46074       2   46053   46065   46077       2   46050   46053   46062       2
   46050   46053   46068       2   46047   46032   46050       2   46044   46032
   46047       1   46044   46032   46050       2   46035   46014   46038       1
   46032   46014   46035       2   46032   46014   46038       2   46032   46050
   46056       2   46032   46050   46059       2   46023   46002   46026       4
   46023   46008   46029       4   46017   45993   46020       1   46014   45993
   46017       2   46014   45993   46020       2   46014   46032   46044       2
   46014   46032   46047       2   46008   45990   46011       4   46008   46023
   46041       4   46002   45987   46005       4   46002   46023   46041       4
   45996   45978   45999       1   45993   45978   45996       2   45993   45978
   45999       2   45993   46014   46035       2   45993   46014   46038       2
   45990   46008   46029       4   45987   46002   46026       4   45981   45966
   45984       1   45978   45966   45981       2   45978   45966   45984       2
   45978   45993   46017       2   45978   45993   46020       2   45975   45987
   46005       8   45975   45990   46011       8   45969   45948   45972       1
   45966   45948   45969       2   45966   45948   45972       2   45966   45978
   45996       2   45966   45978   45999       2   45957   45936   45960       8
   45957   45939   45963       8   45951   45930   45954       1   45948   45930
   45951       2   45948   45930   45954       2   45948   45966   45981       2
   45948   45966   45984       2   45939   45924   45942       4   45930   45948
   45969       2   45930   45948   45972       2   45927   45918   45933       4
   45924   45939   45963       4   45921   45936   45960       4   45918   45927
   45945       4   45912   45900   45915       4   45912   45927   45945       4
   45912   45930   45951      12   45912   45930   45954      12   45909   45924
   45942       4   45903   45918   45933       4   45891   45900   45915       4
   46266   46257   46269       1   46263   46257   46266       1   46263   46257
   46269       1   46257   46245   46260       2   46254   46245   46257       2
   46254   46245   46260       1   46248   46242   46251       1   46245   46242
   46248       2   46245   46242   46251       2   46245   46257   46263       2
   46245   46257   46266       2   46245   46257   46269       2   46242   46245
   46254       2   46242   46245   46260       2   46239   46224   46242       2
   46236   46224   46239       1   46236   46224   46242       2   46227   46206
   46230       1   46224   46206   46227       2   46224   46206   46230       2
   46224   46242   46248       2   46224   46242   46251       2   46215   46194
   46218       4   46215   46200   46221       4   46209   46185   46212       1
   46206   46185   46209       2   46206   46185   46212       2   46206   46224
   46236       2   46206   46224   46239       2   46200   46182   46203       4
   46200   46215   46233       4   46194   46179   46197       4   46194   46215
   46233       4   46188   46170   46191       1   46185   46170   46188       2
   46185   46170   46191       2   46185   46206   46227       2   46185   46206
   46230       2   46182   46200   46221       4   46179   46194   46218       4
   46173   46158   46176       1   46170   46158   46173       2   46170   46158
   46176       2   46170   46185   46209       2   46170   46185   46212       2
   46167   46179   46197       8   46167   46182   46203       8   46161   46140
   46164       1   46158   46140   46161       2   46158   46140   46164       2
   46158   46170   46188       2   46158   46170   46191       2   46149   46128
   46152       8   46149   46131   46155       8   46143   46122   46146       1
   46140   46122   46143       2   46140   46122   46146       2   46140   46158
   46173       2   46140   46158   46176       2   46131   46116   46134       4
   46122   46140   46161       2   46122   46140   46164       2   46119   46110
   46125       4   46116   46131   46155       4   46113   46128   46152       4
   46110   46119   46137       4   46104   46092   46107       4   46104   46119
   46137       4   46104   46122   46143      12   46104   46122   46146      12
   46101   46116   46134       4   46095   46110   46125       4   46083   46092
   46107       4   46458   46449   46461       1   46455   46449   46458       1
   46455   46449   46461       1   46449   46437   46452       2   46446   46437
   46449       2   46446   46437   46452       1   46440   46434   46443       1
   46437   46434   46440       2   46437   46434   46443       2   46437   46449
   46455       2   46437   46449   46458       2   46437   46449   46461       2
   46434   46437   46446       2   46434   46437   46452       2   46431   46416
   46434       2   46428   46416   46431       1   46428   46416   46434       2
   46419   46398   46422       1   46416   46398   46419       2   46416   46398
   46422       2   46416   46434   46440       2   46416   46434   46443       2
   46407   46386   46410       4   46407   46392   46413       4   46401   46377
   46404       1   46398   46377   46401       2   46398   46377   46404       2
   46398   46416   46428       2   46398   46416   46431       2   46392   46374
   46395       4   46392   46407   46425       4   46386   46371   46389       4
   46386   46407   46425       4   46380   46362   46383       1   46377   46362
   46380       2   46377   46362   46383       2   46377   46398   46419       2
   46377   46398   46422       2   46374   46392   46413       4   46371   46386
   46410       4   46365   46350   46368       1   46362   46350   46365       2
   46362   46350   46368       2   46362   46377   46401       2   46362   46377
   46404       2   46359   46371   46389       8   46359   46374   46395       8
   46353   46332   46356       1   46350   46332   46353       2   46350   46332
   46356       2   46350   46362   46380       2   46350   46362   46383       2
   46341   46320   46344       8   46341   46323   46347       8   46335   46314
   46338       1   46332   46314   46335       2   46332   46314   46338       2
   46332   46350   46365       2   46332   46350   46368       2   46323   46308
   46326       4   46314   46332   46353       2   46314   46332   46356       2
   46311   46302   46317       4   46308   46323   46347       4   46305   46320
   46344       4   46302   46311   46329       4   46296   46284   46299       4
   46296   46311   46329       4   46296   46314   46335      12   46296   46314
   46338      12   46293   46308   46326       4   46287   46302   46317       4
   46275   46284   46299       4   46650   46641   46653       1   46647   46641
   46650       1   46647   46641   46653       1   46641   46629   46644       2
   46638   46629   46641       2   46638   46629   46644       1   46632   46626
   46635       1   46629   46626   46632       2   46629   46626   46635       2
   46629   46641   46647       2   46629   46641   46650       2   46629   46641
   46653       2   46626   46629   46638       2   46626   46629   46644       2
   46623   46608   46626       2   46620   46608   46623       1   46620   46608
   46626       2   46611   46590   46614       1   46608   46590   46611       2
   46608   46590   46614       2   46608   46626   46632       2   46608   46626
   46635       2   46599   46578   46602       4   46599   46584   46605       4
   46593   46569   46596       1   46590   46569   46593       2   46590   46569
   46596       2   46590   46608   46620       2   46590   46608   46623       2
   46584   46566   46587       4   46584   46599   46617       4   46578   46563
   46581       4   46578   46599   46617       4   46572   46554   46575       1
   46569   46554   46572       2   46569   46554   46575       2   46569   46590
   46611       2   46569   46590   46614       2   46566   46584   46605       4
   46563   46578   46602       4   46557   46542   46560       1   46554   46542
   46557       2   46554   46542   46560       2   46554   46569   46593       2
   46554   46569   46596       2   46551   46563   46581       8   46551   46566
   46587       8   46545   46524   46548       1   46542   46524   46545       2
   46542   46524   46548       2   46542   46554   46572       2   46542   46554
   46575       2   46533   46512   46536       8   46533   46515   46539       8
   46527   46506   46530       1   46524   46506   46527       2   46524   46506
   46530       2   46524   46542   46557       2   46524   46542   46560       2
   46515   46500   46518       4   46506   46524   46545       2   46506   46524
   46548       2   46503   46494   46509       4   46500   46515   46539       4
   46497   46512   46536       4   46494   46503   46521       4   46488   46476
   46491       4   46488   46503   46521       4   46488   46506   46527      12
   46488   46506   46530      12   46485   46500   46518       4   46479   46494
   46509       4   46467   46476   46491       4   46842   46833   46845       1
   46839   46833   46842       1   46839   46833   46845       1   46833   46821
   46836       2   46830   46821   46833       2   46830   46821   46836       1
   46824   46818   46827       1   46821   46818   46824       2   46821   46818
   46827       2   46821   46833   46839       2   46821   46833   46842       2
   46821   46833   46845       2   46818   46821   46830       2   46818   46821
   46836       2   46815   46800   46818       2   46812   46800   46815       1
   46812   46800   46818       2   46803   46782   46806       1   46800   46782
   46803       2   46800   46782   46806       2   46800   46818   46824       2
   46800   46818   46827       2   46791   46770   46794       4   46791   46776
   46797       4   46785   46761   46788       1   46782   46761   46785       2
   46782   46761   46788       2   46782   46800   46812       2   46782   46800
   46815       2   46776   46758   46779       4   46776   46791   46809       4
   46770   46755   46773       4   46770   46791   46809       4   46764   46746
   46767       1   46761   46746   46764       2   46761   46746   46767       2
   46761   46782   46803       2   46761   46782   46806       2   46758   46776
   46797       4   46755   46770   46794       4   46749   46734   46752       1
   46746   46734   46749       2   46746   46734   46752       2   46746   46761
   46785       2   46746   46761   46788       2   46743   46755   46773       8
   46743   46758   46779       8   46737   46716   46740       1   46734   46716
   46737       2   46734   46716   46740       2   46734   46746   46764       2
   46734   46746   46767       2   46725   46704   46728       8   46725   46707
   46731       8   46719   46698   46722       1   46716   46698   46719       2
   46716   46698   46722       2   46716   46734   46749       2   46716   46734
   46752       2   46707   46692   46710       4   46698   46716   46737       2
   46698   46716   46740       2   46695   46686   46701       4   46692   46707
   46731       4   46689   46704   46728       4   46686   46695   46713       4
   46680   46668   46683       4   46680   46695   46713       4   46680   46698
   46719      12   46680   46698   46722      12   46677   46692   46710       4
   46671   46686   46701       4   46659   46668   46683       4   47034   47025
   47037       1   47031   47025   47034       1   47031   47025   47037       1
   47025   47013   47028       2   47022   47013   47025       2   47022   47013
   47028       1   47016   47010   47019       1   47013   47010   47016       2
   47013   47010   47019       2   47013   47025   47031       2   47013   47025
   47034       2   47013   47025   47037       2   47010   47013   47022       2
   47010   47013   47028       2   47007   46992   47010       2   47004   46992
   47007       1   47004   46992   47010       2   46995   46974   46998       1
   46992   46974   46995       2   46992   46974   46998       2   46992   47010
   47016       2   46992   47010   47019       2   46983   46962   46986       4
   46983   46968   46989       4   46977   46953   46980       1   46974   46953
   46977       2   46974   46953   46980       2   46974   46992   47004       2
   46974   46992   47007       2   46968   46950   46971       4   46968   46983
   47001       4   46962   46947   46965       4   46962   46983   47001       4
   46956   46938   46959       1   46953   46938   46956       2   46953   46938
   46959       2   46953   46974   46995       2   46953   46974   46998       2
   46950   46968   46989       4   46947   46962   46986       4   46941   46926
   46944       1   46938   46926   46941       2   46938   46926   46944       2
   46938   46953   46977       2   46938   46953   46980       2   46935   46947
   46965       8   46935   46950   46971       8   46929   46908   46932       1
   46926   46908   46929       2   46926   46908   46932       2   46926   46938
   46956       2   46926   46938   46959       2   46917   46896   46920       8
   46917   46899   46923       8   46911   46890   46914       1   46908   46890
   46911       2   46908   46890   46914       2   46908   46926   46941       2
   46908   46926   46944       2   46899   46884   46902       4   46890   46908
   46929       2   46890   46908   46932       2   46887   46878   46893       4
   46884   46899   46923       4   46881   46896   46920       4   46878   46887
   46905       4   46872   46860   46875       4   46872   46887   46905       4
   46872   46890   46911      12   46872   46890   46914      12   46869   46884
   46902       4   46863   46878   46893       4   46851   46860   46875       4
   47226   47217   47229       1   47223   47217   47226       1   47223   47217
   47229       1   47217   47205   47220       2   47214   47205   47217       2
   47214   47205   47220       1   47208   47202   47211       1   47205   47202
   47208       2   47205   47202   47211       2   47205   47217   47223       2
   47205   47217   47226       2   47205   47217   47229       2   47202   47205
   47214       2   47202   47205   47220       2   47199   47184   47202       2
   47196   47184   47199       1   47196   47184   47202       2   47187   47166
   47190       1   47184   47166   47187       2   47184   47166   47190       2
   47184   47202   47208       2   47184   47202   47211       2   47175   47154
   47178       4   47175   47160   47181       4   47169   47145   47172       1
   47166   47145   47169       2   47166   47145   47172       2   47166   47184
   47196       2   47166   47184   47199       2   47160   47142   47163       4
   47160   47175   47193       4   47154   47139   47157       4   47154   47175
   47193       4   47148   47130   47151       1   47145   47130   47148       2
   47145   47130   47151       2   47145   47166   47187       2   47145   47166
   47190       2   47142   47160   47181       4   47139   47154   47178       4
   47133   47118   47136       1   47130   47118   47133       2   47130   47118
   47136       2   47130   47145   47169       2   47130   47145   47172       2
   47127   47139   47157       8   47127   47142   47163       8   47121   47100
   47124       1   47118   47100   47121       2   47118   47100   47124       2
   47118   47130   47148       2   47118   47130   47151       2   47109   47088
   47112       8   47109   47091   47115       8   47103   47082   47106       1
   47100   47082   47103       2   47100   47082   47106       2   47100   47118
   47133       2   47100   47118   47136       2   47091   47076   47094       4
   47082   47100   47121       2   47082   47100   47124       2   47079   47070
   47085       4   47076   47091   47115       4   47073   47088   47112       4
   47070   47079   47097       4   47064   47052   47067       4   47064   47079
   47097       4   47064   47082   47103      12   47064   47082   47106      12
   47061   47076   47094       4   47055   47070   47085       4   47043   47052
   47067       4   47418   47409   47421       1   47415   47409   47418       1
   47415   47409   47421       1   47409   47397   47412       2   47406   47397
   47409       2   47406   47397   47412       1   47400   47394   47403       1
   47397   47394   47400       2   47397   47394   47403       2   47397   47409
   47415       2   47397   47409   47418       2   47397   47409   47421       2
   47394   47397   47406       2   47394   47397   47412       2   47391   47376
   47394       2   47388   47376   47391       1   47388   47376   47394       2
   47379   47358   47382       1   47376   47358   47379       2   47376   47358
   47382       2   47376   47394   47400       2   47376   47394   47403       2
   47367   47346   47370       4   47367   47352   47373       4   47361   47337
   47364       1   47358   47337   47361       2   47358   47337   47364       2
   47358   47376   47388       2   47358   47376   47391       2   47352   47334
   47355       4   47352   47367   47385       4   47346   47331   47349       4
   47346   47367   47385       4   47340   47322   47343       1   47337   47322
   47340       2   47337   47322   47343       2   47337   47358   47379       2
   47337   47358   47382       2   47334   47352   47373       4   47331   47346
   47370       4   47325   47310   47328       1   47322   47310   47325       2
   47322   47310   47328       2   47322   47337   47361       2   47322   47337
   47364       2   47319   47331   47349       8   47319   47334   47355       8
   47313   47292   47316       1   47310   47292   47313       2   47310   47292
   47316       2   47310   47322   47340       2   47310   47322   47343       2
   47301   47280   47304       8   47301   47283   47307       8   47295   47274
   47298       1   47292   47274   47295       2   47292   47274   47298       2
   47292   47310   47325       2   47292   47310   47328       2   47283   47268
   47286       4   47274   47292   47313       2   47274   47292   47316       2
   47271   47262   47277       4   47268   47283   47307       4   47265   47280
   47304       4   47262   47271   47289       4   47256   47244   47259       4
   47256   47271   47289       4   47256   47274   47295      12   47256   47274
   47298      12   47253   47268   47286       4   47247   47262   47277       4
   47235   47244   47259       4   47610   47601   47613       1   47607   47601
   47610       1   47607   47601   47613       1   47601   47589   47604       2
   47598   47589   47601       2   47598   47589   47604       1   47592   47586
   47595       1   47589   47586   47592       2   47589   47586   47595       2
   47589   47601   47607       2   47589   47601   47610       2   47589   47601
   47613       2   47586   47589   47598       2   47586   47589   47604       2
   47583   47568   47586       2   47580   47568   47583       1   47580   47568
   47586       2   47571   47550   47574       1   47568   47550   47571       2
   47568   47550   47574       2   47568   47586   47592       2   47568   47586
   47595       2   47559   47538   47562       4   47559   47544   47565       4
   47553   47529   47556       1   47550   47529   47553       2   47550   47529
   47556       2   47550   47568   47580       2   47550   47568   47583       2
   47544   47526   47547       4   47544   47559   47577       4   47538   47523
   47541       4   47538   47559   47577       4   47532   47514   47535       1
   47529   47514   47532       2   47529   47514   47535       2   47529   47550
   47571       2   47529   47550   47574       2   47526   47544   47565       4
   47523   47538   47562       4   47517   47502   47520       1   47514   47502
   47517       2   47514   47502   47520       2   47514   47529   47553       2
   47514   47529   47556       2   47511   47523   47541       8   47511   47526
   47547       8   47505   47484   47508       1   47502   47484   47505       2
   47502   47484   47508       2   47502   47514   47532       2   47502   47514
   47535       2   47493   47472   47496       8   47493   47475   47499       8
   47487   47466   47490       1   47484   47466   47487       2   47484   47466
   47490       2   47484   47502   47517       2   47484   47502   47520       2
   47475   47460   47478       4   47466   47484   47505       2   47466   47484
   47508       2   47463   47454   47469       4   47460   47475   47499       4
   47457   47472   47496       4   47454   47463   47481       4   47448   47436
   47451       4   47448   47463   47481       4   47448   47466   47487      12
   47448   47466   47490      12   47445   47460   47478       4   47439   47454
   47469       4   47427   47436   47451       4   47802   47793   47805       1
   47799   47793   47802       1   47799   47793   47805       1   47793   47781
   47796       2   47790   47781   47793       2   47790   47781   47796       1
   47784   47778   47787       1   47781   47778   47784       2   47781   47778
   47787       2   47781   47793   47799       2   47781   47793   47802       2
   47781   47793   47805       2   47778   47781   47790       2   47778   47781
   47796       2   47775   47760   47778       2   47772   47760   47775       1
   47772   47760   47778       2   47763   47742   47766       1   47760   47742
   47763       2   47760   47742   47766       2   47760   47778   47784       2
   47760   47778   47787       2   47751   47730   47754       4   47751   47736
   47757       4   47745   47721   47748       1   47742   47721   47745       2
   47742   47721   47748       2   47742   47760   47772       2   47742   47760
   47775       2   47736   47718   47739       4   47736   47751   47769       4
   47730   47715   47733       4   47730   47751   47769       4   47724   47706
   47727       1   47721   47706   47724       2   47721   47706   47727       2
   47721   47742   47763       2   47721   47742   47766       2   47718   47736
   47757       4   47715   47730   47754       4   47709   47694   47712       1
   47706   47694   47709       2   47706   47694   47712       2   47706   47721
   47745       2   47706   47721   47748       2   47703   47715   47733       8
   47703   47718   47739       8   47697   47676   47700       1   47694   47676
   47697       2   47694   47676   47700       2   47694   47706   47724       2
   47694   47706   47727       2   47685   47664   47688       8   47685   47667
   47691       8   47679   47658   47682       1   47676   47658   47679       2
   47676   47658   47682       2   47676   47694   47709       2   47676   47694
   47712       2   47667   47652   47670       4   47658   47676   47697       2
   47658   47676   47700       2   47655   47646   47661       4   47652   47667
   47691       4   47649   47664   47688       4   47646   47655   47673       4
   47640   47628   47643       4   47640   47655   47673       4   47640   47658
   47679      12   47640   47658   47682      12   47637   47652   47670       4
   47631   47646   47661       4   47619   47628   47643       4   47994   47985
   47997       1   47991   47985   47994       1   47991   47985   47997       1
   47985   47973   47988       2   47982   47973   47985       2   47982   47973
   47988       1   47976   47970   47979       1   47973   47970   47976       2
   47973   47970   47979       2   47973   47985   47991       2   47973   47985
   47994       2   47973   47985   47997       2   47970   47973   47982       2
   47970   47973   47988       2   47967   47952   47970       2   47964   47952
   47967       1   47964   47952   47970       2   47955   47934   47958       1
   47952   47934   47955       2   47952   47934   47958       2   47952   47970
   47976       2   47952   47970   47979       2   47943   47922   47946       4
   47943   47928   47949       4   47937   47913   47940       1   47934   47913
   47937       2   47934   47913   47940       2   47934   47952   47964       2
   47934   47952   47967       2   47928   47910   47931       4   47928   47943
   47961       4   47922   47907   47925       4   47922   47943   47961       4
   47916   47898   47919       1   47913   47898   47916       2   47913   47898
   47919       2   47913   47934   47955       2   47913   47934   47958       2
   47910   47928   47949       4   47907   47922   47946       4   47901   47886
   47904       1   47898   47886   47901       2   47898   47886   47904       2
   47898   47913   47937       2   47898   47913   47940       2   47895   47907
   47925       8   47895   47910   47931       8   47889   47868   47892       1
   47886   47868   47889       2   47886   47868   47892       2   47886   47898
   47916       2   47886   47898   47919       2   47877   47856   47880       8
   47877   47859   47883       8   47871   47850   47874       1   47868   47850
   47871       2   47868   47850   47874       2   47868   47886   47901       2
   47868   47886   47904       2   47859   47844   47862       4   47850   47868
   47889       2   47850   47868   47892       2   47847   47838   47853       4
   47844   47859   47883       4   47841   47856   47880       4   47838   47847
   47865       4   47832   47820   47835       4   47832   47847   47865       4
   47832   47850   47871      12   47832   47850   47874      12   47829   47844
   47862       4   47823   47838   47853       4   47811   47820   47835       4
   48186   48177   48189       1   48183   48177   48186       1   48183   48177
   48189       1   48177   48165   48180       2   48174   48165   48177       2
   48174   48165   48180       1   48168   48162   48171       1   48165   48162
   48168       2   48165   48162   48171       2   48165   48177   48183       2
   48165   48177   48186       2   48165   48177   48189       2   48162   48165
   48174       2   48162   48165   48180       2   48159   48144   48162       2
   48156   48144   48159       1   48156   48144   48162       2   48147   48126
   48150       1   48144   48126   48147       2   48144   48126   48150       2
   48144   48162   48168       2   48144   48162   48171       2   48135   48114
   48138       4   48135   48120   48141       4   48129   48105   48132       1
   48126   48105   48129       2   48126   48105   48132       2   48126   48144
   48156       2   48126   48144   48159       2   48120   48102   48123       4
   48120   48135   48153       4   48114   48099   48117       4   48114   48135
   48153       4   48108   48090   48111       1   48105   48090   48108       2
   48105   48090   48111       2   48105   48126   48147       2   48105   48126
   48150       2   48102   48120   48141       4   48099   48114   48138       4
   48093   48078   48096       1   48090   48078   48093       2   48090   48078
   48096       2   48090   48105   48129       2   48090   48105   48132       2
   48087   48099   48117       8   48087   48102   48123       8   48081   48060
   48084       1   48078   48060   48081       2   48078   48060   48084       2
   48078   48090   48108       2   48078   48090   48111       2   48069   48048
   48072       8   48069   48051   48075       8   48063   48042   48066       1
   48060   48042   48063       2   48060   48042   48066       2   48060   48078
   48093       2   48060   48078   48096       2   48051   48036   48054       4
   48042   48060   48081       2   48042   48060   48084       2   48039   48030
   48045       4   48036   48051   48075       4   48033   48048   48072       4
   48030   48039   48057       4   48024   48012   48027       4   48024   48039
   48057       4   48024   48042   48063      12   48024   48042   48066      12
   48021   48036   48054       4   48015   48030   48045       4   48003   48012
   48027       4   48378   48369   48381       1   48375   48369   48378       1
   48375   48369   48381       1   48369   48357   48372       2   48366   48357
   48369       2   48366   48357   48372       1   48360   48354   48363       1
   48357   48354   48360       2   48357   48354   48363       2   48357   48369
   48375       2   48357   48369   48378       2   48357   48369   48381       2
   48354   48357   48366       2   48354   48357   48372       2   48351   48336
   48354       2   48348   48336   48351       1   48348   48336   48354       2
   48339   48318   48342       1   48336   48318   48339       2   48336   48318
   48342       2   48336   48354   48360       2   48336   48354   48363       2
   48327   48306   48330       4   48327   48312   48333       4   48321   48297
   48324       1   48318   48297   48321       2   48318   48297   48324       2
   48318   48336   48348       2   48318   48336   48351       2   48312   48294
   48315       4   48312   48327   48345       4   48306   48291   48309       4
   48306   48327   48345       4   48300   48282   48303       1   48297   48282
   48300       2   48297   48282   48303       2   48297   48318   48339       2
   48297   48318   48342       2   48294   48312   48333       4   48291   48306
   48330       4   48285   48270   48288       1   48282   48270   48285       2
   48282   48270   48288       2   48282   48297   48321       2   48282   48297
   48324       2   48279   48291   48309       8   48279   48294   48315       8
   48273   48252   48276       1   48270   48252   48273       2   48270   48252
   48276       2   48270   48282   48300       2   48270   48282   48303       2
   48261   48240   48264       8   48261   48243   48267       8   48255   48234
   48258       1   48252   48234   48255       2   48252   48234   48258       2
   48252   48270   48285       2   48252   48270   48288       2   48243   48228
   48246       4   48234   48252   48273       2   48234   48252   48276       2
   48231   48222   48237       4   48228   48243   48267       4   48225   48240
   48264       4   48222   48231   48249       4   48216   48204   48219       4
   48216   48231   48249       4   48216   48234   48255      12   48216   48234
   48258      12   48213   48228   48246       4   48207   48222   48237       4
   48195   48204   48219       4   48570   48561   48573       1   48567   48561
   48570       1   48567   48561   48573       1   48561   48549   48564       2
   48558   48549   48561       2   48558   48549   48564       1   48552   48546
   48555       1   48549   48546   48552       2   48549   48546   48555       2
   48549   48561   48567       2   48549   48561   48570       2   48549   48561
   48573       2   48546   48549   48558       2   48546   48549   48564       2
   48543   48528   48546       2   48540   48528   48543       1   48540   48528
   48546       2   48531   48510   48534       1   48528   48510   48531       2
   48528   48510   48534       2   48528   48546   48552       2   48528   48546
   48555       2   48519   48498   48522       4   48519   48504   48525       4
   48513   48489   48516       1   48510   48489   48513       2   48510   48489
   48516       2   48510   48528   48540       2   48510   48528   48543       2
   48504   48486   48507       4   48504   48519   48537       4   48498   48483
   48501       4   48498   48519   48537       4   48492   48474   48495       1
   48489   48474   48492       2   48489   48474   48495       2   48489   48510
   48531       2   48489   48510   48534       2   48486   48504   48525       4
   48483   48498   48522       4   48477   48462   48480       1   48474   48462
   48477       2   48474   48462   48480       2   48474   48489   48513       2
   48474   48489   48516       2   48471   48483   48501       8   48471   48486
   48507       8   48465   48444   48468       1   48462   48444   48465       2
   48462   48444   48468       2   48462   48474   48492       2   48462   48474
   48495       2   48453   48432   48456       8   48453   48435   48459       8
   48447   48426   48450       1   48444   48426   48447       2   48444   48426
   48450       2   48444   48462   48477       2   48444   48462   48480       2
   48435   48420   48438       4   48426   48444   48465       2   48426   48444
   48468       2   48423   48414   48429       4   48420   48435   48459       4
   48417   48432   48456       4   48414   48423   48441       4   48408   48396
   48411       4   48408   48423   48441       4   48408   48426   48447      12
   48408   48426   48450      12   48405   48420   48438       4   48399   48414
   48429       4   48387   48396   48411       4   48762   48753   48765       1
   48759   48753   48762       1   48759   48753   48765       1   48753   48741
   48756       2   48750   48741   48753       2   48750   48741   48756       1
   48744   48738   48747       1   48741   48738   48744       2   48741   48738
   48747       2   48741   48753   48759       2   48741   48753   48762       2
   48741   48753   48765       2   48738   48741   48750       2   48738   48741
   48756       2   48735   48720   48738       2   48732   48720   48735       1
   48732   48720   48738       2   48723   48702   48726       1   48720   48702
   48723       2   48720   48702   48726       2   48720   48738   48744       2
   48720   48738   48747       2   48711   48690   48714       4   48711   48696
   48717       4   48705   48681   48708       1   48702   48681   48705       2
   48702   48681   48708       2   48702   48720   48732       2   48702   48720
   48735       2   48696   48678   48699       4   48696   48711   48729       4
   48690   48675   48693       4   48690   48711   48729       4   48684   48666
   48687       1   48681   48666   48684       2   48681   48666   48687       2
   48681   48702   48723       2   48681   48702   48726       2   48678   48696
   48717       4   48675   48690   48714       4   48669   48654   48672       1
   48666   48654   48669       2   48666   48654   48672       2   48666   48681
   48705       2   48666   48681   48708       2   48663   48675   48693       8
   48663   48678   48699       8   48657   48636   48660       1   48654   48636
   48657       2   48654   48636   48660       2   48654   48666   48684       2
   48654   48666   48687       2   48645   48624   48648       8   48645   48627
   48651       8   48639   48618   48642       1   48636   48618   48639       2
   48636   48618   48642       2   48636   48654   48669       2   48636   48654
   48672       2   48627   48612   48630       4   48618   48636   48657       2
   48618   48636   48660       2   48615   48606   48621       4   48612   48627
   48651       4   48609   48624   48648       4   48606   48615   48633       4
   48600   48588   48603       4   48600   48615   48633       4   48600   48618
   48639      12   48600   48618   48642      12   48597   48612   48630       4
   48591   48606   48621       4   48579   48588   48603       4   48954   48945
   48957       1   48951   48945   48954       1   48951   48945   48957       1
   48945   48933   48948       2   48942   48933   48945       2   48942   48933
   48948       1   48936   48930   48939       1   48933   48930   48936       2
   48933   48930   48939       2   48933   48945   48951       2   48933   48945
   48954       2   48933   48945   48957       2   48930   48933   48942       2
   48930   48933   48948       2   48927   48912   48930       2   48924   48912
   48927       1   48924   48912   48930       2   48915   48894   48918       1
   48912   48894   48915       2   48912   48894   48918       2   48912   48930
   48936       2   48912   48930   48939       2   48903   48882   48906       4
   48903   48888   48909       4   48897   48873   48900       1   48894   48873
   48897       2   48894   48873   48900       2   48894   48912   48924       2
   48894   48912   48927       2   48888   48870   48891       4   48888   48903
   48921       4   48882   48867   48885       4   48882   48903   48921       4
   48876   48858   48879       1   48873   48858   48876       2   48873   48858
   48879       2   48873   48894   48915       2   48873   48894   48918       2
   48870   48888   48909       4   48867   48882   48906       4   48861   48846
   48864       1   48858   48846   48861       2   48858   48846   48864       2
   48858   48873   48897       2   48858   48873   48900       2   48855   48867
   48885       8   48855   48870   48891       8   48849   48828   48852       1
   48846   48828   48849       2   48846   48828   48852       2   48846   48858
   48876       2   48846   48858   48879       2   48837   48816   48840       8
   48837   48819   48843       8   48831   48810   48834       1   48828   48810
   48831       2   48828   48810   48834       2   48828   48846   48861       2
   48828   48846   48864       2   48819   48804   48822       4   48810   48828
   48849       2   48810   48828   48852       2   48807   48798   48813       4
   48804   48819   48843       4   48801   48816   48840       4   48798   48807
   48825       4   48792   48780   48795       4   48792   48807   48825       4
   48792   48810   48831      12   48792   48810   48834      12   48789   48804
   48822       4   48783   48798   48813       4   48771   48780   48795       4
   49146   49137   49149       1   49143   49137   49146       1   49143   49137
   49149       1   49137   49125   49140       2   49134   49125   49137       2
   49134   49125   49140       1   49128   49122   49131       1   49125   49122
   49128       2   49125   49122   49131       2   49125   49137   49143       2
   49125   49137   49146       2   49125   49137   49149       2   49122   49125
   49134       2   49122   49125   49140       2   49119   49104   49122       2
   49116   49104   49119       1   49116   49104   49122       2   49107   49086
   49110       1   49104   49086   49107       2   49104   49086   49110       2
   49104   49122   49128       2   49104   49122   49131       2   49095   49074
   49098       4   49095   49080   49101       4   49089   49065   49092       1
   49086   49065   49089       2   49086   49065   49092       2   49086   49104
   49116       2   49086   49104   49119       2   49080   49062   49083       4
   49080   49095   49113       4   49074   49059   49077       4   49074   49095
   49113       4   49068   49050   49071       1   49065   49050   49068       2
   49065   49050   49071       2   49065   49086   49107       2   49065   49086
   49110       2   49062   49080   49101       4   49059   49074   49098       4
   49053   49038   49056       1   49050   49038   49053       2   49050   49038
   49056       2   49050   49065   49089       2   49050   49065   49092       2
   49047   49059   49077       8   49047   49062   49083       8   49041   49020
   49044       1   49038   49020   49041       2   49038   49020   49044       2
   49038   49050   49068       2   49038   49050   49071       2   49029   49008
   49032       8   49029   49011   49035       8   49023   49002   49026       1
   49020   49002   49023       2   49020   49002   49026       2   49020   49038
   49053       2   49020   49038   49056       2   49011   48996   49014       4
   49002   49020   49041       2   49002   49020   49044       2   48999   48990
   49005       4   48996   49011   49035       4   48993   49008   49032       4
   48990   48999   49017       4   48984   48972   48987       4   48984   48999
   49017       4   48984   49002   49023      12   48984   49002   49026      12
   48981   48996   49014       4   48975   48990   49005       4   48963   48972
   48987       4   49338   49329   49341       1   49335   49329   49338       1
   49335   49329   49341       1   49329   49317   49332       2   49326   49317
   49329       2   49326   49317   49332       1   49320   49314   49323       1
   49317   49314   49320       2   49317   49314   49323       2   49317   49329
   49335       2   49317   49329   49338       2   49317   49329   49341       2
   49314   49317   49326       2   49314   49317   49332       2   49311   49296
   49314       2   49308   49296   49311       1   49308   49296   49314       2
   49299   49278   49302       1   49296   49278   49299       2   49296   49278
   49302       2   49296   49314   49320       2   49296   49314   49323       2
   49287   49266   49290       4   49287   49272   49293       4   49281   49257
   49284       1   49278   49257   49281       2   49278   49257   49284       2
   49278   49296   49308       2   49278   49296   49311       2   49272   49254
   49275       4   49272   49287   49305       4   49266   49251   49269       4
   49266   49287   49305       4   49260   49242   49263       1   49257   49242
   49260       2   49257   49242   49263       2   49257   49278   49299       2
   49257   49278   49302       2   49254   49272   49293       4   49251   49266
   49290       4   49245   49230   49248       1   49242   49230   49245       2
   49242   49230   49248       2   49242   49257   49281       2   49242   49257
   49284       2   49239   49251   49269       8   49239   49254   49275       8
   49233   49212   49236       1   49230   49212   49233       2   49230   49212
   49236       2   49230   49242   49260       2   49230   49242   49263       2
   49221   49200   49224       8   49221   49203   49227       8   49215   49194
   49218       1   49212   49194   49215       2   49212   49194   49218       2
   49212   49230   49245       2   49212   49230   49248       2   49203   49188
   49206       4   49194   49212   49233       2   49194   49212   49236       2
   49191   49182   49197       4   49188   49203   49227       4   49185   49200
   49224       4   49182   49191   49209       4   49176   49164   49179       4
   49176   49191   49209       4   49176   49194   49215      12   49176   49194
   49218      12   49173   49188   49206       4   49167   49182   49197       4
   49155   49164   49179       4   49530   49521   49533       1   49527   49521
   49530       1   49527   49521   49533       1   49521   49509   49524       2
   49518   49509   49521       2   49518   49509   49524       1   49512   49506
   49515       1   49509   49506   49512       2   49509   49506   49515       2
   49509   49521   49527       2   49509   49521   49530       2   49509   49521
   49533       2   49506   49509   49518       2   49506   49509   49524       2
   49503   49488   49506       2   49500   49488   49503       1   49500   49488
   49506       2   49491   49470   49494       1   49488   49470   49491       2
   49488   49470   49494       2   49488   49506   49512       2   49488   49506
   49515       2   49479   49458   49482       4   49479   49464   49485       4
   49473   49449   49476       1   49470   49449   49473       2   49470   49449
   49476       2   49470   49488   49500       2   49470   49488   49503       2
   49464   49446   49467       4   49464   49479   49497       4   49458   49443
   49461       4   49458   49479   49497       4   49452   49434   49455       1
   49449   49434   49452       2   49449   49434   49455       2   49449   49470
   49491       2   49449   49470   49494       2   49446   49464   49485       4
   49443   49458   49482       4   49437   49422   49440       1   49434   49422
   49437       2   49434   49422   49440       2   49434   49449   49473       2
   49434   49449   49476       2   49431   49443   49461       8   49431   49446
   49467       8   49425   49404   49428       1   49422   49404   49425       2
   49422   49404   49428       2   49422   49434   49452       2   49422   49434
   49455       2   49413   49392   49416       8   49413   49395   49419       8
   49407   49386   49410       1   49404   49386   49407       2   49404   49386
   49410       2   49404   49422   49437       2   49404   49422   49440       2
   49395   49380   49398       4   49386   49404   49425       2   49386   49404
   49428       2   49383   49374   49389       4   49380   49395   49419       4
   49377   49392   49416       4   49374   49383   49401       4   49368   49356
   49371       4   49368   49383   49401       4   49368   49386   49407      12
   49368   49386   49410      12   49365   49380   49398       4   49359   49374
   49389       4   49347   49356   49371       4   49722   49713   49725       1
   49719   49713   49722       1   49719   49713   49725       1   49713   49701
   49716       2   49710   49701   49713       2   49710   49701   49716       1
   49704   49698   49707       1   49701   49698   49704       2   49701   49698
   49707       2   49701   49713   49719       2   49701   49713   49722       2
   49701   49713   49725       2   49698   49701   49710       2   49698   49701
   49716       2   49695   49680   49698       2   49692   49680   49695       1
   49692   49680   49698       2   49683   49662   49686       1   49680   49662
   49683       2   49680   49662   49686       2   49680   49698   49704       2
   49680   49698   49707       2   49671   49650   49674       4   49671   49656
   49677       4   49665   49641   49668       1   49662   49641   49665       2
   49662   49641   49668       2   49662   49680   49692       2   49662   49680
   49695       2   49656   49638   49659       4   49656   49671   49689       4
   49650   49635   49653       4   49650   49671   49689       4   49644   49626
   49647       1   49641   49626   49644       2   49641   49626   49647       2
   49641   49662   49683       2   49641   49662   49686       2   49638   49656
   49677       4   49635   49650   49674       4   49629   49614   49632       1
   49626   49614   49629       2   49626   49614   49632       2   49626   49641
   49665       2   49626   49641   49668       2   49623   49635   49653       8
   49623   49638   49659       8   49617   49596   49620       1   49614   49596
   49617       2   49614   49596   49620       2   49614   49626   49644       2
   49614   49626   49647       2   49605   49584   49608       8   49605   49587
   49611       8   49599   49578   49602       1   49596   49578   49599       2
   49596   49578   49602       2   49596   49614   49629       2   49596   49614
   49632       2   49587   49572   49590       4   49578   49596   49617       2
   49578   49596   49620       2   49575   49566   49581       4   49572   49587
   49611       4   49569   49584   49608       4   49566   49575   49593       4
   49560   49548   49563       4   49560   49575   49593       4   49560   49578
   49599      12   49560   49578   49602      12   49557   49572   49590       4
   49551   49566   49581       4   49539   49548   49563       4   49914   49905
   49917       1   49911   49905   49914       1   49911   49905   49917       1
   49905   49893   49908       2   49902   49893   49905       2   49902   49893
   49908       1   49896   49890   49899       1   49893   49890   49896       2
   49893   49890   49899       2   49893   49905   49911       2   49893   49905
   49914       2   49893   49905   49917       2   49890   49893   49902       2
   49890   49893   49908       2   49887   49872   49890       2   49884   49872
   49887       1   49884   49872   49890       2   49875   49854   49878       1
   49872   49854   49875       2   49872   49854   49878       2   49872   49890
   49896       2   49872   49890   49899       2   49863   49842   49866       4
   49863   49848   49869       4   49857   49833   49860       1   49854   49833
   49857       2   49854   49833   49860       2   49854   49872   49884       2
   49854   49872   49887       2   49848   49830   49851       4   49848   49863
   49881       4   49842   49827   49845       4   49842   49863   49881       4
   49836   49818   49839       1   49833   49818   49836       2   49833   49818
   49839       2   49833   49854   49875       2   49833   49854   49878       2
   49830   49848   49869       4   49827   49842   49866       4   49821   49806
   49824       1   49818   49806   49821       2   49818   49806   49824       2
   49818   49833   49857       2   49818   49833   49860       2   49815   49827
   49845       8   49815   49830   49851       8   49809   49788   49812       1
   49806   49788   49809       2   49806   49788   49812       2   49806   49818
   49836       2   49806   49818   49839       2   49797   49776   49800       8
   49797   49779   49803       8   49791   49770   49794       1   49788   49770
   49791       2   49788   49770   49794       2   49788   49806   49821       2
   49788   49806   49824       2   49779   49764   49782       4   49770   49788
   49809       2   49770   49788   49812       2   49767   49758   49773       4
   49764   49779   49803       4   49761   49776   49800       4   49758   49767
   49785       4   49752   49740   49755       4   49752   49767   49785       4
   49752   49770   49791      12   49752   49770   49794      12   49749   49764
   49782       4   49743   49758   49773       4   49731   49740   49755       4
   50106   50097   50109       1   50103   50097   50106       1   50103   50097
   50109       1   50097   50085   50100       2   50094   50085   50097       2
   50094   50085   50100       1   50088   50082   50091       1   50085   50082
   50088       2   50085   50082   50091       2   50085   50097   50103       2
   50085   50097   50106       2   50085   50097   50109       2   50082   50085
   50094       2   50082   50085   50100       2   50079   50064   50082       2
   50076   50064   50079       1   50076   50064   50082       2   50067   50046
   50070       1   50064   50046   50067       2   50064   50046   50070       2
   50064   50082   50088       2   50064   50082   50091       2   50055   50034
   50058       4   50055   50040   50061       4   50049   50025   50052       1
   50046   50025   50049       2   50046   50025   50052       2   50046   50064
   50076       2   50046   50064   50079       2   50040   50022   50043       4
   50040   50055   50073       4   50034   50019   50037       4   50034   50055
   50073       4   50028   50010   50031       1   50025   50010   50028       2
   50025   50010   50031       2   50025   50046   50067       2   50025   50046
   50070       2   50022   50040   50061       4   50019   50034   50058       4
   50013   49998   50016       1   50010   49998   50013       2   50010   49998
   50016       2   50010   50025   50049       2   50010   50025   50052       2
   50007   50019   50037       8   50007   50022   50043       8   50001   49980
   50004       1   49998   49980   50001       2   49998   49980   50004       2
   49998   50010   50028       2   49998   50010   50031       2   49989   49968
   49992       8   49989   49971   49995       8   49983   49962   49986       1
   49980   49962   49983       2   49980   49962   49986       2   49980   49998
   50013       2   49980   49998   50016       2   49971   49956   49974       4
   49962   49980   50001       2   49962   49980   50004       2   49959   49950
   49965       4   49956   49971   49995       4   49953   49968   49992       4
   49950   49959   49977       4   49944   49932   49947       4   49944   49959
   49977       4   49944   49962   49983      12   49944   49962   49986      12
   49941   49956   49974       4   49935   49950   49965       4   49923   49932
   49947       4   50298   50289   50301       1   50295   50289   50298       1
   50295   50289   50301       1   50289   50277   50292       2   50286   50277
   50289       2   50286   50277   50292       1   50280   50274   50283       1
   50277   50274   50280       2   50277   50274   50283       2   50277   50289
   50295       2   50277   50289   50298       2   50277   50289   50301       2
   50274   50277   50286       2   50274   50277   50292       2   50271   50256
   50274       2   50268   50256   50271       1   50268   50256   50274       2
   50259   50238   50262       1   50256   50238   50259       2   50256   50238
   50262       2   50256   50274   50280       2   50256   50274   50283       2
   50247   50226   50250       4   50247   50232   50253       4   50241   50217
   50244       1   50238   50217   50241       2   50238   50217   50244       2
   50238   50256   50268       2   50238   50256   50271       2   50232   50214
   50235       4   50232   50247   50265       4   50226   50211   50229       4
   50226   50247   50265       4   50220   50202   50223       1   50217   50202
   50220       2   50217   50202   50223       2   50217   50238   50259       2
   50217   50238   50262       2   50214   50232   50253       4   50211   50226
   50250       4   50205   50190   50208       1   50202   50190   50205       2
   50202   50190   50208       2   50202   50217   50241       2   50202   50217
   50244       2   50199   50211   50229       8   50199   50214   50235       8
   50193   50172   50196       1   50190   50172   50193       2   50190   50172
   50196       2   50190   50202   50220       2   50190   50202   50223       2
   50181   50160   50184       8   50181   50163   50187       8   50175   50154
   50178       1   50172   50154   50175       2   50172   50154   50178       2
   50172   50190   50205       2   50172   50190   50208       2   50163   50148
   50166       4   50154   50172   50193       2   50154   50172   50196       2
   50151   50142   50157       4   50148   50163   50187       4   50145   50160
   50184       4   50142   50151   50169       4   50136   50124   50139       4
   50136   50151   50169       4   50136   50154   50175      12   50136   50154
   50178      12   50133   50148   50166       4   50127   50142   50157       4
   50115   50124   50139       4   50490   50481   50493       1   50487   50481
   50490       1   50487   50481   50493       1   50481   50469   50484       2
   50478   50469   50481       2   50478   50469   50484       1   50472   50466
   50475       1   50469   50466   50472       2   50469   50466   50475       2
   50469   50481   50487       2   50469   50481   50490       2   50469   50481
   50493       2   50466   50469   50478       2   50466   50469   50484       2
   50463   50448   50466       2   50460   50448   50463       1   50460   50448
   50466       2   50451   50430   50454       1   50448   50430   50451       2
   50448   50430   50454       2   50448   50466   50472       2   50448   50466
   50475       2   50439   50418   50442       4   50439   50424   50445       4
   50433   50409   50436       1   50430   50409   50433       2   50430   50409
   50436       2   50430   50448   50460       2   50430   50448   50463       2
   50424   50406   50427       4   50424   50439   50457       4   50418   50403
   50421       4   50418   50439   50457       4   50412   50394   50415       1
   50409   50394   50412       2   50409   50394   50415       2   50409   50430
   50451       2   50409   50430   50454       2   50406   50424   50445       4
   50403   50418   50442       4   50397   50382   50400       1   50394   50382
   50397       2   50394   50382   50400       2   50394   50409   50433       2
   50394   50409   50436       2   50391   50403   50421       8   50391   50406
   50427       8   50385   50364   50388       1   50382   50364   50385       2
   50382   50364   50388       2   50382   50394   50412       2   50382   50394
   50415       2   50373   50352   50376       8   50373   50355   50379       8
   50367   50346   50370       1   50364   50346   50367       2   50364   50346
   50370       2   50364   50382   50397       2   50364   50382   50400       2
   50355   50340   50358       4   50346   50364   50385       2   50346   50364
   50388       2   50343   50334   50349       4   50340   50355   50379       4
   50337   50352   50376       4   50334   50343   50361       4   50328   50316
   50331       4   50328   50343   50361       4   50328   50346   50367      12
   50328   50346   50370      12   50325   50340   50358       4   50319   50334
   50349       4   50307   50316   50331       4   50682   50673   50685       1
   50679   50673   50682       1   50679   50673   50685       1   50673   50661
   50676       2   50670   50661   50673       2   50670   50661   50676       1
   50664   50658   50667       1   50661   50658   50664       2   50661   50658
   50667       2   50661   50673   50679       2   50661   50673   50682       2
   50661   50673   50685       2   50658   50661   50670       2   50658   50661
   50676       2   50655   50640   50658       2   50652   50640   50655       1
   50652   50640   50658       2   50643   50622   50646       1   50640   50622
   50643       2   50640   50622   50646       2   50640   50658   50664       2
   50640   50658   50667       2   50631   50610   50634       4   50631   50616
   50637       4   50625   50601   50628       1   50622   50601   50625       2
   50622   50601   50628       2   50622   50640   50652       2   50622   50640
   50655       2   50616   50598   50619       4   50616   50631   50649       4
   50610   50595   50613       4   50610   50631   50649       4   50604   50586
   50607       1   50601   50586   50604       2   50601   50586   50607       2
   50601   50622   50643       2   50601   50622   50646       2   50598   50616
   50637       4   50595   50610   50634       4   50589   50574   50592       1
   50586   50574   50589       2   50586   50574   50592       2   50586   50601
   50625       2   50586   50601   50628       2   50583   50595   50613       8
   50583   50598   50619       8   50577   50556   50580       1   50574   50556
   50577       2   50574   50556   50580       2   50574   50586   50604       2
   50574   50586   50607       2   50565   50544   50568       8   50565   50547
   50571       8   50559   50538   50562       1   50556   50538   50559       2
   50556   50538   50562       2   50556   50574   50589       2   50556   50574
   50592       2   50547   50532   50550       4   50538   50556   50577       2
   50538   50556   50580       2   50535   50526   50541       4   50532   50547
   50571       4   50529   50544   50568       4   50526   50535   50553       4
   50520   50508   50523       4   50520   50535   50553       4   50520   50538
   50559      12   50520   50538   50562      12   50517   50532   50550       4
   50511   50526   50541       4   50499   50508   50523       4   50874   50865
   50877       1   50871   50865   50874       1   50871   50865   50877       1
   50865   50853   50868       2   50862   50853   50865       2   50862   50853
   50868       1   50856   50850   50859       1   50853   50850   50856       2
   50853   50850   50859       2   50853   50865   50871       2   50853   50865
   50874       2   50853   50865   50877       2   50850   50853   50862       2
   50850   50853   50868       2   50847   50832   50850       2   50844   50832
   50847       1   50844   50832   50850       2   50835   50814   50838       1
   50832   50814   50835       2   50832   50814   50838       2   50832   50850
   50856       2   50832   50850   50859       2   50823   50802   50826       4
   50823   50808   50829       4   50817   50793   50820       1   50814   50793
   50817       2   50814   50793   50820       2   50814   50832   50844       2
   50814   50832   50847       2   50808   50790   50811       4   50808   50823
   50841       4   50802   50787   50805       4   50802   50823   50841       4
   50796   50778   50799       1   50793   50778   50796       2   50793   50778
   50799       2   50793   50814   50835       2   50793   50814   50838       2
   50790   50808   50829       4   50787   50802   50826       4   50781   50766
   50784       1   50778   50766   50781       2   50778   50766   50784       2
   50778   50793   50817       2   50778   50793   50820       2   50775   50787
   50805       8   50775   50790   50811       8   50769   50748   50772       1
   50766   50748   50769       2   50766   50748   50772       2   50766   50778
   50796       2   50766   50778   50799       2   50757   50736   50760       8
   50757   50739   50763       8   50751   50730   50754       1   50748   50730
   50751       2   50748   50730   50754       2   50748   50766   50781       2
   50748   50766   50784       2   50739   50724   50742       4   50730   50748
   50769       2   50730   50748   50772       2   50727   50718   50733       4
   50724   50739   50763       4   50721   50736   50760       4   50718   50727
   50745       4   50712   50700   50715       4   50712   50727   50745       4
   50712   50730   50751      12   50712   50730   50754      12   50709   50724
   50742       4   50703   50718   50733       4   50691   50700   50715       4
   51066   51057   51069       1   51063   51057   51066       1   51063   51057
   51069       1   51057   51045   51060       2   51054   51045   51057       2
   51054   51045   51060       1   51048   51042   51051       1   51045   51042
   51048       2   51045   51042   51051       2   51045   51057   51063       2
   51045   51057   51066       2   51045   51057   51069       2   51042   51045
   51054       2   51042   51045   51060       2   51039   51024   51042       2
   51036   51024   51039       1   51036   51024   51042       2   51027   51006
   51030       1   51024   51006   51027       2   51024   51006   51030       2
   51024   51042   51048       2   51024   51042   51051       2   51015   50994
   51018       4   51015   51000   51021       4   51009   50985   51012       1
   51006   50985   51009       2   51006   50985   51012       2   51006   51024
   51036       2   51006   51024   51039       2   51000   50982   51003       4
   51000   51015   51033       4   50994   50979   50997       4   50994   51015
   51033       4   50988   50970   50991       1   50985   50970   50988       2
   50985   50970   50991       2   50985   51006   51027       2   50985   51006
   51030       2   50982   51000   51021       4   50979   50994   51018       4
   50973   50958   50976       1   50970   50958   50973       2   50970   50958
   50976       2   50970   50985   51009       2   50970   50985   51012       2
   50967   50979   50997       8   50967   50982   51003       8   50961   50940
   50964       1   50958   50940   50961       2   50958   50940   50964       2
   50958   50970   50988       2   50958   50970   50991       2   50949   50928
   50952       8   50949   50931   50955       8   50943   50922   50946       1
   50940   50922   50943       2   50940   50922   50946       2   50940   50958
   50973       2   50940   50958   50976       2   50931   50916   50934       4
   50922   50940   50961       2   50922   50940   50964       2   50919   50910
   50925       4   50916   50931   50955       4   50913   50928   50952       4
   50910   50919   50937       4   50904   50892   50907       4   50904   50919
   50937       4   50904   50922   50943      12   50904   50922   50946      12
   50901   50916   50934       4   50895   50910   50925       4   50883   50892
   50907       4   51258   51249   51261       1   51255   51249   51258       1
   51255   51249   51261       1   51249   51237   51252       2   51246   51237
   51249       2   51246   51237   51252       1   51240   51234   51243       1
   51237   51234   51240       2   51237   51234   51243       2   51237   51249
   51255       2   51237   51249   51258       2   51237   51249   51261       2
   51234   51237   51246       2   51234   51237   51252       2   51231   51216
   51234       2   51228   51216   51231       1   51228   51216   51234       2
   51219   51198   51222       1   51216   51198   51219       2   51216   51198
   51222       2   51216   51234   51240       2   51216   51234   51243       2
   51207   51186   51210       4   51207   51192   51213       4   51201   51177
   51204       1   51198   51177   51201       2   51198   51177   51204       2
   51198   51216   51228       2   51198   51216   51231       2   51192   51174
   51195       4   51192   51207   51225       4   51186   51171   51189       4
   51186   51207   51225       4   51180   51162   51183       1   51177   51162
   51180       2   51177   51162   51183       2   51177   51198   51219       2
   51177   51198   51222       2   51174   51192   51213       4   51171   51186
   51210       4   51165   51150   51168       1   51162   51150   51165       2
   51162   51150   51168       2   51162   51177   51201       2   51162   51177
   51204       2   51159   51171   51189       8   51159   51174   51195       8
   51153   51132   51156       1   51150   51132   51153       2   51150   51132
   51156       2   51150   51162   51180       2   51150   51162   51183       2
   51141   51120   51144       8   51141   51123   51147       8   51135   51114
   51138       1   51132   51114   51135       2   51132   51114   51138       2
   51132   51150   51165       2   51132   51150   51168       2   51123   51108
   51126       4   51114   51132   51153       2   51114   51132   51156       2
   51111   51102   51117       4   51108   51123   51147       4   51105   51120
   51144       4   51102   51111   51129       4   51096   51084   51099       4
   51096   51111   51129       4   51096   51114   51135      12   51096   51114
   51138      12   51093   51108   51126       4   51087   51102   51117       4
   51075   51084   51099       4   51450   51441   51453       1   51447   51441
   51450       1   51447   51441   51453       1   51441   51429   51444       2
   51438   51429   51441       2   51438   51429   51444       1   51432   51426
   51435       1   51429   51426   51432       2   51429   51426   51435       2
   51429   51441   51447       2   51429   51441   51450       2   51429   51441
   51453       2   51426   51429   51438       2   51426   51429   51444       2
   51423   51408   51426       2   51420   51408   51423       1   51420   51408
   51426       2   51411   51390   51414       1   51408   51390   51411       2
   51408   51390   51414       2   51408   51426   51432       2   51408   51426
   51435       2   51399   51378   51402       4   51399   51384   51405       4
   51393   51369   51396       1   51390   51369   51393       2   51390   51369
   51396       2   51390   51408   51420       2   51390   51408   51423       2
   51384   51366   51387       4   51384   51399   51417       4   51378   51363
   51381       4   51378   51399   51417       4   51372   51354   51375       1
   51369   51354   51372       2   51369   51354   51375       2   51369   51390
   51411       2   51369   51390   51414       2   51366   51384   51405       4
   51363   51378   51402       4   51357   51342   51360       1   51354   51342
   51357       2   51354   51342   51360       2   51354   51369   51393       2
   51354   51369   51396       2   51351   51363   51381       8   51351   51366
   51387       8   51345   51324   51348       1   51342   51324   51345       2
   51342   51324   51348       2   51342   51354   51372       2   51342   51354
   51375       2   51333   51312   51336       8   51333   51315   51339       8
   51327   51306   51330       1   51324   51306   51327       2   51324   51306
   51330       2   51324   51342   51357       2   51324   51342   51360       2
   51315   51300   51318       4   51306   51324   51345       2   51306   51324
   51348       2   51303   51294   51309       4   51300   51315   51339       4
   51297   51312   51336       4   51294   51303   51321       4   51288   51276
   51291       4   51288   51303   51321       4   51288   51306   51327      12
   51288   51306   51330      12   51285   51300   51318       4   51279   51294
   51309       4   51267   51276   51291       4   51642   51633   51645       1
   51639   51633   51642       1   51639   51633   51645       1   51633   51621
   51636       2   51630   51621   51633       2   51630   51621   51636       1
   51624   51618   51627       1   51621   51618   51624       2   51621   51618
   51627       2   51621   51633   51639       2   51621   51633   51642       2
   51621   51633   51645       2   51618   51621   51630       2   51618   51621
   51636       2   51615   51600   51618       2   51612   51600   51615       1
   51612   51600   51618       2   51603   51582   51606       1   51600   51582
   51603       2   51600   51582   51606       2   51600   51618   51624       2
   51600   51618   51627       2   51591   51570   51594       4   51591   51576
   51597       4   51585   51561   51588       1   51582   51561   51585       2
   51582   51561   51588       2   51582   51600   51612       2   51582   51600
   51615       2   51576   51558   51579       4   51576   51591   51609       4
   51570   51555   51573       4   51570   51591   51609       4   51564   51546
   51567       1   51561   51546   51564       2   51561   51546   51567       2
   51561   51582   51603       2   51561   51582   51606       2   51558   51576
   51597       4   51555   51570   51594       4   51549   51534   51552       1
   51546   51534   51549       2   51546   51534   51552       2   51546   51561
   51585       2   51546   51561   51588       2   51543   51555   51573       8
   51543   51558   51579       8   51537   51516   51540       1   51534   51516
   51537       2   51534   51516   51540       2   51534   51546   51564       2
   51534   51546   51567       2   51525   51504   51528       8   51525   51507
   51531       8   51519   51498   51522       1   51516   51498   51519       2
   51516   51498   51522       2   51516   51534   51549       2   51516   51534
   51552       2   51507   51492   51510       4   51498   51516   51537       2
   51498   51516   51540       2   51495   51486   51501       4   51492   51507
   51531       4   51489   51504   51528       4   51486   51495   51513       4
   51480   51468   51483       4   51480   51495   51513       4   51480   51498
   51519      12   51480   51498   51522      12   51477   51492   51510       4
   51471   51486   51501       4   51459   51468   51483       4   51834   51825
   51837       1   51831   51825   51834       1   51831   51825   51837       1
   51825   51813   51828       2   51822   51813   51825       2   51822   51813
   51828       1   51816   51810   51819       1   51813   51810   51816       2
   51813   51810   51819       2   51813   51825   51831       2   51813   51825
   51834       2   51813   51825   51837       2   51810   51813   51822       2
   51810   51813   51828       2   51807   51792   51810       2   51804   51792
   51807       1   51804   51792   51810       2   51795   51774   51798       1
   51792   51774   51795       2   51792   51774   51798       2   51792   51810
   51816       2   51792   51810   51819       2   51783   51762   51786       4
   51783   51768   51789       4   51777   51753   51780       1   51774   51753
   51777       2   51774   51753   51780       2   51774   51792   51804       2
   51774   51792   51807       2   51768   51750   51771       4   51768   51783
   51801       4   51762   51747   51765       4   51762   51783   51801       4
   51756   51738   51759       1   51753   51738   51756       2   51753   51738
   51759       2   51753   51774   51795       2   51753   51774   51798       2
   51750   51768   51789       4   51747   51762   51786       4   51741   51726
   51744       1   51738   51726   51741       2   51738   51726   51744       2
   51738   51753   51777       2   51738   51753   51780       2   51735   51747
   51765       8   51735   51750   51771       8   51729   51708   51732       1
   51726   51708   51729       2   51726   51708   51732       2   51726   51738
   51756       2   51726   51738   51759       2   51717   51696   51720       8
   51717   51699   51723       8   51711   51690   51714       1   51708   51690
   51711       2   51708   51690   51714       2   51708   51726   51741       2
   51708   51726   51744       2   51699   51684   51702       4   51690   51708
   51729       2   51690   51708   51732       2   51687   51678   51693       4
   51684   51699   51723       4   51681   51696   51720       4   51678   51687
   51705       4   51672   51660   51675       4   51672   51687   51705       4
   51672   51690   51711      12   51672   51690   51714      12   51669   51684
   51702       4   51663   51678   51693       4   51651   51660   51675       4
   52026   52017   52029       1   52023   52017   52026       1   52023   52017
   52029       1   52017   52005   52020       2   52014   52005   52017       2
   52014   52005   52020       1   52008   52002   52011       1   52005   52002
   52008       2   52005   52002   52011       2   52005   52017   52023       2
   52005   52017   52026       2   52005   52017   52029       2   52002   52005
   52014       2   52002   52005   52020       2   51999   51984   52002       2
   51996   51984   51999       1   51996   51984   52002       2   51987   51966
   51990       1   51984   51966   51987       2   51984   51966   51990       2
   51984   52002   52008       2   51984   52002   52011       2   51975   51954
   51978       4   51975   51960   51981       4   51969   51945   51972       1
   51966   51945   51969       2   51966   51945   51972       2   51966   51984
   51996       2   51966   51984   51999       2   51960   51942   51963       4
   51960   51975   51993       4   51954   51939   51957       4   51954   51975
   51993       4   51948   51930   51951       1   51945   51930   51948       2
   51945   51930   51951       2   51945   51966   51987       2   51945   51966
   51990       2   51942   51960   51981       4   51939   51954   51978       4
   51933   51918   51936       1   51930   51918   51933       2   51930   51918
   51936       2   51930   51945   51969       2   51930   51945   51972       2
   51927   51939   51957       8   51927   51942   51963       8   51921   51900
   51924       1   51918   51900   51921       2   51918   51900   51924       2
   51918   51930   51948       2   51918   51930   51951       2   51909   51888
   51912       8   51909   51891   51915       8   51903   51882   51906       1
   51900   51882   51903       2   51900   51882   51906       2   51900   51918
   51933       2   51900   51918   51936       2   51891   51876   51894       4
   51882   51900   51921       2   51882   51900   51924       2   51879   51870
   51885       4   51876   51891   51915       4   51873   51888   51912       4
   51870   51879   51897       4   51864   51852   51867       4   51864   51879
   51897       4   51864   51882   51903      12   51864   51882   51906      12
   51861   51876   51894       4   51855   51870   51885       4   51843   51852
   51867       4   52218   52209   52221       1   52215   52209   52218       1
   52215   52209   52221       1   52209   52197   52212       2   52206   52197
   52209       2   52206   52197   52212       1   52200   52194   52203       1
   52197   52194   52200       2   52197   52194   52203       2   52197   52209
   52215       2   52197   52209   52218       2   52197   52209   52221       2
   52194   52197   52206       2   52194   52197   52212       2   52191   52176
   52194       2   52188   52176   52191       1   52188   52176   52194       2
   52179   52158   52182       1   52176   52158   52179       2   52176   52158
   52182       2   52176   52194   52200       2   52176   52194   52203       2
   52167   52146   52170       4   52167   52152   52173       4   52161   52137
   52164       1   52158   52137   52161       2   52158   52137   52164       2
   52158   52176   52188       2   52158   52176   52191       2   52152   52134
   52155       4   52152   52167   52185       4   52146   52131   52149       4
   52146   52167   52185       4   52140   52122   52143       1   52137   52122
   52140       2   52137   52122   52143       2   52137   52158   52179       2
   52137   52158   52182       2   52134   52152   52173       4   52131   52146
   52170       4   52125   52110   52128       1   52122   52110   52125       2
   52122   52110   52128       2   52122   52137   52161       2   52122   52137
   52164       2   52119   52131   52149       8   52119   52134   52155       8
   52113   52092   52116       1   52110   52092   52113       2   52110   52092
   52116       2   52110   52122   52140       2   52110   52122   52143       2
   52101   52080   52104       8   52101   52083   52107       8   52095   52074
   52098       1   52092   52074   52095       2   52092   52074   52098       2
   52092   52110   52125       2   52092   52110   52128       2   52083   52068
   52086       4   52074   52092   52113       2   52074   52092   52116       2
   52071   52062   52077       4   52068   52083   52107       4   52065   52080
   52104       4   52062   52071   52089       4   52056   52044   52059       4
   52056   52071   52089       4   52056   52074   52095      12   52056   52074
   52098      12   52053   52068   52086       4   52047   52062   52077       4
   52035   52044   52059       4   52410   52401   52413       1   52407   52401
   52410       1   52407   52401   52413       1   52401   52389   52404       2
   52398   52389   52401       2   52398   52389   52404       1   52392   52386
   52395       1   52389   52386   52392       2   52389   52386   52395       2
   52389   52401   52407       2   52389   52401   52410       2   52389   52401
   52413       2   52386   52389   52398       2   52386   52389   52404       2
   52383   52368   52386       2   52380   52368   52383       1   52380   52368
   52386       2   52371   52350   52374       1   52368   52350   52371       2
   52368   52350   52374       2   52368   52386   52392       2   52368   52386
   52395       2   52359   52338   52362       4   52359   52344   52365       4
   52353   52329   52356       1   52350   52329   52353       2   52350   52329
   52356       2   52350   52368   52380       2   52350   52368   52383       2
   52344   52326   52347       4   52344   52359   52377       4   52338   52323
   52341       4   52338   52359   52377       4   52332   52314   52335       1
   52329   52314   52332       2   52329   52314   52335       2   52329   52350
   52371       2   52329   52350   52374       2   52326   52344   52365       4
   52323   52338   52362       4   52317   52302   52320       1   52314   52302
   52317       2   52314   52302   52320       2   52314   52329   52353       2
   52314   52329   52356       2   52311   52323   52341       8   52311   52326
   52347       8   52305   52284   52308       1   52302   52284   52305       2
   52302   52284   52308       2   52302   52314   52332       2   52302   52314
   52335       2   52293   52272   52296       8   52293   52275   52299       8
   52287   52266   52290       1   52284   52266   52287       2   52284   52266
   52290       2   52284   52302   52317       2   52284   52302   52320       2
   52275   52260   52278       4   52266   52284   52305       2   52266   52284
   52308       2   52263   52254   52269       4   52260   52275   52299       4
   52257   52272   52296       4   52254   52263   52281       4   52248   52236
   52251       4   52248   52263   52281       4   52248   52266   52287      12
   52248   52266   52290      12   52245   52260   52278       4   52239   52254
   52269       4   52227   52236   52251       4   52602   52593   52605       1
   52599   52593   52602       1   52599   52593   52605       1   52593   52581
   52596       2   52590   52581   52593       2   52590   52581   52596       1
   52584   52578   52587       1   52581   52578   52584       2   52581   52578
   52587       2   52581   52593   52599       2   52581   52593   52602       2
   52581   52593   52605       2   52578   52581   52590       2   52578   52581
   52596       2   52575   52560   52578       2   52572   52560   52575       1
   52572   52560   52578       2   52563   52542   52566       1   52560   52542
   52563       2   52560   52542   52566       2   52560   52578   52584       2
   52560   52578   52587       2   52551   52530   52554       4   52551   52536
   52557       4   52545   52521   52548       1   52542   52521   52545       2
   52542   52521   52548       2   52542   52560   52572       2   52542   52560
   52575       2   52536   52518   52539       4   52536   52551   52569       4
   52530   52515   52533       4   52530   52551   52569       4   52524   52506
   52527       1   52521   52506   52524       2   52521   52506   52527       2
   52521   52542   52563       2   52521   52542   52566       2   52518   52536
   52557       4   52515   52530   52554       4   52509   52494   52512       1
   52506   52494   52509       2   52506   52494   52512       2   52506   52521
   52545       2   52506   52521   52548       2   52503   52515   52533       8
   52503   52518   52539       8   52497   52476   52500       1   52494   52476
   52497       2   52494   52476   52500       2   52494   52506   52524       2
   52494   52506   52527       2   52485   52464   52488       8   52485   52467
   52491       8   52479   52458   52482       1   52476   52458   52479       2
   52476   52458   52482       2   52476   52494   52509       2   52476   52494
   52512       2   52467   52452   52470       4   52458   52476   52497       2
   52458   52476   52500       2   52455   52446   52461       4   52452   52467
   52491       4   52449   52464   52488       4   52446   52455   52473       4
   52440   52428   52443       4   52440   52455   52473       4   52440   52458
   52479      12   52440   52458   52482      12   52437   52452   52470       4
   52431   52446   52461       4   52419   52428   52443       4   52794   52785
   52797       1   52791   52785   52794       1   52791   52785   52797       1
   52785   52773   52788       2   52782   52773   52785       2   52782   52773
   52788       1   52776   52770   52779       1   52773   52770   52776       2
   52773   52770   52779       2   52773   52785   52791       2   52773   52785
   52794       2   52773   52785   52797       2   52770   52773   52782       2
   52770   52773   52788       2   52767   52752   52770       2   52764   52752
   52767       1   52764   52752   52770       2   52755   52734   52758       1
   52752   52734   52755       2   52752   52734   52758       2   52752   52770
   52776       2   52752   52770   52779       2   52743   52722   52746       4
   52743   52728   52749       4   52737   52713   52740       1   52734   52713
   52737       2   52734   52713   52740       2   52734   52752   52764       2
   52734   52752   52767       2   52728   52710   52731       4   52728   52743
   52761       4   52722   52707   52725       4   52722   52743   52761       4
   52716   52698   52719       1   52713   52698   52716       2   52713   52698
   52719       2   52713   52734   52755       2   52713   52734   52758       2
   52710   52728   52749       4   52707   52722   52746       4   52701   52686
   52704       1   52698   52686   52701       2   52698   52686   52704       2
   52698   52713   52737       2   52698   52713   52740       2   52695   52707
   52725       8   52695   52710   52731       8   52689   52668   52692       1
   52686   52668   52689       2   52686   52668   52692       2   52686   52698
   52716       2   52686   52698   52719       2   52677   52656   52680       8
   52677   52659   52683       8   52671   52650   52674       1   52668   52650
   52671       2   52668   52650   52674       2   52668   52686   52701       2
   52668   52686   52704       2   52659   52644   52662       4   52650   52668
   52689       2   52650   52668   52692       2   52647   52638   52653       4
   52644   52659   52683       4   52641   52656   52680       4   52638   52647
   52665       4   52632   52620   52635       4   52632   52647   52665       4
   52632   52650   52671      12   52632   52650   52674      12   52629   52644
   52662       4   52623   52638   52653       4   52611   52620   52635       4
   52986   52977   52989       1   52983   52977   52986       1   52983   52977
   52989       1   52977   52965   52980       2   52974   52965   52977       2
   52974   52965   52980       1   52968   52962   52971       1   52965   52962
   52968       2   52965   52962   52971       2   52965   52977   52983       2
   52965   52977   52986       2   52965   52977   52989       2   52962   52965
   52974       2   52962   52965   52980       2   52959   52944   52962       2
   52956   52944   52959       1   52956   52944   52962       2   52947   52926
   52950       1   52944   52926   52947       2   52944   52926   52950       2
   52944   52962   52968       2   52944   52962   52971       2   52935   52914
   52938       4   52935   52920   52941       4   52929   52905   52932       1
   52926   52905   52929       2   52926   52905   52932       2   52926   52944
   52956       2   52926   52944   52959       2   52920   52902   52923       4
   52920   52935   52953       4   52914   52899   52917       4   52914   52935
   52953       4   52908   52890   52911       1   52905   52890   52908       2
   52905   52890   52911       2   52905   52926   52947       2   52905   52926
   52950       2   52902   52920   52941       4   52899   52914   52938       4
   52893   52878   52896       1   52890   52878   52893       2   52890   52878
   52896       2   52890   52905   52929       2   52890   52905   52932       2
   52887   52899   52917       8   52887   52902   52923       8   52881   52860
   52884       1   52878   52860   52881       2   52878   52860   52884       2
   52878   52890   52908       2   52878   52890   52911       2   52869   52848
   52872       8   52869   52851   52875       8   52863   52842   52866       1
   52860   52842   52863       2   52860   52842   52866       2   52860   52878
   52893       2   52860   52878   52896       2   52851   52836   52854       4
   52842   52860   52881       2   52842   52860   52884       2   52839   52830
   52845       4   52836   52851   52875       4   52833   52848   52872       4
   52830   52839   52857       4   52824   52812   52827       4   52824   52839
   52857       4   52824   52842   52863      12   52824   52842   52866      12
   52821   52836   52854       4   52815   52830   52845       4   52803   52812
   52827       4   53178   53169   53181       1   53175   53169   53178       1
   53175   53169   53181       1   53169   53157   53172       2   53166   53157
   53169       2   53166   53157   53172       1   53160   53154   53163       1
   53157   53154   53160       2   53157   53154   53163       2   53157   53169
   53175       2   53157   53169   53178       2   53157   53169   53181       2
   53154   53157   53166       2   53154   53157   53172       2   53151   53136
   53154       2   53148   53136   53151       1   53148   53136   53154       2
   53139   53118   53142       1   53136   53118   53139       2   53136   53118
   53142       2   53136   53154   53160       2   53136   53154   53163       2
   53127   53106   53130       4   53127   53112   53133       4   53121   53097
   53124       1   53118   53097   53121       2   53118   53097   53124       2
   53118   53136   53148       2   53118   53136   53151       2   53112   53094
   53115       4   53112   53127   53145       4   53106   53091   53109       4
   53106   53127   53145       4   53100   53082   53103       1   53097   53082
   53100       2   53097   53082   53103       2   53097   53118   53139       2
   53097   53118   53142       2   53094   53112   53133       4   53091   53106
   53130       4   53085   53070   53088       1   53082   53070   53085       2
   53082   53070   53088       2   53082   53097   53121       2   53082   53097
   53124       2   53079   53091   53109       8   53079   53094   53115       8
   53073   53052   53076       1   53070   53052   53073       2   53070   53052
   53076       2   53070   53082   53100       2   53070   53082   53103       2
   53061   53040   53064       8   53061   53043   53067       8   53055   53034
   53058       1   53052   53034   53055       2   53052   53034   53058       2
   53052   53070   53085       2   53052   53070   53088       2   53043   53028
   53046       4   53034   53052   53073       2   53034   53052   53076       2
   53031   53022   53037       4   53028   53043   53067       4   53025   53040
   53064       4   53022   53031   53049       4   53016   53004   53019       4
   53016   53031   53049       4   53016   53034   53055      12   53016   53034
   53058      12   53013   53028   53046       4   53007   53022   53037       4
   52995   53004   53019       4   53370   53361   53373       1   53367   53361
   53370       1   53367   53361   53373       1   53361   53349   53364       2
   53358   53349   53361       2   53358   53349   53364       1   53352   53346
   53355       1   53349   53346   53352       2   53349   53346   53355       2
   53349   53361   53367       2   53349   53361   53370       2   53349   53361
   53373       2   53346   53349   53358       2   53346   53349   53364       2
   53343   53328   53346       2   53340   53328   53343       1   53340   53328
   53346       2   53331   53310   53334       1   53328   53310   53331       2
   53328   53310   53334       2   53328   53346   53352       2   53328   53346
   53355       2   53319   53298   53322       4   53319   53304   53325       4
   53313   53289   53316       1   53310   53289   53313       2   53310   53289
   53316       2   53310   53328   53340       2   53310   53328   53343       2
   53304   53286   53307       4   53304   53319   53337       4   53298   53283
   53301       4   53298   53319   53337       4   53292   53274   53295       1
   53289   53274   53292       2   53289   53274   53295       2   53289   53310
   53331       2   53289   53310   53334       2   53286   53304   53325       4
   53283   53298   53322       4   53277   53262   53280       1   53274   53262
   53277       2   53274   53262   53280       2   53274   53289   53313       2
   53274   53289   53316       2   53271   53283   53301       8   53271   53286
   53307       8   53265   53244   53268       1   53262   53244   53265       2
   53262   53244   53268       2   53262   53274   53292       2   53262   53274
   53295       2   53253   53232   53256       8   53253   53235   53259       8
   53247   53226   53250       1   53244   53226   53247       2   53244   53226
   53250       2   53244   53262   53277       2   53244   53262   53280       2
   53235   53220   53238       4   53226   53244   53265       2   53226   53244
   53268       2   53223   53214   53229       4   53220   53235   53259       4
   53217   53232   53256       4   53214   53223   53241       4   53208   53196
   53211       4   53208   53223   53241       4   53208   53226   53247      12
   53208   53226   53250      12   53205   53220   53238       4   53199   53214
   53229       4   53187   53196   53211       4   53562   53553   53565       1
   53559   53553   53562       1   53559   53553   53565       1   53553   53541
   53556       2   53550   53541   53553       2   53550   53541   53556       1
   53544   53538   53547       1   53541   53538   53544       2   53541   53538
   53547       2   53541   53553   53559       2   53541   53553   53562       2
   53541   53553   53565       2   53538   53541   53550       2   53538   53541
   53556       2   53535   53520   53538       2   53532   53520   53535       1
   53532   53520   53538       2   53523   53502   53526       1   53520   53502
   53523       2   53520   53502   53526       2   53520   53538   53544       2
   53520   53538   53547       2   53511   53490   53514       4   53511   53496
   53517       4   53505   53481   53508       1   53502   53481   53505       2
   53502   53481   53508       2   53502   53520   53532       2   53502   53520
   53535       2   53496   53478   53499       4   53496   53511   53529       4
   53490   53475   53493       4   53490   53511   53529       4   53484   53466
   53487       1   53481   53466   53484       2   53481   53466   53487       2
   53481   53502   53523       2   53481   53502   53526       2   53478   53496
   53517       4   53475   53490   53514       4   53469   53454   53472       1
   53466   53454   53469       2   53466   53454   53472       2   53466   53481
   53505       2   53466   53481   53508       2   53463   53475   53493       8
   53463   53478   53499       8   53457   53436   53460       1   53454   53436
   53457       2   53454   53436   53460       2   53454   53466   53484       2
   53454   53466   53487       2   53445   53424   53448       8   53445   53427
   53451       8   53439   53418   53442       1   53436   53418   53439       2
   53436   53418   53442       2   53436   53454   53469       2   53436   53454
   53472       2   53427   53412   53430       4   53418   53436   53457       2
   53418   53436   53460       2   53415   53406   53421       4   53412   53427
   53451       4   53409   53424   53448       4   53406   53415   53433       4
   53400   53388   53403       4   53400   53415   53433       4   53400   53418
   53439      12   53400   53418   53442      12   53397   53412   53430       4
   53391   53406   53421       4   53379   53388   53403       4   53754   53745
   53757       1   53751   53745   53754       1   53751   53745   53757       1
   53745   53733   53748       2   53742   53733   53745       2   53742   53733
   53748       1   53736   53730   53739       1   53733   53730   53736       2
   53733   53730   53739       2   53733   53745   53751       2   53733   53745
   53754       2   53733   53745   53757       2   53730   53733   53742       2
   53730   53733   53748       2   53727   53712   53730       2   53724   53712
   53727       1   53724   53712   53730       2   53715   53694   53718       1
   53712   53694   53715       2   53712   53694   53718       2   53712   53730
   53736       2   53712   53730   53739       2   53703   53682   53706       4
   53703   53688   53709       4   53697   53673   53700       1   53694   53673
   53697       2   53694   53673   53700       2   53694   53712   53724       2
   53694   53712   53727       2   53688   53670   53691       4   53688   53703
   53721       4   53682   53667   53685       4   53682   53703   53721       4
   53676   53658   53679       1   53673   53658   53676       2   53673   53658
   53679       2   53673   53694   53715       2   53673   53694   53718       2
   53670   53688   53709       4   53667   53682   53706       4   53661   53646
   53664       1   53658   53646   53661       2   53658   53646   53664       2
   53658   53673   53697       2   53658   53673   53700       2   53655   53667
   53685       8   53655   53670   53691       8   53649   53628   53652       1
   53646   53628   53649       2   53646   53628   53652       2   53646   53658
   53676       2   53646   53658   53679       2   53637   53616   53640       8
   53637   53619   53643       8   53631   53610   53634       1   53628   53610
   53631       2   53628   53610   53634       2   53628   53646   53661       2
   53628   53646   53664       2   53619   53604   53622       4   53610   53628
   53649       2   53610   53628   53652       2   53607   53598   53613       4
   53604   53619   53643       4   53601   53616   53640       4   53598   53607
   53625       4   53592   53580   53595       4   53592   53607   53625       4
   53592   53610   53631      12   53592   53610   53634      12   53589   53604
   53622       4   53583   53598   53613       4   53571   53580   53595       4
   53946   53937   53949       1   53943   53937   53946       1   53943   53937
   53949       1   53937   53925   53940       2   53934   53925   53937       2
   53934   53925   53940       1   53928   53922   53931       1   53925   53922
   53928       2   53925   53922   53931       2   53925   53937   53943       2
   53925   53937   53946       2   53925   53937   53949       2   53922   53925
   53934       2   53922   53925   53940       2   53919   53904   53922       2
   53916   53904   53919       1   53916   53904   53922       2   53907   53886
   53910       1   53904   53886   53907       2   53904   53886   53910       2
   53904   53922   53928       2   53904   53922   53931       2   53895   53874
   53898       4   53895   53880   53901       4   53889   53865   53892       1
   53886   53865   53889       2   53886   53865   53892       2   53886   53904
   53916       2   53886   53904   53919       2   53880   53862   53883       4
   53880   53895   53913       4   53874   53859   53877       4   53874   53895
   53913       4   53868   53850   53871       1   53865   53850   53868       2
   53865   53850   53871       2   53865   53886   53907       2   53865   53886
   53910       2   53862   53880   53901       4   53859   53874   53898       4
   53853   53838   53856       1   53850   53838   53853       2   53850   53838
   53856       2   53850   53865   53889       2   53850   53865   53892       2
   53847   53859   53877       8   53847   53862   53883       8   53841   53820
   53844       1   53838   53820   53841       2   53838   53820   53844       2
   53838   53850   53868       2   53838   53850   53871       2   53829   53808
   53832       8   53829   53811   53835       8   53823   53802   53826       1
   53820   53802   53823       2   53820   53802   53826       2   53820   53838
   53853       2   53820   53838   53856       2   53811   53796   53814       4
   53802   53820   53841       2   53802   53820   53844       2   53799   53790
   53805       4   53796   53811   53835       4   53793   53808   53832       4
   53790   53799   53817       4   53784   53772   53787       4   53784   53799
   53817       4   53784   53802   53823      12   53784   53802   53826      12
   53781   53796   53814       4   53775   53790   53805       4   53763   53772
   53787       4   54138   54129   54141       1   54135   54129   54138       1
   54135   54129   54141       1   54129   54117   54132       2   54126   54117
   54129       2   54126   54117   54132       1   54120   54114   54123       1
   54117   54114   54120       2   54117   54114   54123       2   54117   54129
   54135       2   54117   54129   54138       2   54117   54129   54141       2
   54114   54117   54126       2   54114   54117   54132       2   54111   54096
   54114       2   54108   54096   54111       1   54108   54096   54114       2
   54099   54078   54102       1   54096   54078   54099       2   54096   54078
   54102       2   54096   54114   54120       2   54096   54114   54123       2
   54087   54066   54090       4   54087   54072   54093       4   54081   54057
   54084       1   54078   54057   54081       2   54078   54057   54084       2
   54078   54096   54108       2   54078   54096   54111       2   54072   54054
   54075       4   54072   54087   54105       4   54066   54051   54069       4
   54066   54087   54105       4   54060   54042   54063       1   54057   54042
   54060       2   54057   54042   54063       2   54057   54078   54099       2
   54057   54078   54102       2   54054   54072   54093       4   54051   54066
   54090       4   54045   54030   54048       1   54042   54030   54045       2
   54042   54030   54048       2   54042   54057   54081       2   54042   54057
   54084       2   54039   54051   54069       8   54039   54054   54075       8
   54033   54012   54036       1   54030   54012   54033       2   54030   54012
   54036       2   54030   54042   54060       2   54030   54042   54063       2
   54021   54000   54024       8   54021   54003   54027       8   54015   53994
   54018       1   54012   53994   54015       2   54012   53994   54018       2
   54012   54030   54045       2   54012   54030   54048       2   54003   53988
   54006       4   53994   54012   54033       2   53994   54012   54036       2
   53991   53982   53997       4   53988   54003   54027       4   53985   54000
   54024       4   53982   53991   54009       4   53976   53964   53979       4
   53976   53991   54009       4   53976   53994   54015      12   53976   53994
   54018      12   53973   53988   54006       4   53967   53982   53997       4
   53955   53964   53979       4   54330   54321   54333       1   54327   54321
   54330       1   54327   54321   54333       1   54321   54309   54324       2
   54318   54309   54321       2   54318   54309   54324       1   54312   54306
   54315       1   54309   54306   54312       2   54309   54306   54315       2
   54309   54321   54327       2   54309   54321   54330       2   54309   54321
   54333       2   54306   54309   54318       2   54306   54309   54324       2
   54303   54288   54306       2   54300   54288   54303       1   54300   54288
   54306       2   54291   54270   54294       1   54288   54270   54291       2
   54288   54270   54294       2   54288   54306   54312       2   54288   54306
   54315       2   54279   54258   54282       4   54279   54264   54285       4
   54273   54249   54276       1   54270   54249   54273       2   54270   54249
   54276       2   54270   54288   54300       2   54270   54288   54303       2
   54264   54246   54267       4   54264   54279   54297       4   54258   54243
   54261       4   54258   54279   54297       4   54252   54234   54255       1
   54249   54234   54252       2   54249   54234   54255       2   54249   54270
   54291       2   54249   54270   54294       2   54246   54264   54285       4
   54243   54258   54282       4   54237   54222   54240       1   54234   54222
   54237       2   54234   54222   54240       2   54234   54249   54273       2
   54234   54249   54276       2   54231   54243   54261       8   54231   54246
   54267       8   54225   54204   54228       1   54222   54204   54225       2
   54222   54204   54228       2   54222   54234   54252       2   54222   54234
   54255       2   54213   54192   54216       8   54213   54195   54219       8
   54207   54186   54210       1   54204   54186   54207       2   54204   54186
   54210       2   54204   54222   54237       2   54204   54222   54240       2
   54195   54180   54198       4   54186   54204   54225       2   54186   54204
   54228       2   54183   54174   54189       4   54180   54195   54219       4
   54177   54192   54216       4   54174   54183   54201       4   54168   54156
   54171       4   54168   54183   54201       4   54168   54186   54207      12
   54168   54186   54210      12   54165   54180   54198       4   54159   54174
   54189       4   54147   54156   54171       4   54522   54513   54525       1
   54519   54513   54522       1   54519   54513   54525       1   54513   54501
   54516       2   54510   54501   54513       2   54510   54501   54516       1
   54504   54498   54507       1   54501   54498   54504       2   54501   54498
   54507       2   54501   54513   54519       2   54501   54513   54522       2
   54501   54513   54525       2   54498   54501   54510       2   54498   54501
   54516       2   54495   54480   54498       2   54492   54480   54495       1
   54492   54480   54498       2   54483   54462   54486       1   54480   54462
   54483       2   54480   54462   54486       2   54480   54498   54504       2
   54480   54498   54507       2   54471   54450   54474       4   54471   54456
   54477       4   54465   54441   54468       1   54462   54441   54465       2
   54462   54441   54468       2   54462   54480   54492       2   54462   54480
   54495       2   54456   54438   54459       4   54456   54471   54489       4
   54450   54435   54453       4   54450   54471   54489       4   54444   54426
   54447       1   54441   54426   54444       2   54441   54426   54447       2
   54441   54462   54483       2   54441   54462   54486       2   54438   54456
   54477       4   54435   54450   54474       4   54429   54414   54432       1
   54426   54414   54429       2   54426   54414   54432       2   54426   54441
   54465       2   54426   54441   54468       2   54423   54435   54453       8
   54423   54438   54459       8   54417   54396   54420       1   54414   54396
   54417       2   54414   54396   54420       2   54414   54426   54444       2
   54414   54426   54447       2   54405   54384   54408       8   54405   54387
   54411       8   54399   54378   54402       1   54396   54378   54399       2
   54396   54378   54402       2   54396   54414   54429       2   54396   54414
   54432       2   54387   54372   54390       4   54378   54396   54417       2
   54378   54396   54420       2   54375   54366   54381       4   54372   54387
   54411       4   54369   54384   54408       4   54366   54375   54393       4
   54360   54348   54363       4   54360   54375   54393       4   54360   54378
   54399      12   54360   54378   54402      12   54357   54372   54390       4
   54351   54366   54381       4   54339   54348   54363       4   54714   54705
   54717       1   54711   54705   54714       1   54711   54705   54717       1
   54705   54693   54708       2   54702   54693   54705       2   54702   54693
   54708       1   54696   54690   54699       1   54693   54690   54696       2
   54693   54690   54699       2   54693   54705   54711       2   54693   54705
   54714       2   54693   54705   54717       2   54690   54693   54702       2
   54690   54693   54708       2   54687   54672   54690       2   54684   54672
   54687       1   54684   54672   54690       2   54675   54654   54678       1
   54672   54654   54675       2   54672   54654   54678       2   54672   54690
   54696       2   54672   54690   54699       2   54663   54642   54666       4
   54663   54648   54669       4   54657   54633   54660       1   54654   54633
   54657       2   54654   54633   54660       2   54654   54672   54684       2
   54654   54672   54687       2   54648   54630   54651       4   54648   54663
   54681       4   54642   54627   54645       4   54642   54663   54681       4
   54636   54618   54639       1   54633   54618   54636       2   54633   54618
   54639       2   54633   54654   54675       2   54633   54654   54678       2
   54630   54648   54669       4   54627   54642   54666       4   54621   54606
   54624       1   54618   54606   54621       2   54618   54606   54624       2
   54618   54633   54657       2   54618   54633   54660       2   54615   54627
   54645       8   54615   54630   54651       8   54609   54588   54612       1
   54606   54588   54609       2   54606   54588   54612       2   54606   54618
   54636       2   54606   54618   54639       2   54597   54576   54600       8
   54597   54579   54603       8   54591   54570   54594       1   54588   54570
   54591       2   54588   54570   54594       2   54588   54606   54621       2
   54588   54606   54624       2   54579   54564   54582       4   54570   54588
   54609       2   54570   54588   54612       2   54567   54558   54573       4
   54564   54579   54603       4   54561   54576   54600       4   54558   54567
   54585       4   54552   54540   54555       4   54552   54567   54585       4
   54552   54570   54591      12   54552   54570   54594      12   54549   54564
   54582       4   54543   54558   54573       4   54531   54540   54555       4
   54906   54897   54909       1   54903   54897   54906       1   54903   54897
   54909       1   54897   54885   54900       2   54894   54885   54897       2
   54894   54885   54900       1   54888   54882   54891       1   54885   54882
   54888       2   54885   54882   54891       2   54885   54897   54903       2
   54885   54897   54906       2   54885   54897   54909       2   54882   54885
   54894       2   54882   54885   54900       2   54879   54864   54882       2
   54876   54864   54879       1   54876   54864   54882       2   54867   54846
   54870       1   54864   54846   54867       2   54864   54846   54870       2
   54864   54882   54888       2   54864   54882   54891       2   54855   54834
   54858       4   54855   54840   54861       4   54849   54825   54852       1
   54846   54825   54849       2   54846   54825   54852       2   54846   54864
   54876       2   54846   54864   54879       2   54840   54822   54843       4
   54840   54855   54873       4   54834   54819   54837       4   54834   54855
   54873       4   54828   54810   54831       1   54825   54810   54828       2
   54825   54810   54831       2   54825   54846   54867       2   54825   54846
   54870       2   54822   54840   54861       4   54819   54834   54858       4
   54813   54798   54816       1   54810   54798   54813       2   54810   54798
   54816       2   54810   54825   54849       2   54810   54825   54852       2
   54807   54819   54837       8   54807   54822   54843       8   54801   54780
   54804       1   54798   54780   54801       2   54798   54780   54804       2
   54798   54810   54828       2   54798   54810   54831       2   54789   54768
   54792       8   54789   54771   54795       8   54783   54762   54786       1
   54780   54762   54783       2   54780   54762   54786       2   54780   54798
   54813       2   54780   54798   54816       2   54771   54756   54774       4
   54762   54780   54801       2   54762   54780   54804       2   54759   54750
   54765       4   54756   54771   54795       4   54753   54768   54792       4
   54750   54759   54777       4   54744   54732   54747       4   54744   54759
   54777       4   54744   54762   54783      12   54744   54762   54786      12
   54741   54756   54774       4   54735   54750   54765       4   54723   54732
   54747       4   55098   55089   55101       1   55095   55089   55098       1
   55095   55089   55101       1   55089   55077   55092       2   55086   55077
   55089       2   55086   55077   55092       1   55080   55074   55083       1
   55077   55074   55080       2   55077   55074   55083       2   55077   55089
   55095       2   55077   55089   55098       2   55077   55089   55101       2
   55074   55077   55086       2   55074   55077   55092       2   55071   55056
   55074       2   55068   55056   55071       1   55068   55056   55074       2
   55059   55038   55062       1   55056   55038   55059       2   55056   55038
   55062       2   55056   55074   55080       2   55056   55074   55083       2
   55047   55026   55050       4   55047   55032   55053       4   55041   55017
   55044       1   55038   55017   55041       2   55038   55017   55044       2
   55038   55056   55068       2   55038   55056   55071       2   55032   55014
   55035       4   55032   55047   55065       4   55026   55011   55029       4
   55026   55047   55065       4   55020   55002   55023       1   55017   55002
   55020       2   55017   55002   55023       2   55017   55038   55059       2
   55017   55038   55062       2   55014   55032   55053       4   55011   55026
   55050       4   55005   54990   55008       1   55002   54990   55005       2
   55002   54990   55008       2   55002   55017   55041       2   55002   55017
   55044       2   54999   55011   55029       8   54999   55014   55035       8
   54993   54972   54996       1   54990   54972   54993       2   54990   54972
   54996       2   54990   55002   55020       2   54990   55002   55023       2
   54981   54960   54984       8   54981   54963   54987       8   54975   54954
   54978       1   54972   54954   54975       2   54972   54954   54978       2
   54972   54990   55005       2   54972   54990   55008       2   54963   54948
   54966       4   54954   54972   54993       2   54954   54972   54996       2
   54951   54942   54957       4   54948   54963   54987       4   54945   54960
   54984       4   54942   54951   54969       4   54936   54924   54939       4
   54936   54951   54969       4   54936   54954   54975      12   54936   54954
   54978      12   54933   54948   54966       4   54927   54942   54957       4
   54915   54924   54939       4   55290   55281   55293       1   55287   55281
   55290       1   55287   55281   55293       1   55281   55269   55284       2
   55278   55269   55281       2   55278   55269   55284       1   55272   55266
   55275       1   55269   55266   55272       2   55269   55266   55275       2
   55269   55281   55287       2   55269   55281   55290       2   55269   55281
   55293       2   55266   55269   55278       2   55266   55269   55284       2
   55263   55248   55266       2   55260   55248   55263       1   55260   55248
   55266       2   55251   55230   55254       1   55248   55230   55251       2
   55248   55230   55254       2   55248   55266   55272       2   55248   55266
   55275       2   55239   55218   55242       4   55239   55224   55245       4
   55233   55209   55236       1   55230   55209   55233       2   55230   55209
   55236       2   55230   55248   55260       2   55230   55248   55263       2
   55224   55206   55227       4   55224   55239   55257       4   55218   55203
   55221       4   55218   55239   55257       4   55212   55194   55215       1
   55209   55194   55212       2   55209   55194   55215       2   55209   55230
   55251       2   55209   55230   55254       2   55206   55224   55245       4
   55203   55218   55242       4   55197   55182   55200       1   55194   55182
   55197       2   55194   55182   55200       2   55194   55209   55233       2
   55194   55209   55236       2   55191   55203   55221       8   55191   55206
   55227       8   55185   55164   55188       1   55182   55164   55185       2
   55182   55164   55188       2   55182   55194   55212       2   55182   55194
   55215       2   55173   55152   55176       8   55173   55155   55179       8
   55167   55146   55170       1   55164   55146   55167       2   55164   55146
   55170       2   55164   55182   55197       2   55164   55182   55200       2
   55155   55140   55158       4   55146   55164   55185       2   55146   55164
   55188       2   55143   55134   55149       4   55140   55155   55179       4
   55137   55152   55176       4   55134   55143   55161       4   55128   55116
   55131       4   55128   55143   55161       4   55128   55146   55167      12
   55128   55146   55170      12   55125   55140   55158       4   55119   55134
   55149       4   55107   55116   55131       4
%FLAG ANGLES_WITHOUT_HYDROGEN                                                   
%FORMAT(10I8)                                                                   
     162     165     177       3     144     162     165       3     126     144
     162       3     114     135     120       5     105     126     144       3
     102     120     135       5      99      87     102       6      99     114
     135       5      90     105     126       3      87      99     114       7
      87     102     120       7      78      90     105       3      69      87
      99       9      69      87     102       9      60      78      90       3
      51      69      87       9      48      69      51       6      48      69
      87       9      42      60      78       3      39      24      42      10
      36      51      69       7      33      21      36       5      33      48
      69       7      24      39      30       5      24      42      60      11
      21      33      48       5      21      36      51       5      18      33
      21      13      18      33      48      13      15       6      18      14
      15      30      39       5      12       3      15       5      12      24
      39       5      12      24      42      10       9       6      15      15
       9       6      18      16       9      21      33      17       9      21
      36      17       6       0       9      18       6       9      21      19
       6      15      30      20       6      18      33      21       3       0
       6      22       3       0       9      23       3      12      24       5
       3      15       6      20       3      15      30       5       0       3
      12      24       0       3      15      24       0       6       9      25
       0       6      15      26       0       6      18      27       0       9
       6      28       0       9      21      29     354     357     369       3
     336     354     357       3     318     336     354       3     306     327
     312       5     297     318     336       3     294     312     327       5
     291     279     294       6     291     306     327       5     282     297
     318       3     279     291     306       7     279     294     312       7
     270     282     297       3     261     279     291       9     261     279
     294       9     252     270     282       3     243     261     279       9
     240     261     243       6     240     261     279       9     234     252
     270       3     231     216     234      10     228     243     261       7
     225     213     228       5     225     240     261       7     216     231
     222       5     216     234     252      11     213     225     240       5
     213     228     243       5     210     225     213      13     210     225
     240      13     207     198     210      14     207     222     231       5
     204     195     207       5     204     216     231       5     204     216
     234      10     201     198     207      15     201     198     210      16
     201     213     225      17     201     213     228      17     198     192
     201      18     198     201     213      19     198     207     222      20
     198     210     225      21     195     192     198      22     195     192
     201      23     195     204     216       5     195     207     198      20
     195     207     222       5     192     195     204      24     192     195
     207      24     192     198     201      25     192     198     207      26
     192     198     210      27     192     201     198      28     192     201
     213      29     546     549     561       3     528     546     549       3
     510     528     546       3     498     519     504       5     489     510
     528       3     486     504     519       5     483     471     486       6
     483     498     519       5     474     489     510       3     471     483
     498       7     471     486     504       7     462     474     489       3
     453     471     483       9     453     471     486       9     444     462
     474       3     435     453     471       9     432     453     435       6
     432     453     471       9     426     444     462       3     423     408
     426      10     420     435     453       7     417     405     420       5
     417     432     453       7     408     423     414       5     408     426
     444      11     405     417     432       5     405     420     435       5
     402     417     405      13     402     417     432      13     399     390
     402      14     399     414     423       5     396     387     399       5
     396     408     423       5     396     408     426      10     393     390
     399      15     393     390     402      16     393     405     417      17
     393     405     420      17     390     384     393      18     390     393
     405      19     390     399     414      20     390     402     417      21
     387     384     390      22     387     384     393      23     387     396
     408       5     387     399     390      20     387     399     414       5
     384     387     396      24     384     387     399      24     384     390
     393      25     384     390     399      26     384     390     402      27
     384     393     390      28     384     393     405      29     738     741
     753       3     720     738     741       3     702     720     738       3
     690     711     696       5     681     702     720       3     678     696
     711       5     675     663     678       6     675     690     711       5
     666     681     702       3     663     675     690       7     663     678
     696       7     654     666     681       3     645     663     675       9
     645     663     678       9     636     654     666       3     627     645
     663       9     624     645     627       6     624     645     663       9
     618     636     654       3     615     600     618      10     612     627
     645       7     609     597     612       5     609     624     645       7
     600     615     606       5     600     618     636      11     597     609
     624       5     597     612     627       5     594     609     597      13
     594     609     624      13     591     582     594      14     591     606
     615       5     588     579     591       5     588     600     615       5
     588     600     618      10     585     582     591      15     585     582
     594      16     585     597     609      17     585     597     612      17
     582     576     585      18     582     585     597      19     582     591
     606      20     582     594     609      21     579     576     582      22
     579     576     585      23     579     588     600       5     579     591
     582      20     579     591     606       5     576     579     588      24
     576     579     591      24     576     582     585      25     576     582
     591      26     576     582     594      27     576     585     582      28
     576     585     597      29     930     933     945       3     912     930
     933       3     894     912     930       3     882     903     888       5
     873     894     912       3     870     888     903       5     867     855
     870       6     867     882     903       5     858     873     894       3
     855     867     882       7     855     870     888       7     846     858
     873       3     837     855     867       9     837     855     870       9
     828     846     858       3     819     837     855       9     816     837
     819       6     816     837     855       9     810     828     846       3
     807     792     810      10     804     819     837       7     801     789
     804       5     801     816     837       7     792     807     798       5
     792     810     828      11     789     801     816       5     789     804
     819       5     786     801     789      13     786     801     816      13
     783     774     786      14     783     798     807       5     780     771
     783       5     780     792     807       5     780     792     810      10
     777     774     783      15     777     774     786      16     777     789
     801      17     777     789     804      17     774     768     777      18
     774     777     789      19     774     783     798      20     774     786
     801      21     771     768     774      22     771     768     777      23
     771     780     792       5     771     783     774      20     771     783
     798       5     768     771     780      24     768     771     783      24
     768     774     777      25     768     774     783      26     768     774
     786      27     768     777     774      28     768     777     789      29
    1122    1125    1137       3    1104    1122    1125       3    1086    1104
    1122       3    1074    1095    1080       5    1065    1086    1104       3
    1062    1080    1095       5    1059    1047    1062       6    1059    1074
    1095       5    1050    1065    1086       3    1047    1059    1074       7
    1047    1062    1080       7    1038    1050    1065       3    1029    1047
    1059       9    1029    1047    1062       9    1020    1038    1050       3
    1011    1029    1047       9    1008    1029    1011       6    1008    1029
    1047       9    1002    1020    1038       3     999     984    1002      10
     996    1011    1029       7     993     981     996       5     993    1008
    1029       7     984     999     990       5     984    1002    1020      11
     981     993    1008       5     981     996    1011       5     978     993
     981      13     978     993    1008      13     975     966     978      14
     975     990     999       5     972     963     975       5     972     984
     999       5     972     984    1002      10     969     966     975      15
     969     966     978      16     969     981     993      17     969     981
     996      17     966     960     969      18     966     969     981      19
     966     975     990      20     966     978     993      21     963     960
     966      22     963     960     969      23     963     972     984       5
     963     975     966      20     963     975     990       5     960     963
     972      24     960     963     975      24     960     966     969      25
     960     966     975      26     960     966     978      27     960     969
     966      28     960     969     981      29    1314    1317    1329       3
    1296    1314    1317       3    1278    1296    1314       3    1266    1287
    1272       5    1257    1278    1296       3    1254    1272    1287       5
    1251    1239    1254       6    1251    1266    1287       5    1242    1257
    1278       3    1239    1251    1266       7    1239    1254    1272       7
    1230    1242    1257       3    1221    1239    1251       9    1221    1239
    1254       9    1212    1230    1242       3    1203    1221    1239       9
    1200    1221    1203       6    1200    1221    1239       9    1194    1212
    1230       3    1191    1176    1194      10    1188    1203    1221       7
    1185    1173    1188       5    1185    1200    1221       7    1176    1191
    1182       5    1176    1194    1212      11    1173    1185    1200       5
    1173    1188    1203       5    1170    1185    1173      13    1170    1185
    1200      13    1167    1158    1170      14    1167    1182    1191       5
    1164    1155    1167       5    1164    1176    1191       5    1164    1176
    1194      10    1161    1158    1167      15    1161    1158    1170      16
    1161    1173    1185      17    1161    1173    1188      17    1158    1152
    1161      18    1158    1161    1173      19    1158    1167    1182      20
    1158    1170    1185      21    1155    1152    1158      22    1155    1152
    1161      23    1155    1164    1176       5    1155    1167    1158      20
    1155    1167    1182       5    1152    1155    1164      24    1152    1155
    1167      24    1152    1158    1161      25    1152    1158    1167      26
    1152    1158    1170      27    1152    1161    1158      28    1152    1161
    1173      29    1506    1509    1521       3    1488    1506    1509       3
    1470    1488    1506       3    1458    1479    1464       5    1449    1470
    1488       3    1446    1464    1479       5    1443    1431    1446       6
    1443    1458    1479       5    1434    1449    1470       3    1431    1443
    1458       7    1431    1446    1464       7    1422    1434    1449       3
    1413    1431    1443       9    1413    1431    1446       9    1404    1422
    1434       3    1395    1413    1431       9    1392    1413    1395       6
    1392    1413    1431       9    1386    1404    1422       3    1383    1368
    1386      10    1380    1395    1413       7    1377    1365    1380       5
    1377    1392    1413       7    1368    1383    1374       5    1368    1386
    1404      11    1365    1377    1392       5    1365    1380    1395       5
    1362    1377    1365      13    1362    1377    1392      13    1359    1350
    1362      14    1359    1374    1383       5    1356    1347    1359       5
    1356    1368    1383       5    1356    1368    1386      10    1353    1350
    1359      15    1353    1350    1362      16    1353    1365    1377      17
    1353    1365    1380      17    1350    1344    1353      18    1350    1353
    1365      19    1350    1359    1374      20    1350    1362    1377      21
    1347    1344    1350      22    1347    1344    1353      23    1347    1356
    1368       5    1347    1359    1350      20    1347    1359    1374       5
    1344    1347    1356      24    1344    1347    1359      24    1344    1350
    1353      25    1344    1350    1359      26    1344    1350    1362      27
    1344    1353    1350      28    1344    1353    1365      29    1698    1701
    1713       3    1680    1698    1701       3    1662    1680    1698       3
    1650    1671    1656       5    1641    1662    1680       3    1638    1656
    1671       5    1635    1623    1638       6    1635    1650    1671       5
    1626    1641    1662       3    1623    1635    1650       7    1623    1638
    1656       7    1614    1626    1641       3    1605    1623    1635       9
    1605    1623    1638       9    1596    1614    1626       3    1587    1605
    1623       9    1584    1605    1587       6    1584    1605    1623       9
    1578    1596    1614       3    1575    1560    1578      10    1572    1587
    1605       7    1569    1557    1572       5    1569    1584    1605       7
    1560    1575    1566       5    1560    1578    1596      11    1557    1569
    1584       5    1557    1572    1587       5    1554    1569    1557      13
    1554    1569    1584      13    1551    1542    1554      14    1551    1566
    1575       5    1548    1539    1551       5    1548    1560    1575       5
    1548    1560    1578      10    1545    1542    1551      15    1545    1542
    1554      16    1545    1557    1569      17    1545    1557    1572      17
    1542    1536    1545      18    1542    1545    1557      19    1542    1551
    1566      20    1542    1554    1569      21    1539    1536    1542      22
    1539    1536    1545      23    1539    1548    1560       5    1539    1551
    1542      20    1539    1551    1566       5    1536    1539    1548      24
    1536    1539    1551      24    1536    1542    1545      25    1536    1542
    1551      26    1536    1542    1554      27    1536    1545    1542      28
    1536    1545    1557      29    1890    1893    1905       3    1872    1890
    1893       3    1854    1872    1890       3    1842    1863    1848       5
    1833    1854    1872       3    1830    1848    1863       5    1827    1815
    1830       6    1827    1842    1863       5    1818    1833    1854       3
    1815    1827    1842       7    1815    1830    1848       7    1806    1818
    1833       3    1797    1815    1827       9    1797    1815    1830       9
    1788    1806    1818       3    1779    1797    1815       9    1776    1797
    1779       6    1776    1797    1815       9    1770    1788    1806       3
    1767    1752    1770      10    1764    1779    1797       7    1761    1749
    1764       5    1761    1776    1797       7    1752    1767    1758       5
    1752    1770    1788      11    1749    1761    1776       5    1749    1764
    1779       5    1746    1761    1749      13    1746    1761    1776      13
    1743    1734    1746      14    1743    1758    1767       5    1740    1731
    1743       5    1740    1752    1767       5    1740    1752    1770      10
    1737    1734    1743      15    1737    1734    1746      16    1737    1749
    1761      17    1737    1749    1764      17    1734    1728    1737      18
    1734    1737    1749      19    1734    1743    1758      20    1734    1746
    1761      21    1731    1728    1734      22    1731    1728    1737      23
    1731    1740    1752       5    1731    1743    1734      20    1731    1743
    1758       5    1728    1731    1740      24    1728    1731    1743      24
    1728    1734    1737      25    1728    1734    1743      26    1728    1734
    1746      27    1728    1737    1734      28    1728    1737    1749      29
    2082    2085    2097       3    2064    2082    2085       3    2046    2064
    2082       3    2034    2055    2040       5    2025    2046    2064       3
    2022    2040    2055       5    2019    2007    2022       6    2019    2034
    2055       5    2010    2025    2046       3    2007    2019    2034       7
    2007    2022    2040       7    1998    2010    2025       3    1989    2007
    2019       9    1989    2007    2022       9    1980    1998    2010       3
    1971    1989    2007       9    1968    1989    1971       6    1968    1989
    2007       9    1962    1980    1998       3    1959    1944    1962      10
    1956    1971    1989       7    1953    1941    1956       5    1953    1968
    1989       7    1944    1959    1950       5    1944    1962    1980      11
    1941    1953    1968       5    1941    1956    1971       5    1938    1953
    1941      13    1938    1953    1968      13    1935    1926    1938      14
    1935    1950    1959       5    1932    1923    1935       5    1932    1944
    1959       5    1932    1944    1962      10    1929    1926    1935      15
    1929    1926    1938      16    1929    1941    1953      17    1929    1941
    1956      17    1926    1920    1929      18    1926    1929    1941      19
    1926    1935    1950      20    1926    1938    1953      21    1923    1920
    1926      22    1923    1920    1929      23    1923    1932    1944       5
    1923    1935    1926      20    1923    1935    1950       5    1920    1923
    1932      24    1920    1923    1935      24    1920    1926    1929      25
    1920    1926    1935      26    1920    1926    1938      27    1920    1929
    1926      28    1920    1929    1941      29    2274    2277    2289       3
    2256    2274    2277       3    2238    2256    2274       3    2226    2247
    2232       5    2217    2238    2256       3    2214    2232    2247       5
    2211    2199    2214       6    2211    2226    2247       5    2202    2217
    2238       3    2199    2211    2226       7    2199    2214    2232       7
    2190    2202    2217       3    2181    2199    2211       9    2181    2199
    2214       9    2172    2190    2202       3    2163    2181    2199       9
    2160    2181    2163       6    2160    2181    2199       9    2154    2172
    2190       3    2151    2136    2154      10    2148    2163    2181       7
    2145    2133    2148       5    2145    2160    2181       7    2136    2151
    2142       5    2136    2154    2172      11    2133    2145    2160       5
    2133    2148    2163       5    2130    2145    2133      13    2130    2145
    2160      13    2127    2118    2130      14    2127    2142    2151       5
    2124    2115    2127       5    2124    2136    2151       5    2124    2136
    2154      10    2121    2118    2127      15    2121    2118    2130      16
    2121    2133    2145      17    2121    2133    2148      17    2118    2112
    2121      18    2118    2121    2133      19    2118    2127    2142      20
    2118    2130    2145      21    2115    2112    2118      22    2115    2112
    2121      23    2115    2124    2136       5    2115    2127    2118      20
    2115    2127    2142       5    2112    2115    2124      24    2112    2115
    2127      24    2112    2118    2121      25    2112    2118    2127      26
    2112    2118    2130      27    2112    2121    2118      28    2112    2121
    2133      29    2466    2469    2481       3    2448    2466    2469       3
    2430    2448    2466       3    2418    2439    2424       5    2409    2430
    2448       3    2406    2424    2439       5    2403    2391    2406       6
    2403    2418    2439       5    2394    2409    2430       3    2391    2403
    2418       7    2391    2406    2424       7    2382    2394    2409       3
    2373    2391    2403       9    2373    2391    2406       9    2364    2382
    2394       3    2355    2373    2391       9    2352    2373    2355       6
    2352    2373    2391       9    2346    2364    2382       3    2343    2328
    2346      10    2340    2355    2373       7    2337    2325    2340       5
    2337    2352    2373       7    2328    2343    2334       5    2328    2346
    2364      11    2325    2337    2352       5    2325    2340    2355       5
    2322    2337    2325      13    2322    2337    2352      13    2319    2310
    2322      14    2319    2334    2343       5    2316    2307    2319       5
    2316    2328    2343       5    2316    2328    2346      10    2313    2310
    2319      15    2313    2310    2322      16    2313    2325    2337      17
    2313    2325    2340      17    2310    2304    2313      18    2310    2313
    2325      19    2310    2319    2334      20    2310    2322    2337      21
    2307    2304    2310      22    2307    2304    2313      23    2307    2316
    2328       5    2307    2319    2310      20    2307    2319    2334       5
    2304    2307    2316      24    2304    2307    2319      24    2304    2310
    2313      25    2304    2310    2319      26    2304    2310    2322      27
    2304    2313    2310      28    2304    2313    2325      29    2658    2661
    2673       3    2640    2658    2661       3    2622    2640    2658       3
    2610    2631    2616       5    2601    2622    2640       3    2598    2616
    2631       5    2595    2583    2598       6    2595    2610    2631       5
    2586    2601    2622       3    2583    2595    2610       7    2583    2598
    2616       7    2574    2586    2601       3    2565    2583    2595       9
    2565    2583    2598       9    2556    2574    2586       3    2547    2565
    2583       9    2544    2565    2547       6    2544    2565    2583       9
    2538    2556    2574       3    2535    2520    2538      10    2532    2547
    2565       7    2529    2517    2532       5    2529    2544    2565       7
    2520    2535    2526       5    2520    2538    2556      11    2517    2529
    2544       5    2517    2532    2547       5    2514    2529    2517      13
    2514    2529    2544      13    2511    2502    2514      14    2511    2526
    2535       5    2508    2499    2511       5    2508    2520    2535       5
    2508    2520    2538      10    2505    2502    2511      15    2505    2502
    2514      16    2505    2517    2529      17    2505    2517    2532      17
    2502    2496    2505      18    2502    2505    2517      19    2502    2511
    2526      20    2502    2514    2529      21    2499    2496    2502      22
    2499    2496    2505      23    2499    2508    2520       5    2499    2511
    2502      20    2499    2511    2526       5    2496    2499    2508      24
    2496    2499    2511      24    2496    2502    2505      25    2496    2502
    2511      26    2496    2502    2514      27    2496    2505    2502      28
    2496    2505    2517      29    2850    2853    2865       3    2832    2850
    2853       3    2814    2832    2850       3    2802    2823    2808       5
    2793    2814    2832       3    2790    2808    2823       5    2787    2775
    2790       6    2787    2802    2823       5    2778    2793    2814       3
    2775    2787    2802       7    2775    2790    2808       7    2766    2778
    2793       3    2757    2775    2787       9    2757    2775    2790       9
    2748    2766    2778       3    2739    2757    2775       9    2736    2757
    2739       6    2736    2757    2775       9    2730    2748    2766       3
    2727    2712    2730      10    2724    2739    2757       7    2721    2709
    2724       5    2721    2736    2757       7    2712    2727    2718       5
    2712    2730    2748      11    2709    2721    2736       5    2709    2724
    2739       5    2706    2721    2709      13    2706    2721    2736      13
    2703    2694    2706      14    2703    2718    2727       5    2700    2691
    2703       5    2700    2712    2727       5    2700    2712    2730      10
    2697    2694    2703      15    2697    2694    2706      16    2697    2709
    2721      17    2697    2709    2724      17    2694    2688    2697      18
    2694    2697    2709      19    2694    2703    2718      20    2694    2706
    2721      21    2691    2688    2694      22    2691    2688    2697      23
    2691    2700    2712       5    2691    2703    2694      20    2691    2703
    2718       5    2688    2691    2700      24    2688    2691    2703      24
    2688    2694    2697      25    2688    2694    2703      26    2688    2694
    2706      27    2688    2697    2694      28    2688    2697    2709      29
    3042    3045    3057       3    3024    3042    3045       3    3006    3024
    3042       3    2994    3015    3000       5    2985    3006    3024       3
    2982    3000    3015       5    2979    2967    2982       6    2979    2994
    3015       5    2970    2985    3006       3    2967    2979    2994       7
    2967    2982    3000       7    2958    2970    2985       3    2949    2967
    2979       9    2949    2967    2982       9    2940    2958    2970       3
    2931    2949    2967       9    2928    2949    2931       6    2928    2949
    2967       9    2922    2940    2958       3    2919    2904    2922      10
    2916    2931    2949       7    2913    2901    2916       5    2913    2928
    2949       7    2904    2919    2910       5    2904    2922    2940      11
    2901    2913    2928       5    2901    2916    2931       5    2898    2913
    2901      13    2898    2913    2928      13    2895    2886    2898      14
    2895    2910    2919       5    2892    2883    2895       5    2892    2904
    2919       5    2892    2904    2922      10    2889    2886    2895      15
    2889    2886    2898      16    2889    2901    2913      17    2889    2901
    2916      17    2886    2880    2889      18    2886    2889    2901      19
    2886    2895    2910      20    2886    2898    2913      21    2883    2880
    2886      22    2883    2880    2889      23    2883    2892    2904       5
    2883    2895    2886      20    2883    2895    2910       5    2880    2883
    2892      24    2880    2883    2895      24    2880    2886    2889      25
    2880    2886    2895      26    2880    2886    2898      27    2880    2889
    2886      28    2880    2889    2901      29    3234    3237    3249       3
    3216    3234    3237       3    3198    3216    3234       3    3186    3207
    3192       5    3177    3198    3216       3    3174    3192    3207       5
    3171    3159    3174       6    3171    3186    3207       5    3162    3177
    3198       3    3159    3171    3186       7    3159    3174    3192       7
    3150    3162    3177       3    3141    3159    3171       9    3141    3159
    3174       9    3132    3150    3162       3    3123    3141    3159       9
    3120    3141    3123       6    3120    3141    3159       9    3114    3132
    3150       3    3111    3096    3114      10    3108    3123    3141       7
    3105    3093    3108       5    3105    3120    3141       7    3096    3111
    3102       5    3096    3114    3132      11    3093    3105    3120       5
    3093    3108    3123       5    3090    3105    3093      13    3090    3105
    3120      13    3087    3078    3090      14    3087    3102    3111       5
    3084    3075    3087       5    3084    3096    3111       5    3084    3096
    3114      10    3081    3078    3087      15    3081    3078    3090      16
    3081    3093    3105      17    3081    3093    3108      17    3078    3072
    3081      18    3078    3081    3093      19    3078    3087    3102      20
    3078    3090    3105      21    3075    3072    3078      22    3075    3072
    3081      23    3075    3084    3096       5    3075    3087    3078      20
    3075    3087    3102       5    3072    3075    3084      24    3072    3075
    3087      24    3072    3078    3081      25    3072    3078    3087      26
    3072    3078    3090      27    3072    3081    3078      28    3072    3081
    3093      29    3426    3429    3441       3    3408    3426    3429       3
    3390    3408    3426       3    3378    3399    3384       5    3369    3390
    3408       3    3366    3384    3399       5    3363    3351    3366       6
    3363    3378    3399       5    3354    3369    3390       3    3351    3363
    3378       7    3351    3366    3384       7    3342    3354    3369       3
    3333    3351    3363       9    3333    3351    3366       9    3324    3342
    3354       3    3315    3333    3351       9    3312    3333    3315       6
    3312    3333    3351       9    3306    3324    3342       3    3303    3288
    3306      10    3300    3315    3333       7    3297    3285    3300       5
    3297    3312    3333       7    3288    3303    3294       5    3288    3306
    3324      11    3285    3297    3312       5    3285    3300    3315       5
    3282    3297    3285      13    3282    3297    3312      13    3279    3270
    3282      14    3279    3294    3303       5    3276    3267    3279       5
    3276    3288    3303       5    3276    3288    3306      10    3273    3270
    3279      15    3273    3270    3282      16    3273    3285    3297      17
    3273    3285    3300      17    3270    3264    3273      18    3270    3273
    3285      19    3270    3279    3294      20    3270    3282    3297      21
    3267    3264    3270      22    3267    3264    3273      23    3267    3276
    3288       5    3267    3279    3270      20    3267    3279    3294       5
    3264    3267    3276      24    3264    3267    3279      24    3264    3270
    3273      25    3264    3270    3279      26    3264    3270    3282      27
    3264    3273    3270      28    3264    3273    3285      29    3618    3621
    3633       3    3600    3618    3621       3    3582    3600    3618       3
    3570    3591    3576       5    3561    3582    3600       3    3558    3576
    3591       5    3555    3543    3558       6    3555    3570    3591       5
    3546    3561    3582       3    3543    3555    3570       7    3543    3558
    3576       7    3534    3546    3561       3    3525    3543    3555       9
    3525    3543    3558       9    3516    3534    3546       3    3507    3525
    3543       9    3504    3525    3507       6    3504    3525    3543       9
    3498    3516    3534       3    3495    3480    3498      10    3492    3507
    3525       7    3489    3477    3492       5    3489    3504    3525       7
    3480    3495    3486       5    3480    3498    3516      11    3477    3489
    3504       5    3477    3492    3507       5    3474    3489    3477      13
    3474    3489    3504      13    3471    3462    3474      14    3471    3486
    3495       5    3468    3459    3471       5    3468    3480    3495       5
    3468    3480    3498      10    3465    3462    3471      15    3465    3462
    3474      16    3465    3477    3489      17    3465    3477    3492      17
    3462    3456    3465      18    3462    3465    3477      19    3462    3471
    3486      20    3462    3474    3489      21    3459    3456    3462      22
    3459    3456    3465      23    3459    3468    3480       5    3459    3471
    3462      20    3459    3471    3486       5    3456    3459    3468      24
    3456    3459    3471      24    3456    3462    3465      25    3456    3462
    3471      26    3456    3462    3474      27    3456    3465    3462      28
    3456    3465    3477      29    3810    3813    3825       3    3792    3810
    3813       3    3774    3792    3810       3    3762    3783    3768       5
    3753    3774    3792       3    3750    3768    3783       5    3747    3735
    3750       6    3747    3762    3783       5    3738    3753    3774       3
    3735    3747    3762       7    3735    3750    3768       7    3726    3738
    3753       3    3717    3735    3747       9    3717    3735    3750       9
    3708    3726    3738       3    3699    3717    3735       9    3696    3717
    3699       6    3696    3717    3735       9    3690    3708    3726       3
    3687    3672    3690      10    3684    3699    3717       7    3681    3669
    3684       5    3681    3696    3717       7    3672    3687    3678       5
    3672    3690    3708      11    3669    3681    3696       5    3669    3684
    3699       5    3666    3681    3669      13    3666    3681    3696      13
    3663    3654    3666      14    3663    3678    3687       5    3660    3651
    3663       5    3660    3672    3687       5    3660    3672    3690      10
    3657    3654    3663      15    3657    3654    3666      16    3657    3669
    3681      17    3657    3669    3684      17    3654    3648    3657      18
    3654    3657    3669      19    3654    3663    3678      20    3654    3666
    3681      21    3651    3648    3654      22    3651    3648    3657      23
    3651    3660    3672       5    3651    3663    3654      20    3651    3663
    3678       5    3648    3651    3660      24    3648    3651    3663      24
    3648    3654    3657      25    3648    3654    3663      26    3648    3654
    3666      27    3648    3657    3654      28    3648    3657    3669      29
    4002    4005    4017       3    3984    4002    4005       3    3966    3984
    4002       3    3954    3975    3960       5    3945    3966    3984       3
    3942    3960    3975       5    3939    3927    3942       6    3939    3954
    3975       5    3930    3945    3966       3    3927    3939    3954       7
    3927    3942    3960       7    3918    3930    3945       3    3909    3927
    3939       9    3909    3927    3942       9    3900    3918    3930       3
    3891    3909    3927       9    3888    3909    3891       6    3888    3909
    3927       9    3882    3900    3918       3    3879    3864    3882      10
    3876    3891    3909       7    3873    3861    3876       5    3873    3888
    3909       7    3864    3879    3870       5    3864    3882    3900      11
    3861    3873    3888       5    3861    3876    3891       5    3858    3873
    3861      13    3858    3873    3888      13    3855    3846    3858      14
    3855    3870    3879       5    3852    3843    3855       5    3852    3864
    3879       5    3852    3864    3882      10    3849    3846    3855      15
    3849    3846    3858      16    3849    3861    3873      17    3849    3861
    3876      17    3846    3840    3849      18    3846    3849    3861      19
    3846    3855    3870      20    3846    3858    3873      21    3843    3840
    3846      22    3843    3840    3849      23    3843    3852    3864       5
    3843    3855    3846      20    3843    3855    3870       5    3840    3843
    3852      24    3840    3843    3855      24    3840    3846    3849      25
    3840    3846    3855      26    3840    3846    3858      27    3840    3849
    3846      28    3840    3849    3861      29    4194    4197    4209       3
    4176    4194    4197       3    4158    4176    4194       3    4146    4167
    4152       5    4137    4158    4176       3    4134    4152    4167       5
    4131    4119    4134       6    4131    4146    4167       5    4122    4137
    4158       3    4119    4131    4146       7    4119    4134    4152       7
    4110    4122    4137       3    4101    4119    4131       9    4101    4119
    4134       9    4092    4110    4122       3    4083    4101    4119       9
    4080    4101    4083       6    4080    4101    4119       9    4074    4092
    4110       3    4071    4056    4074      10    4068    4083    4101       7
    4065    4053    4068       5    4065    4080    4101       7    4056    4071
    4062       5    4056    4074    4092      11    4053    4065    4080       5
    4053    4068    4083       5    4050    4065    4053      13    4050    4065
    4080      13    4047    4038    4050      14    4047    4062    4071       5
    4044    4035    4047       5    4044    4056    4071       5    4044    4056
    4074      10    4041    4038    4047      15    4041    4038    4050      16
    4041    4053    4065      17    4041    4053    4068      17    4038    4032
    4041      18    4038    4041    4053      19    4038    4047    4062      20
    4038    4050    4065      21    4035    4032    4038      22    4035    4032
    4041      23    4035    4044    4056       5    4035    4047    4038      20
    4035    4047    4062       5    4032    4035    4044      24    4032    4035
    4047      24    4032    4038    4041      25    4032    4038    4047      26
    4032    4038    4050      27    4032    4041    4038      28    4032    4041
    4053      29    4386    4389    4401       3    4368    4386    4389       3
    4350    4368    4386       3    4338    4359    4344       5    4329    4350
    4368       3    4326    4344    4359       5    4323    4311    4326       6
    4323    4338    4359       5    4314    4329    4350       3    4311    4323
    4338       7    4311    4326    4344       7    4302    4314    4329       3
    4293    4311    4323       9    4293    4311    4326       9    4284    4302
    4314       3    4275    4293    4311       9    4272    4293    4275       6
    4272    4293    4311       9    4266    4284    4302       3    4263    4248
    4266      10    4260    4275    4293       7    4257    4245    4260       5
    4257    4272    4293       7    4248    4263    4254       5    4248    4266
    4284      11    4245    4257    4272       5    4245    4260    4275       5
    4242    4257    4245      13    4242    4257    4272      13    4239    4230
    4242      14    4239    4254    4263       5    4236    4227    4239       5
    4236    4248    4263       5    4236    4248    4266      10    4233    4230
    4239      15    4233    4230    4242      16    4233    4245    4257      17
    4233    4245    4260      17    4230    4224    4233      18    4230    4233
    4245      19    4230    4239    4254      20    4230    4242    4257      21
    4227    4224    4230      22    4227    4224    4233      23    4227    4236
    4248       5    4227    4239    4230      20    4227    4239    4254       5
    4224    4227    4236      24    4224    4227    4239      24    4224    4230
    4233      25    4224    4230    4239      26    4224    4230    4242      27
    4224    4233    4230      28    4224    4233    4245      29    4578    4581
    4593       3    4560    4578    4581       3    4542    4560    4578       3
    4530    4551    4536       5    4521    4542    4560       3    4518    4536
    4551       5    4515    4503    4518       6    4515    4530    4551       5
    4506    4521    4542       3    4503    4515    4530       7    4503    4518
    4536       7    4494    4506    4521       3    4485    4503    4515       9
    4485    4503    4518       9    4476    4494    4506       3    4467    4485
    4503       9    4464    4485    4467       6    4464    4485    4503       9
    4458    4476    4494       3    4455    4440    4458      10    4452    4467
    4485       7    4449    4437    4452       5    4449    4464    4485       7
    4440    4455    4446       5    4440    4458    4476      11    4437    4449
    4464       5    4437    4452    4467       5    4434    4449    4437      13
    4434    4449    4464      13    4431    4422    4434      14    4431    4446
    4455       5    4428    4419    4431       5    4428    4440    4455       5
    4428    4440    4458      10    4425    4422    4431      15    4425    4422
    4434      16    4425    4437    4449      17    4425    4437    4452      17
    4422    4416    4425      18    4422    4425    4437      19    4422    4431
    4446      20    4422    4434    4449      21    4419    4416    4422      22
    4419    4416    4425      23    4419    4428    4440       5    4419    4431
    4422      20    4419    4431    4446       5    4416    4419    4428      24
    4416    4419    4431      24    4416    4422    4425      25    4416    4422
    4431      26    4416    4422    4434      27    4416    4425    4422      28
    4416    4425    4437      29    4770    4773    4785       3    4752    4770
    4773       3    4734    4752    4770       3    4722    4743    4728       5
    4713    4734    4752       3    4710    4728    4743       5    4707    4695
    4710       6    4707    4722    4743       5    4698    4713    4734       3
    4695    4707    4722       7    4695    4710    4728       7    4686    4698
    4713       3    4677    4695    4707       9    4677    4695    4710       9
    4668    4686    4698       3    4659    4677    4695       9    4656    4677
    4659       6    4656    4677    4695       9    4650    4668    4686       3
    4647    4632    4650      10    4644    4659    4677       7    4641    4629
    4644       5    4641    4656    4677       7    4632    4647    4638       5
    4632    4650    4668      11    4629    4641    4656       5    4629    4644
    4659       5    4626    4641    4629      13    4626    4641    4656      13
    4623    4614    4626      14    4623    4638    4647       5    4620    4611
    4623       5    4620    4632    4647       5    4620    4632    4650      10
    4617    4614    4623      15    4617    4614    4626      16    4617    4629
    4641      17    4617    4629    4644      17    4614    4608    4617      18
    4614    4617    4629      19    4614    4623    4638      20    4614    4626
    4641      21    4611    4608    4614      22    4611    4608    4617      23
    4611    4620    4632       5    4611    4623    4614      20    4611    4623
    4638       5    4608    4611    4620      24    4608    4611    4623      24
    4608    4614    4617      25    4608    4614    4623      26    4608    4614
    4626      27    4608    4617    4614      28    4608    4617    4629      29
    4962    4965    4977       3    4944    4962    4965       3    4926    4944
    4962       3    4914    4935    4920       5    4905    4926    4944       3
    4902    4920    4935       5    4899    4887    4902       6    4899    4914
    4935       5    4890    4905    4926       3    4887    4899    4914       7
    4887    4902    4920       7    4878    4890    4905       3    4869    4887
    4899       9    4869    4887    4902       9    4860    4878    4890       3
    4851    4869    4887       9    4848    4869    4851       6    4848    4869
    4887       9    4842    4860    4878       3    4839    4824    4842      10
    4836    4851    4869       7    4833    4821    4836       5    4833    4848
    4869       7    4824    4839    4830       5    4824    4842    4860      11
    4821    4833    4848       5    4821    4836    4851       5    4818    4833
    4821      13    4818    4833    4848      13    4815    4806    4818      14
    4815    4830    4839       5    4812    4803    4815       5    4812    4824
    4839       5    4812    4824    4842      10    4809    4806    4815      15
    4809    4806    4818      16    4809    4821    4833      17    4809    4821
    4836      17    4806    4800    4809      18    4806    4809    4821      19
    4806    4815    4830      20    4806    4818    4833      21    4803    4800
    4806      22    4803    4800    4809      23    4803    4812    4824       5
    4803    4815    4806      20    4803    4815    4830       5    4800    4803
    4812      24    4800    4803    4815      24    4800    4806    4809      25
    4800    4806    4815      26    4800    4806    4818      27    4800    4809
    4806      28    4800    4809    4821      29    5154    5157    5169       3
    5136    5154    5157       3    5118    5136    5154       3    5106    5127
    5112       5    5097    5118    5136       3    5094    5112    5127       5
    5091    5079    5094       6    5091    5106    5127       5    5082    5097
    5118       3    5079    5091    5106       7    5079    5094    5112       7
    5070    5082    5097       3    5061    5079    5091       9    5061    5079
    5094       9    5052    5070    5082       3    5043    5061    5079       9
    5040    5061    5043       6    5040    5061    5079       9    5034    5052
    5070       3    5031    5016    5034      10    5028    5043    5061       7
    5025    5013    5028       5    5025    5040    5061       7    5016    5031
    5022       5    5016    5034    5052      11    5013    5025    5040       5
    5013    5028    5043       5    5010    5025    5013      13    5010    5025
    5040      13    5007    4998    5010      14    5007    5022    5031       5
    5004    4995    5007       5    5004    5016    5031       5    5004    5016
    5034      10    5001    4998    5007      15    5001    4998    5010      16
    5001    5013    5025      17    5001    5013    5028      17    4998    4992
    5001      18    4998    5001    5013      19    4998    5007    5022      20
    4998    5010    5025      21    4995    4992    4998      22    4995    4992
    5001      23    4995    5004    5016       5    4995    5007    4998      20
    4995    5007    5022       5    4992    4995    5004      24    4992    4995
    5007      24    4992    4998    5001      25    4992    4998    5007      26
    4992    4998    5010      27    4992    5001    4998      28    4992    5001
    5013      29    5346    5349    5361       3    5328    5346    5349       3
    5310    5328    5346       3    5298    5319    5304       5    5289    5310
    5328       3    5286    5304    5319       5    5283    5271    5286       6
    5283    5298    5319       5    5274    5289    5310       3    5271    5283
    5298       7    5271    5286    5304       7    5262    5274    5289       3
    5253    5271    5283       9    5253    5271    5286       9    5244    5262
    5274       3    5235    5253    5271       9    5232    5253    5235       6
    5232    5253    5271       9    5226    5244    5262       3    5223    5208
    5226      10    5220    5235    5253       7    5217    5205    5220       5
    5217    5232    5253       7    5208    5223    5214       5    5208    5226
    5244      11    5205    5217    5232       5    5205    5220    5235       5
    5202    5217    5205      13    5202    5217    5232      13    5199    5190
    5202      14    5199    5214    5223       5    5196    5187    5199       5
    5196    5208    5223       5    5196    5208    5226      10    5193    5190
    5199      15    5193    5190    5202      16    5193    5205    5217      17
    5193    5205    5220      17    5190    5184    5193      18    5190    5193
    5205      19    5190    5199    5214      20    5190    5202    5217      21
    5187    5184    5190      22    5187    5184    5193      23    5187    5196
    5208       5    5187    5199    5190      20    5187    5199    5214       5
    5184    5187    5196      24    5184    5187    5199      24    5184    5190
    5193      25    5184    5190    5199      26    5184    5190    5202      27
    5184    5193    5190      28    5184    5193    5205      29    5538    5541
    5553       3    5520    5538    5541       3    5502    5520    5538       3
    5490    5511    5496       5    5481    5502    5520       3    5478    5496
    5511       5    5475    5463    5478       6    5475    5490    5511       5
    5466    5481    5502       3    5463    5475    5490       7    5463    5478
    5496       7    5454    5466    5481       3    5445    5463    5475       9
    5445    5463    5478       9    5436    5454    5466       3    5427    5445
    5463       9    5424    5445    5427       6    5424    5445    5463       9
    5418    5436    5454       3    5415    5400    5418      10    5412    5427
    5445       7    5409    5397    5412       5    5409    5424    5445       7
    5400    5415    5406       5    5400    5418    5436      11    5397    5409
    5424       5    5397    5412    5427       5    5394    5409    5397      13
    5394    5409    5424      13    5391    5382    5394      14    5391    5406
    5415       5    5388    5379    5391       5    5388    5400    5415       5
    5388    5400    5418      10    5385    5382    5391      15    5385    5382
    5394      16    5385    5397    5409      17    5385    5397    5412      17
    5382    5376    5385      18    5382    5385    5397      19    5382    5391
    5406      20    5382    5394    5409      21    5379    5376    5382      22
    5379    5376    5385      23    5379    5388    5400       5    5379    5391
    5382      20    5379    5391    5406       5    5376    5379    5388      24
    5376    5379    5391      24    5376    5382    5385      25    5376    5382
    5391      26    5376    5382    5394      27    5376    5385    5382      28
    5376    5385    5397      29    5730    5733    5745       3    5712    5730
    5733       3    5694    5712    5730       3    5682    5703    5688       5
    5673    5694    5712       3    5670    5688    5703       5    5667    5655
    5670       6    5667    5682    5703       5    5658    5673    5694       3
    5655    5667    5682       7    5655    5670    5688       7    5646    5658
    5673       3    5637    5655    5667       9    5637    5655    5670       9
    5628    5646    5658       3    5619    5637    5655       9    5616    5637
    5619       6    5616    5637    5655       9    5610    5628    5646       3
    5607    5592    5610      10    5604    5619    5637       7    5601    5589
    5604       5    5601    5616    5637       7    5592    5607    5598       5
    5592    5610    5628      11    5589    5601    5616       5    5589    5604
    5619       5    5586    5601    5589      13    5586    5601    5616      13
    5583    5574    5586      14    5583    5598    5607       5    5580    5571
    5583       5    5580    5592    5607       5    5580    5592    5610      10
    5577    5574    5583      15    5577    5574    5586      16    5577    5589
    5601      17    5577    5589    5604      17    5574    5568    5577      18
    5574    5577    5589      19    5574    5583    5598      20    5574    5586
    5601      21    5571    5568    5574      22    5571    5568    5577      23
    5571    5580    5592       5    5571    5583    5574      20    5571    5583
    5598       5    5568    5571    5580      24    5568    5571    5583      24
    5568    5574    5577      25    5568    5574    5583      26    5568    5574
    5586      27    5568    5577    5574      28    5568    5577    5589      29
    5922    5925    5937       3    5904    5922    5925       3    5886    5904
    5922       3    5874    5895    5880       5    5865    5886    5904       3
    5862    5880    5895       5    5859    5847    5862       6    5859    5874
    5895       5    5850    5865    5886       3    5847    5859    5874       7
    5847    5862    5880       7    5838    5850    5865       3    5829    5847
    5859       9    5829    5847    5862       9    5820    5838    5850       3
    5811    5829    5847       9    5808    5829    5811       6    5808    5829
    5847       9    5802    5820    5838       3    5799    5784    5802      10
    5796    5811    5829       7    5793    5781    5796       5    5793    5808
    5829       7    5784    5799    5790       5    5784    5802    5820      11
    5781    5793    5808       5    5781    5796    5811       5    5778    5793
    5781      13    5778    5793    5808      13    5775    5766    5778      14
    5775    5790    5799       5    5772    5763    5775       5    5772    5784
    5799       5    5772    5784    5802      10    5769    5766    5775      15
    5769    5766    5778      16    5769    5781    5793      17    5769    5781
    5796      17    5766    5760    5769      18    5766    5769    5781      19
    5766    5775    5790      20    5766    5778    5793      21    5763    5760
    5766      22    5763    5760    5769      23    5763    5772    5784       5
    5763    5775    5766      20    5763    5775    5790       5    5760    5763
    5772      24    5760    5763    5775      24    5760    5766    5769      25
    5760    5766    5775      26    5760    5766    5778      27    5760    5769
    5766      28    5760    5769    5781      29    6114    6117    6129       3
    6096    6114    6117       3    6078    6096    6114       3    6066    6087
    6072       5    6057    6078    6096       3    6054    6072    6087       5
    6051    6039    6054       6    6051    6066    6087       5    6042    6057
    6078       3    6039    6051    6066       7    6039    6054    6072       7
    6030    6042    6057       3    6021    6039    6051       9    6021    6039
    6054       9    6012    6030    6042       3    6003    6021    6039       9
    6000    6021    6003       6    6000    6021    6039       9    5994    6012
    6030       3    5991    5976    5994      10    5988    6003    6021       7
    5985    5973    5988       5    5985    6000    6021       7    5976    5991
    5982       5    5976    5994    6012      11    5973    5985    6000       5
    5973    5988    6003       5    5970    5985    5973      13    5970    5985
    6000      13    5967    5958    5970      14    5967    5982    5991       5
    5964    5955    5967       5    5964    5976    5991       5    5964    5976
    5994      10    5961    5958    5967      15    5961    5958    5970      16
    5961    5973    5985      17    5961    5973    5988      17    5958    5952
    5961      18    5958    5961    5973      19    5958    5967    5982      20
    5958    5970    5985      21    5955    5952    5958      22    5955    5952
    5961      23    5955    5964    5976       5    5955    5967    5958      20
    5955    5967    5982       5    5952    5955    5964      24    5952    5955
    5967      24    5952    5958    5961      25    5952    5958    5967      26
    5952    5958    5970      27    5952    5961    5958      28    5952    5961
    5973      29    6306    6309    6321       3    6288    6306    6309       3
    6270    6288    6306       3    6258    6279    6264       5    6249    6270
    6288       3    6246    6264    6279       5    6243    6231    6246       6
    6243    6258    6279       5    6234    6249    6270       3    6231    6243
    6258       7    6231    6246    6264       7    6222    6234    6249       3
    6213    6231    6243       9    6213    6231    6246       9    6204    6222
    6234       3    6195    6213    6231       9    6192    6213    6195       6
    6192    6213    6231       9    6186    6204    6222       3    6183    6168
    6186      10    6180    6195    6213       7    6177    6165    6180       5
    6177    6192    6213       7    6168    6183    6174       5    6168    6186
    6204      11    6165    6177    6192       5    6165    6180    6195       5
    6162    6177    6165      13    6162    6177    6192      13    6159    6150
    6162      14    6159    6174    6183       5    6156    6147    6159       5
    6156    6168    6183       5    6156    6168    6186      10    6153    6150
    6159      15    6153    6150    6162      16    6153    6165    6177      17
    6153    6165    6180      17    6150    6144    6153      18    6150    6153
    6165      19    6150    6159    6174      20    6150    6162    6177      21
    6147    6144    6150      22    6147    6144    6153      23    6147    6156
    6168       5    6147    6159    6150      20    6147    6159    6174       5
    6144    6147    6156      24    6144    6147    6159      24    6144    6150
    6153      25    6144    6150    6159      26    6144    6150    6162      27
    6144    6153    6150      28    6144    6153    6165      29    6498    6501
    6513       3    6480    6498    6501       3    6462    6480    6498       3
    6450    6471    6456       5    6441    6462    6480       3    6438    6456
    6471       5    6435    6423    6438       6    6435    6450    6471       5
    6426    6441    6462       3    6423    6435    6450       7    6423    6438
    6456       7    6414    6426    6441       3    6405    6423    6435       9
    6405    6423    6438       9    6396    6414    6426       3    6387    6405
    6423       9    6384    6405    6387       6    6384    6405    6423       9
    6378    6396    6414       3    6375    6360    6378      10    6372    6387
    6405       7    6369    6357    6372       5    6369    6384    6405       7
    6360    6375    6366       5    6360    6378    6396      11    6357    6369
    6384       5    6357    6372    6387       5    6354    6369    6357      13
    6354    6369    6384      13    6351    6342    6354      14    6351    6366
    6375       5    6348    6339    6351       5    6348    6360    6375       5
    6348    6360    6378      10    6345    6342    6351      15    6345    6342
    6354      16    6345    6357    6369      17    6345    6357    6372      17
    6342    6336    6345      18    6342    6345    6357      19    6342    6351
    6366      20    6342    6354    6369      21    6339    6336    6342      22
    6339    6336    6345      23    6339    6348    6360       5    6339    6351
    6342      20    6339    6351    6366       5    6336    6339    6348      24
    6336    6339    6351      24    6336    6342    6345      25    6336    6342
    6351      26    6336    6342    6354      27    6336    6345    6342      28
    6336    6345    6357      29    6690    6693    6705       3    6672    6690
    6693       3    6654    6672    6690       3    6642    6663    6648       5
    6633    6654    6672       3    6630    6648    6663       5    6627    6615
    6630       6    6627    6642    6663       5    6618    6633    6654       3
    6615    6627    6642       7    6615    6630    6648       7    6606    6618
    6633       3    6597    6615    6627       9    6597    6615    6630       9
    6588    6606    6618       3    6579    6597    6615       9    6576    6597
    6579       6    6576    6597    6615       9    6570    6588    6606       3
    6567    6552    6570      10    6564    6579    6597       7    6561    6549
    6564       5    6561    6576    6597       7    6552    6567    6558       5
    6552    6570    6588      11    6549    6561    6576       5    6549    6564
    6579       5    6546    6561    6549      13    6546    6561    6576      13
    6543    6534    6546      14    6543    6558    6567       5    6540    6531
    6543       5    6540    6552    6567       5    6540    6552    6570      10
    6537    6534    6543      15    6537    6534    6546      16    6537    6549
    6561      17    6537    6549    6564      17    6534    6528    6537      18
    6534    6537    6549      19    6534    6543    6558      20    6534    6546
    6561      21    6531    6528    6534      22    6531    6528    6537      23
    6531    6540    6552       5    6531    6543    6534      20    6531    6543
    6558       5    6528    6531    6540      24    6528    6531    6543      24
    6528    6534    6537      25    6528    6534    6543      26    6528    6534
    6546      27    6528    6537    6534      28    6528    6537    6549      29
    6882    6885    6897       3    6864    6882    6885       3    6846    6864
    6882       3    6834    6855    6840       5    6825    6846    6864       3
    6822    6840    6855       5    6819    6807    6822       6    6819    6834
    6855       5    6810    6825    6846       3    6807    6819    6834       7
    6807    6822    6840       7    6798    6810    6825       3    6789    6807
    6819       9    6789    6807    6822       9    6780    6798    6810       3
    6771    6789    6807       9    6768    6789    6771       6    6768    6789
    6807       9    6762    6780    6798       3    6759    6744    6762      10
    6756    6771    6789       7    6753    6741    6756       5    6753    6768
    6789       7    6744    6759    6750       5    6744    6762    6780      11
    6741    6753    6768       5    6741    6756    6771       5    6738    6753
    6741      13    6738    6753    6768      13    6735    6726    6738      14
    6735    6750    6759       5    6732    6723    6735       5    6732    6744
    6759       5    6732    6744    6762      10    6729    6726    6735      15
    6729    6726    6738      16    6729    6741    6753      17    6729    6741
    6756      17    6726    6720    6729      18    6726    6729    6741      19
    6726    6735    6750      20    6726    6738    6753      21    6723    6720
    6726      22    6723    6720    6729      23    6723    6732    6744       5
    6723    6735    6726      20    6723    6735    6750       5    6720    6723
    6732      24    6720    6723    6735      24    6720    6726    6729      25
    6720    6726    6735      26    6720    6726    6738      27    6720    6729
    6726      28    6720    6729    6741      29    7074    7077    7089       3
    7056    7074    7077       3    7038    7056    7074       3    7026    7047
    7032       5    7017    7038    7056       3    7014    7032    7047       5
    7011    6999    7014       6    7011    7026    7047       5    7002    7017
    7038       3    6999    7011    7026       7    6999    7014    7032       7
    6990    7002    7017       3    6981    6999    7011       9    6981    6999
    7014       9    6972    6990    7002       3    6963    6981    6999       9
    6960    6981    6963       6    6960    6981    6999       9    6954    6972
    6990       3    6951    6936    6954      10    6948    6963    6981       7
    6945    6933    6948       5    6945    6960    6981       7    6936    6951
    6942       5    6936    6954    6972      11    6933    6945    6960       5
    6933    6948    6963       5    6930    6945    6933      13    6930    6945
    6960      13    6927    6918    6930      14    6927    6942    6951       5
    6924    6915    6927       5    6924    6936    6951       5    6924    6936
    6954      10    6921    6918    6927      15    6921    6918    6930      16
    6921    6933    6945      17    6921    6933    6948      17    6918    6912
    6921      18    6918    6921    6933      19    6918    6927    6942      20
    6918    6930    6945      21    6915    6912    6918      22    6915    6912
    6921      23    6915    6924    6936       5    6915    6927    6918      20
    6915    6927    6942       5    6912    6915    6924      24    6912    6915
    6927      24    6912    6918    6921      25    6912    6918    6927      26
    6912    6918    6930      27    6912    6921    6918      28    6912    6921
    6933      29    7266    7269    7281       3    7248    7266    7269       3
    7230    7248    7266       3    7218    7239    7224       5    7209    7230
    7248       3    7206    7224    7239       5    7203    7191    7206       6
    7203    7218    7239       5    7194    7209    7230       3    7191    7203
    7218       7    7191    7206    7224       7    7182    7194    7209       3
    7173    7191    7203       9    7173    7191    7206       9    7164    7182
    7194       3    7155    7173    7191       9    7152    7173    7155       6
    7152    7173    7191       9    7146    7164    7182       3    7143    7128
    7146      10    7140    7155    7173       7    7137    7125    7140       5
    7137    7152    7173       7    7128    7143    7134       5    7128    7146
    7164      11    7125    7137    7152       5    7125    7140    7155       5
    7122    7137    7125      13    7122    7137    7152      13    7119    7110
    7122      14    7119    7134    7143       5    7116    7107    7119       5
    7116    7128    7143       5    7116    7128    7146      10    7113    7110
    7119      15    7113    7110    7122      16    7113    7125    7137      17
    7113    7125    7140      17    7110    7104    7113      18    7110    7113
    7125      19    7110    7119    7134      20    7110    7122    7137      21
    7107    7104    7110      22    7107    7104    7113      23    7107    7116
    7128       5    7107    7119    7110      20    7107    7119    7134       5
    7104    7107    7116      24    7104    7107    7119      24    7104    7110
    7113      25    7104    7110    7119      26    7104    7110    7122      27
    7104    7113    7110      28    7104    7113    7125      29    7458    7461
    7473       3    7440    7458    7461       3    7422    7440    7458       3
    7410    7431    7416       5    7401    7422    7440       3    7398    7416
    7431       5    7395    7383    7398       6    7395    7410    7431       5
    7386    7401    7422       3    7383    7395    7410       7    7383    7398
    7416       7    7374    7386    7401       3    7365    7383    7395       9
    7365    7383    7398       9    7356    7374    7386       3    7347    7365
    7383       9    7344    7365    7347       6    7344    7365    7383       9
    7338    7356    7374       3    7335    7320    7338      10    7332    7347
    7365       7    7329    7317    7332       5    7329    7344    7365       7
    7320    7335    7326       5    7320    7338    7356      11    7317    7329
    7344       5    7317    7332    7347       5    7314    7329    7317      13
    7314    7329    7344      13    7311    7302    7314      14    7311    7326
    7335       5    7308    7299    7311       5    7308    7320    7335       5
    7308    7320    7338      10    7305    7302    7311      15    7305    7302
    7314      16    7305    7317    7329      17    7305    7317    7332      17
    7302    7296    7305      18    7302    7305    7317      19    7302    7311
    7326      20    7302    7314    7329      21    7299    7296    7302      22
    7299    7296    7305      23    7299    7308    7320       5    7299    7311
    7302      20    7299    7311    7326       5    7296    7299    7308      24
    7296    7299    7311      24    7296    7302    7305      25    7296    7302
    7311      26    7296    7302    7314      27    7296    7305    7302      28
    7296    7305    7317      29    7650    7653    7665       3    7632    7650
    7653       3    7614    7632    7650       3    7602    7623    7608       5
    7593    7614    7632       3    7590    7608    7623       5    7587    7575
    7590       6    7587    7602    7623       5    7578    7593    7614       3
    7575    7587    7602       7    7575    7590    7608       7    7566    7578
    7593       3    7557    7575    7587       9    7557    7575    7590       9
    7548    7566    7578       3    7539    7557    7575       9    7536    7557
    7539       6    7536    7557    7575       9    7530    7548    7566       3
    7527    7512    7530      10    7524    7539    7557       7    7521    7509
    7524       5    7521    7536    7557       7    7512    7527    7518       5
    7512    7530    7548      11    7509    7521    7536       5    7509    7524
    7539       5    7506    7521    7509      13    7506    7521    7536      13
    7503    7494    7506      14    7503    7518    7527       5    7500    7491
    7503       5    7500    7512    7527       5    7500    7512    7530      10
    7497    7494    7503      15    7497    7494    7506      16    7497    7509
    7521      17    7497    7509    7524      17    7494    7488    7497      18
    7494    7497    7509      19    7494    7503    7518      20    7494    7506
    7521      21    7491    7488    7494      22    7491    7488    7497      23
    7491    7500    7512       5    7491    7503    7494      20    7491    7503
    7518       5    7488    7491    7500      24    7488    7491    7503      24
    7488    7494    7497      25    7488    7494    7503      26    7488    7494
    7506      27    7488    7497    7494      28    7488    7497    7509      29
    7842    7845    7857       3    7824    7842    7845       3    7806    7824
    7842       3    7794    7815    7800       5    7785    7806    7824       3
    7782    7800    7815       5    7779    7767    7782       6    7779    7794
    7815       5    7770    7785    7806       3    7767    7779    7794       7
    7767    7782    7800       7    7758    7770    7785       3    7749    7767
    7779       9    7749    7767    7782       9    7740    7758    7770       3
    7731    7749    7767       9    7728    7749    7731       6    7728    7749
    7767       9    7722    7740    7758       3    7719    7704    7722      10
    7716    7731    7749       7    7713    7701    7716       5    7713    7728
    7749       7    7704    7719    7710       5    7704    7722    7740      11
    7701    7713    7728       5    7701    7716    7731       5    7698    7713
    7701      13    7698    7713    7728      13    7695    7686    7698      14
    7695    7710    7719       5    7692    7683    7695       5    7692    7704
    7719       5    7692    7704    7722      10    7689    7686    7695      15
    7689    7686    7698      16    7689    7701    7713      17    7689    7701
    7716      17    7686    7680    7689      18    7686    7689    7701      19
    7686    7695    7710      20    7686    7698    7713      21    7683    7680
    7686      22    7683    7680    7689      23    7683    7692    7704       5
    7683    7695    7686      20    7683    7695    7710       5    7680    7683
    7692      24    7680    7683    7695      24    7680    7686    7689      25
    7680    7686    7695      26    7680    7686    7698      27    7680    7689
    7686      28    7680    7689    7701      29    8034    8037    8049       3
    8016    8034    8037       3    7998    8016    8034       3    7986    8007
    7992       5    7977    7998    8016       3    7974    7992    8007       5
    7971    7959    7974       6    7971    7986    8007       5    7962    7977
    7998       3    7959    7971    7986       7    7959    7974    7992       7
    7950    7962    7977       3    7941    7959    7971       9    7941    7959
    7974       9    7932    7950    7962       3    7923    7941    7959       9
    7920    7941    7923       6    7920    7941    7959       9    7914    7932
    7950       3    7911    7896    7914      10    7908    7923    7941       7
    7905    7893    7908       5    7905    7920    7941       7    7896    7911
    7902       5    7896    7914    7932      11    7893    7905    7920       5
    7893    7908    7923       5    7890    7905    7893      13    7890    7905
    7920      13    7887    7878    7890      14    7887    7902    7911       5
    7884    7875    7887       5    7884    7896    7911       5    7884    7896
    7914      10    7881    7878    7887      15    7881    7878    7890      16
    7881    7893    7905      17    7881    7893    7908      17    7878    7872
    7881      18    7878    7881    7893      19    7878    7887    7902      20
    7878    7890    7905      21    7875    7872    7878      22    7875    7872
    7881      23    7875    7884    7896       5    7875    7887    7878      20
    7875    7887    7902       5    7872    7875    7884      24    7872    7875
    7887      24    7872    7878    7881      25    7872    7878    7887      26
    7872    7878    7890      27    7872    7881    7878      28    7872    7881
    7893      29    8226    8229    8241       3    8208    8226    8229       3
    8190    8208    8226       3    8178    8199    8184       5    8169    8190
    8208       3    8166    8184    8199       5    8163    8151    8166       6
    8163    8178    8199       5    8154    8169    8190       3    8151    8163
    8178       7    8151    8166    8184       7    8142    8154    8169       3
    8133    8151    8163       9    8133    8151    8166       9    8124    8142
    8154       3    8115    8133    8151       9    8112    8133    8115       6
    8112    8133    8151       9    8106    8124    8142       3    8103    8088
    8106      10    8100    8115    8133       7    8097    8085    8100       5
    8097    8112    8133       7    8088    8103    8094       5    8088    8106
    8124      11    8085    8097    8112       5    8085    8100    8115       5
    8082    8097    8085      13    8082    8097    8112      13    8079    8070
    8082      14    8079    8094    8103       5    8076    8067    8079       5
    8076    8088    8103       5    8076    8088    8106      10    8073    8070
    8079      15    8073    8070    8082      16    8073    8085    8097      17
    8073    8085    8100      17    8070    8064    8073      18    8070    8073
    8085      19    8070    8079    8094      20    8070    8082    8097      21
    8067    8064    8070      22    8067    8064    8073      23    8067    8076
    8088       5    8067    8079    8070      20    8067    8079    8094       5
    8064    8067    8076      24    8064    8067    8079      24    8064    8070
    8073      25    8064    8070    8079      26    8064    8070    8082      27
    8064    8073    8070      28    8064    8073    8085      29    8418    8421
    8433       3    8400    8418    8421       3    8382    8400    8418       3
    8370    8391    8376       5    8361    8382    8400       3    8358    8376
    8391       5    8355    8343    8358       6    8355    8370    8391       5
    8346    8361    8382       3    8343    8355    8370       7    8343    8358
    8376       7    8334    8346    8361       3    8325    8343    8355       9
    8325    8343    8358       9    8316    8334    8346       3    8307    8325
    8343       9    8304    8325    8307       6    8304    8325    8343       9
    8298    8316    8334       3    8295    8280    8298      10    8292    8307
    8325       7    8289    8277    8292       5    8289    8304    8325       7
    8280    8295    8286       5    8280    8298    8316      11    8277    8289
    8304       5    8277    8292    8307       5    8274    8289    8277      13
    8274    8289    8304      13    8271    8262    8274      14    8271    8286
    8295       5    8268    8259    8271       5    8268    8280    8295       5
    8268    8280    8298      10    8265    8262    8271      15    8265    8262
    8274      16    8265    8277    8289      17    8265    8277    8292      17
    8262    8256    8265      18    8262    8265    8277      19    8262    8271
    8286      20    8262    8274    8289      21    8259    8256    8262      22
    8259    8256    8265      23    8259    8268    8280       5    8259    8271
    8262      20    8259    8271    8286       5    8256    8259    8268      24
    8256    8259    8271      24    8256    8262    8265      25    8256    8262
    8271      26    8256    8262    8274      27    8256    8265    8262      28
    8256    8265    8277      29    8610    8613    8625       3    8592    8610
    8613       3    8574    8592    8610       3    8562    8583    8568       5
    8553    8574    8592       3    8550    8568    8583       5    8547    8535
    8550       6    8547    8562    8583       5    8538    8553    8574       3
    8535    8547    8562       7    8535    8550    8568       7    8526    8538
    8553       3    8517    8535    8547       9    8517    8535    8550       9
    8508    8526    8538       3    8499    8517    8535       9    8496    8517
    8499       6    8496    8517    8535       9    8490    8508    8526       3
    8487    8472    8490      10    8484    8499    8517       7    8481    8469
    8484       5    8481    8496    8517       7    8472    8487    8478       5
    8472    8490    8508      11    8469    8481    8496       5    8469    8484
    8499       5    8466    8481    8469      13    8466    8481    8496      13
    8463    8454    8466      14    8463    8478    8487       5    8460    8451
    8463       5    8460    8472    8487       5    8460    8472    8490      10
    8457    8454    8463      15    8457    8454    8466      16    8457    8469
    8481      17    8457    8469    8484      17    8454    8448    8457      18
    8454    8457    8469      19    8454    8463    8478      20    8454    8466
    8481      21    8451    8448    8454      22    8451    8448    8457      23
    8451    8460    8472       5    8451    8463    8454      20    8451    8463
    8478       5    8448    8451    8460      24    8448    8451    8463      24
    8448    8454    8457      25    8448    8454    8463      26    8448    8454
    8466      27    8448    8457    8454      28    8448    8457    8469      29
    8802    8805    8817       3    8784    8802    8805       3    8766    8784
    8802       3    8754    8775    8760       5    8745    8766    8784       3
    8742    8760    8775       5    8739    8727    8742       6    8739    8754
    8775       5    8730    8745    8766       3    8727    8739    8754       7
    8727    8742    8760       7    8718    8730    8745       3    8709    8727
    8739       9    8709    8727    8742       9    8700    8718    8730       3
    8691    8709    8727       9    8688    8709    8691       6    8688    8709
    8727       9    8682    8700    8718       3    8679    8664    8682      10
    8676    8691    8709       7    8673    8661    8676       5    8673    8688
    8709       7    8664    8679    8670       5    8664    8682    8700      11
    8661    8673    8688       5    8661    8676    8691       5    8658    8673
    8661      13    8658    8673    8688      13    8655    8646    8658      14
    8655    8670    8679       5    8652    8643    8655       5    8652    8664
    8679       5    8652    8664    8682      10    8649    8646    8655      15
    8649    8646    8658      16    8649    8661    8673      17    8649    8661
    8676      17    8646    8640    8649      18    8646    8649    8661      19
    8646    8655    8670      20    8646    8658    8673      21    8643    8640
    8646      22    8643    8640    8649      23    8643    8652    8664       5
    8643    8655    8646      20    8643    8655    8670       5    8640    8643
    8652      24    8640    8643    8655      24    8640    8646    8649      25
    8640    8646    8655      26    8640    8646    8658      27    8640    8649
    8646      28    8640    8649    8661      29    8994    8997    9009       3
    8976    8994    8997       3    8958    8976    8994       3    8946    8967
    8952       5    8937    8958    8976       3    8934    8952    8967       5
    8931    8919    8934       6    8931    8946    8967       5    8922    8937
    8958       3    8919    8931    8946       7    8919    8934    8952       7
    8910    8922    8937       3    8901    8919    8931       9    8901    8919
    8934       9    8892    8910    8922       3    8883    8901    8919       9
    8880    8901    8883       6    8880    8901    8919       9    8874    8892
    8910       3    8871    8856    8874      10    8868    8883    8901       7
    8865    8853    8868       5    8865    8880    8901       7    8856    8871
    8862       5    8856    8874    8892      11    8853    8865    8880       5
    8853    8868    8883       5    8850    8865    8853      13    8850    8865
    8880      13    8847    8838    8850      14    8847    8862    8871       5
    8844    8835    8847       5    8844    8856    8871       5    8844    8856
    8874      10    8841    8838    8847      15    8841    8838    8850      16
    8841    8853    8865      17    8841    8853    8868      17    8838    8832
    8841      18    8838    8841    8853      19    8838    8847    8862      20
    8838    8850    8865      21    8835    8832    8838      22    8835    8832
    8841      23    8835    8844    8856       5    8835    8847    8838      20
    8835    8847    8862       5    8832    8835    8844      24    8832    8835
    8847      24    8832    8838    8841      25    8832    8838    8847      26
    8832    8838    8850      27    8832    8841    8838      28    8832    8841
    8853      29    9186    9189    9201       3    9168    9186    9189       3
    9150    9168    9186       3    9138    9159    9144       5    9129    9150
    9168       3    9126    9144    9159       5    9123    9111    9126       6
    9123    9138    9159       5    9114    9129    9150       3    9111    9123
    9138       7    9111    9126    9144       7    9102    9114    9129       3
    9093    9111    9123       9    9093    9111    9126       9    9084    9102
    9114       3    9075    9093    9111       9    9072    9093    9075       6
    9072    9093    9111       9    9066    9084    9102       3    9063    9048
    9066      10    9060    9075    9093       7    9057    9045    9060       5
    9057    9072    9093       7    9048    9063    9054       5    9048    9066
    9084      11    9045    9057    9072       5    9045    9060    9075       5
    9042    9057    9045      13    9042    9057    9072      13    9039    9030
    9042      14    9039    9054    9063       5    9036    9027    9039       5
    9036    9048    9063       5    9036    9048    9066      10    9033    9030
    9039      15    9033    9030    9042      16    9033    9045    9057      17
    9033    9045    9060      17    9030    9024    9033      18    9030    9033
    9045      19    9030    9039    9054      20    9030    9042    9057      21
    9027    9024    9030      22    9027    9024    9033      23    9027    9036
    9048       5    9027    9039    9030      20    9027    9039    9054       5
    9024    9027    9036      24    9024    9027    9039      24    9024    9030
    9033      25    9024    9030    9039      26    9024    9030    9042      27
    9024    9033    9030      28    9024    9033    9045      29    9378    9381
    9393       3    9360    9378    9381       3    9342    9360    9378       3
    9330    9351    9336       5    9321    9342    9360       3    9318    9336
    9351       5    9315    9303    9318       6    9315    9330    9351       5
    9306    9321    9342       3    9303    9315    9330       7    9303    9318
    9336       7    9294    9306    9321       3    9285    9303    9315       9
    9285    9303    9318       9    9276    9294    9306       3    9267    9285
    9303       9    9264    9285    9267       6    9264    9285    9303       9
    9258    9276    9294       3    9255    9240    9258      10    9252    9267
    9285       7    9249    9237    9252       5    9249    9264    9285       7
    9240    9255    9246       5    9240    9258    9276      11    9237    9249
    9264       5    9237    9252    9267       5    9234    9249    9237      13
    9234    9249    9264      13    9231    9222    9234      14    9231    9246
    9255       5    9228    9219    9231       5    9228    9240    9255       5
    9228    9240    9258      10    9225    9222    9231      15    9225    9222
    9234      16    9225    9237    9249      17    9225    9237    9252      17
    9222    9216    9225      18    9222    9225    9237      19    9222    9231
    9246      20    9222    9234    9249      21    9219    9216    9222      22
    9219    9216    9225      23    9219    9228    9240       5    9219    9231
    9222      20    9219    9231    9246       5    9216    9219    9228      24
    9216    9219    9231      24    9216    9222    9225      25    9216    9222
    9231      26    9216    9222    9234      27    9216    9225    9222      28
    9216    9225    9237      29    9570    9573    9585       3    9552    9570
    9573       3    9534    9552    9570       3    9522    9543    9528       5
    9513    9534    9552       3    9510    9528    9543       5    9507    9495
    9510       6    9507    9522    9543       5    9498    9513    9534       3
    9495    9507    9522       7    9495    9510    9528       7    9486    9498
    9513       3    9477    9495    9507       9    9477    9495    9510       9
    9468    9486    9498       3    9459    9477    9495       9    9456    9477
    9459       6    9456    9477    9495       9    9450    9468    9486       3
    9447    9432    9450      10    9444    9459    9477       7    9441    9429
    9444       5    9441    9456    9477       7    9432    9447    9438       5
    9432    9450    9468      11    9429    9441    9456       5    9429    9444
    9459       5    9426    9441    9429      13    9426    9441    9456      13
    9423    9414    9426      14    9423    9438    9447       5    9420    9411
    9423       5    9420    9432    9447       5    9420    9432    9450      10
    9417    9414    9423      15    9417    9414    9426      16    9417    9429
    9441      17    9417    9429    9444      17    9414    9408    9417      18
    9414    9417    9429      19    9414    9423    9438      20    9414    9426
    9441      21    9411    9408    9414      22    9411    9408    9417      23
    9411    9420    9432       5    9411    9423    9414      20    9411    9423
    9438       5    9408    9411    9420      24    9408    9411    9423      24
    9408    9414    9417      25    9408    9414    9423      26    9408    9414
    9426      27    9408    9417    9414      28    9408    9417    9429      29
    9762    9765    9777       3    9744    9762    9765       3    9726    9744
    9762       3    9714    9735    9720       5    9705    9726    9744       3
    9702    9720    9735       5    9699    9687    9702       6    9699    9714
    9735       5    9690    9705    9726       3    9687    9699    9714       7
    9687    9702    9720       7    9678    9690    9705       3    9669    9687
    9699       9    9669    9687    9702       9    9660    9678    9690       3
    9651    9669    9687       9    9648    9669    9651       6    9648    9669
    9687       9    9642    9660    9678       3    9639    9624    9642      10
    9636    9651    9669       7    9633    9621    9636       5    9633    9648
    9669       7    9624    9639    9630       5    9624    9642    9660      11
    9621    9633    9648       5    9621    9636    9651       5    9618    9633
    9621      13    9618    9633    9648      13    9615    9606    9618      14
    9615    9630    9639       5    9612    9603    9615       5    9612    9624
    9639       5    9612    9624    9642      10    9609    9606    9615      15
    9609    9606    9618      16    9609    9621    9633      17    9609    9621
    9636      17    9606    9600    9609      18    9606    9609    9621      19
    9606    9615    9630      20    9606    9618    9633      21    9603    9600
    9606      22    9603    9600    9609      23    9603    9612    9624       5
    9603    9615    9606      20    9603    9615    9630       5    9600    9603
    9612      24    9600    9603    9615      24    9600    9606    9609      25
    9600    9606    9615      26    9600    9606    9618      27    9600    9609
    9606      28    9600    9609    9621      29    9954    9957    9969       3
    9936    9954    9957       3    9918    9936    9954       3    9906    9927
    9912       5    9897    9918    9936       3    9894    9912    9927       5
    9891    9879    9894       6    9891    9906    9927       5    9882    9897
    9918       3    9879    9891    9906       7    9879    9894    9912       7
    9870    9882    9897       3    9861    9879    9891       9    9861    9879
    9894       9    9852    9870    9882       3    9843    9861    9879       9
    9840    9861    9843       6    9840    9861    9879       9    9834    9852
    9870       3    9831    9816    9834      10    9828    9843    9861       7
    9825    9813    9828       5    9825    9840    9861       7    9816    9831
    9822       5    9816    9834    9852      11    9813    9825    9840       5
    9813    9828    9843       5    9810    9825    9813      13    9810    9825
    9840      13    9807    9798    9810      14    9807    9822    9831       5
    9804    9795    9807       5    9804    9816    9831       5    9804    9816
    9834      10    9801    9798    9807      15    9801    9798    9810      16
    9801    9813    9825      17    9801    9813    9828      17    9798    9792
    9801      18    9798    9801    9813      19    9798    9807    9822      20
    9798    9810    9825      21    9795    9792    9798      22    9795    9792
    9801      23    9795    9804    9816       5    9795    9807    9798      20
    9795    9807    9822       5    9792    9795    9804      24    9792    9795
    9807      24    9792    9798    9801      25    9792    9798    9807      26
    9792    9798    9810      27    9792    9801    9798      28    9792    9801
    9813      29   10146   10149   10161       3   10128   10146   10149       3
   10110   10128   10146       3   10098   10119   10104       5   10089   10110
   10128       3   10086   10104   10119       5   10083   10071   10086       6
   10083   10098   10119       5   10074   10089   10110       3   10071   10083
   10098       7   10071   10086   10104       7   10062   10074   10089       3
   10053   10071   10083       9   10053   10071   10086       9   10044   10062
   10074       3   10035   10053   10071       9   10032   10053   10035       6
   10032   10053   10071       9   10026   10044   10062       3   10023   10008
   10026      10   10020   10035   10053       7   10017   10005   10020       5
   10017   10032   10053       7   10008   10023   10014       5   10008   10026
   10044      11   10005   10017   10032       5   10005   10020   10035       5
   10002   10017   10005      13   10002   10017   10032      13    9999    9990
   10002      14    9999   10014   10023       5    9996    9987    9999       5
    9996   10008   10023       5    9996   10008   10026      10    9993    9990
    9999      15    9993    9990   10002      16    9993   10005   10017      17
    9993   10005   10020      17    9990    9984    9993      18    9990    9993
   10005      19    9990    9999   10014      20    9990   10002   10017      21
    9987    9984    9990      22    9987    9984    9993      23    9987    9996
   10008       5    9987    9999    9990      20    9987    9999   10014       5
    9984    9987    9996      24    9984    9987    9999      24    9984    9990
    9993      25    9984    9990    9999      26    9984    9990   10002      27
    9984    9993    9990      28    9984    9993   10005      29   10338   10341
   10353       3   10320   10338   10341       3   10302   10320   10338       3
   10290   10311   10296       5   10281   10302   10320       3   10278   10296
   10311       5   10275   10263   10278       6   10275   10290   10311       5
   10266   10281   10302       3   10263   10275   10290       7   10263   10278
   10296       7   10254   10266   10281       3   10245   10263   10275       9
   10245   10263   10278       9   10236   10254   10266       3   10227   10245
   10263       9   10224   10245   10227       6   10224   10245   10263       9
   10218   10236   10254       3   10215   10200   10218      10   10212   10227
   10245       7   10209   10197   10212       5   10209   10224   10245       7
   10200   10215   10206       5   10200   10218   10236      11   10197   10209
   10224       5   10197   10212   10227       5   10194   10209   10197      13
   10194   10209   10224      13   10191   10182   10194      14   10191   10206
   10215       5   10188   10179   10191       5   10188   10200   10215       5
   10188   10200   10218      10   10185   10182   10191      15   10185   10182
   10194      16   10185   10197   10209      17   10185   10197   10212      17
   10182   10176   10185      18   10182   10185   10197      19   10182   10191
   10206      20   10182   10194   10209      21   10179   10176   10182      22
   10179   10176   10185      23   10179   10188   10200       5   10179   10191
   10182      20   10179   10191   10206       5   10176   10179   10188      24
   10176   10179   10191      24   10176   10182   10185      25   10176   10182
   10191      26   10176   10182   10194      27   10176   10185   10182      28
   10176   10185   10197      29   10530   10533   10545       3   10512   10530
   10533       3   10494   10512   10530       3   10482   10503   10488       5
   10473   10494   10512       3   10470   10488   10503       5   10467   10455
   10470       6   10467   10482   10503       5   10458   10473   10494       3
   10455   10467   10482       7   10455   10470   10488       7   10446   10458
   10473       3   10437   10455   10467       9   10437   10455   10470       9
   10428   10446   10458       3   10419   10437   10455       9   10416   10437
   10419       6   10416   10437   10455       9   10410   10428   10446       3
   10407   10392   10410      10   10404   10419   10437       7   10401   10389
   10404       5   10401   10416   10437       7   10392   10407   10398       5
   10392   10410   10428      11   10389   10401   10416       5   10389   10404
   10419       5   10386   10401   10389      13   10386   10401   10416      13
   10383   10374   10386      14   10383   10398   10407       5   10380   10371
   10383       5   10380   10392   10407       5   10380   10392   10410      10
   10377   10374   10383      15   10377   10374   10386      16   10377   10389
   10401      17   10377   10389   10404      17   10374   10368   10377      18
   10374   10377   10389      19   10374   10383   10398      20   10374   10386
   10401      21   10371   10368   10374      22   10371   10368   10377      23
   10371   10380   10392       5   10371   10383   10374      20   10371   10383
   10398       5   10368   10371   10380      24   10368   10371   10383      24
   10368   10374   10377      25   10368   10374   10383      26   10368   10374
   10386      27   10368   10377   10374      28   10368   10377   10389      29
   10722   10725   10737       3   10704   10722   10725       3   10686   10704
   10722       3   10674   10695   10680       5   10665   10686   10704       3
   10662   10680   10695       5   10659   10647   10662       6   10659   10674
   10695       5   10650   10665   10686       3   10647   10659   10674       7
   10647   10662   10680       7   10638   10650   10665       3   10629   10647
   10659       9   10629   10647   10662       9   10620   10638   10650       3
   10611   10629   10647       9   10608   10629   10611       6   10608   10629
   10647       9   10602   10620   10638       3   10599   10584   10602      10
   10596   10611   10629       7   10593   10581   10596       5   10593   10608
   10629       7   10584   10599   10590       5   10584   10602   10620      11
   10581   10593   10608       5   10581   10596   10611       5   10578   10593
   10581      13   10578   10593   10608      13   10575   10566   10578      14
   10575   10590   10599       5   10572   10563   10575       5   10572   10584
   10599       5   10572   10584   10602      10   10569   10566   10575      15
   10569   10566   10578      16   10569   10581   10593      17   10569   10581
   10596      17   10566   10560   10569      18   10566   10569   10581      19
   10566   10575   10590      20   10566   10578   10593      21   10563   10560
   10566      22   10563   10560   10569      23   10563   10572   10584       5
   10563   10575   10566      20   10563   10575   10590       5   10560   10563
   10572      24   10560   10563   10575      24   10560   10566   10569      25
   10560   10566   10575      26   10560   10566   10578      27   10560   10569
   10566      28   10560   10569   10581      29   10914   10917   10929       3
   10896   10914   10917       3   10878   10896   10914       3   10866   10887
   10872       5   10857   10878   10896       3   10854   10872   10887       5
   10851   10839   10854       6   10851   10866   10887       5   10842   10857
   10878       3   10839   10851   10866       7   10839   10854   10872       7
   10830   10842   10857       3   10821   10839   10851       9   10821   10839
   10854       9   10812   10830   10842       3   10803   10821   10839       9
   10800   10821   10803       6   10800   10821   10839       9   10794   10812
   10830       3   10791   10776   10794      10   10788   10803   10821       7
   10785   10773   10788       5   10785   10800   10821       7   10776   10791
   10782       5   10776   10794   10812      11   10773   10785   10800       5
   10773   10788   10803       5   10770   10785   10773      13   10770   10785
   10800      13   10767   10758   10770      14   10767   10782   10791       5
   10764   10755   10767       5   10764   10776   10791       5   10764   10776
   10794      10   10761   10758   10767      15   10761   10758   10770      16
   10761   10773   10785      17   10761   10773   10788      17   10758   10752
   10761      18   10758   10761   10773      19   10758   10767   10782      20
   10758   10770   10785      21   10755   10752   10758      22   10755   10752
   10761      23   10755   10764   10776       5   10755   10767   10758      20
   10755   10767   10782       5   10752   10755   10764      24   10752   10755
   10767      24   10752   10758   10761      25   10752   10758   10767      26
   10752   10758   10770      27   10752   10761   10758      28   10752   10761
   10773      29   11106   11109   11121       3   11088   11106   11109       3
   11070   11088   11106       3   11058   11079   11064       5   11049   11070
   11088       3   11046   11064   11079       5   11043   11031   11046       6
   11043   11058   11079       5   11034   11049   11070       3   11031   11043
   11058       7   11031   11046   11064       7   11022   11034   11049       3
   11013   11031   11043       9   11013   11031   11046       9   11004   11022
   11034       3   10995   11013   11031       9   10992   11013   10995       6
   10992   11013   11031       9   10986   11004   11022       3   10983   10968
   10986      10   10980   10995   11013       7   10977   10965   10980       5
   10977   10992   11013       7   10968   10983   10974       5   10968   10986
   11004      11   10965   10977   10992       5   10965   10980   10995       5
   10962   10977   10965      13   10962   10977   10992      13   10959   10950
   10962      14   10959   10974   10983       5   10956   10947   10959       5
   10956   10968   10983       5   10956   10968   10986      10   10953   10950
   10959      15   10953   10950   10962      16   10953   10965   10977      17
   10953   10965   10980      17   10950   10944   10953      18   10950   10953
   10965      19   10950   10959   10974      20   10950   10962   10977      21
   10947   10944   10950      22   10947   10944   10953      23   10947   10956
   10968       5   10947   10959   10950      20   10947   10959   10974       5
   10944   10947   10956      24   10944   10947   10959      24   10944   10950
   10953      25   10944   10950   10959      26   10944   10950   10962      27
   10944   10953   10950      28   10944   10953   10965      29   11298   11301
   11313       3   11280   11298   11301       3   11262   11280   11298       3
   11250   11271   11256       5   11241   11262   11280       3   11238   11256
   11271       5   11235   11223   11238       6   11235   11250   11271       5
   11226   11241   11262       3   11223   11235   11250       7   11223   11238
   11256       7   11214   11226   11241       3   11205   11223   11235       9
   11205   11223   11238       9   11196   11214   11226       3   11187   11205
   11223       9   11184   11205   11187       6   11184   11205   11223       9
   11178   11196   11214       3   11175   11160   11178      10   11172   11187
   11205       7   11169   11157   11172       5   11169   11184   11205       7
   11160   11175   11166       5   11160   11178   11196      11   11157   11169
   11184       5   11157   11172   11187       5   11154   11169   11157      13
   11154   11169   11184      13   11151   11142   11154      14   11151   11166
   11175       5   11148   11139   11151       5   11148   11160   11175       5
   11148   11160   11178      10   11145   11142   11151      15   11145   11142
   11154      16   11145   11157   11169      17   11145   11157   11172      17
   11142   11136   11145      18   11142   11145   11157      19   11142   11151
   11166      20   11142   11154   11169      21   11139   11136   11142      22
   11139   11136   11145      23   11139   11148   11160       5   11139   11151
   11142      20   11139   11151   11166       5   11136   11139   11148      24
   11136   11139   11151      24   11136   11142   11145      25   11136   11142
   11151      26   11136   11142   11154      27   11136   11145   11142      28
   11136   11145   11157      29   11490   11493   11505       3   11472   11490
   11493       3   11454   11472   11490       3   11442   11463   11448       5
   11433   11454   11472       3   11430   11448   11463       5   11427   11415
   11430       6   11427   11442   11463       5   11418   11433   11454       3
   11415   11427   11442       7   11415   11430   11448       7   11406   11418
   11433       3   11397   11415   11427       9   11397   11415   11430       9
   11388   11406   11418       3   11379   11397   11415       9   11376   11397
   11379       6   11376   11397   11415       9   11370   11388   11406       3
   11367   11352   11370      10   11364   11379   11397       7   11361   11349
   11364       5   11361   11376   11397       7   11352   11367   11358       5
   11352   11370   11388      11   11349   11361   11376       5   11349   11364
   11379       5   11346   11361   11349      13   11346   11361   11376      13
   11343   11334   11346      14   11343   11358   11367       5   11340   11331
   11343       5   11340   11352   11367       5   11340   11352   11370      10
   11337   11334   11343      15   11337   11334   11346      16   11337   11349
   11361      17   11337   11349   11364      17   11334   11328   11337      18
   11334   11337   11349      19   11334   11343   11358      20   11334   11346
   11361      21   11331   11328   11334      22   11331   11328   11337      23
   11331   11340   11352       5   11331   11343   11334      20   11331   11343
   11358       5   11328   11331   11340      24   11328   11331   11343      24
   11328   11334   11337      25   11328   11334   11343      26   11328   11334
   11346      27   11328   11337   11334      28   11328   11337   11349      29
   11682   11685   11697       3   11664   11682   11685       3   11646   11664
   11682       3   11634   11655   11640       5   11625   11646   11664       3
   11622   11640   11655       5   11619   11607   11622       6   11619   11634
   11655       5   11610   11625   11646       3   11607   11619   11634       7
   11607   11622   11640       7   11598   11610   11625       3   11589   11607
   11619       9   11589   11607   11622       9   11580   11598   11610       3
   11571   11589   11607       9   11568   11589   11571       6   11568   11589
   11607       9   11562   11580   11598       3   11559   11544   11562      10
   11556   11571   11589       7   11553   11541   11556       5   11553   11568
   11589       7   11544   11559   11550       5   11544   11562   11580      11
   11541   11553   11568       5   11541   11556   11571       5   11538   11553
   11541      13   11538   11553   11568      13   11535   11526   11538      14
   11535   11550   11559       5   11532   11523   11535       5   11532   11544
   11559       5   11532   11544   11562      10   11529   11526   11535      15
   11529   11526   11538      16   11529   11541   11553      17   11529   11541
   11556      17   11526   11520   11529      18   11526   11529   11541      19
   11526   11535   11550      20   11526   11538   11553      21   11523   11520
   11526      22   11523   11520   11529      23   11523   11532   11544       5
   11523   11535   11526      20   11523   11535   11550       5   11520   11523
   11532      24   11520   11523   11535      24   11520   11526   11529      25
   11520   11526   11535      26   11520   11526   11538      27   11520   11529
   11526      28   11520   11529   11541      29   11874   11877   11889       3
   11856   11874   11877       3   11838   11856   11874       3   11826   11847
   11832       5   11817   11838   11856       3   11814   11832   11847       5
   11811   11799   11814       6   11811   11826   11847       5   11802   11817
   11838       3   11799   11811   11826       7   11799   11814   11832       7
   11790   11802   11817       3   11781   11799   11811       9   11781   11799
   11814       9   11772   11790   11802       3   11763   11781   11799       9
   11760   11781   11763       6   11760   11781   11799       9   11754   11772
   11790       3   11751   11736   11754      10   11748   11763   11781       7
   11745   11733   11748       5   11745   11760   11781       7   11736   11751
   11742       5   11736   11754   11772      11   11733   11745   11760       5
   11733   11748   11763       5   11730   11745   11733      13   11730   11745
   11760      13   11727   11718   11730      14   11727   11742   11751       5
   11724   11715   11727       5   11724   11736   11751       5   11724   11736
   11754      10   11721   11718   11727      15   11721   11718   11730      16
   11721   11733   11745      17   11721   11733   11748      17   11718   11712
   11721      18   11718   11721   11733      19   11718   11727   11742      20
   11718   11730   11745      21   11715   11712   11718      22   11715   11712
   11721      23   11715   11724   11736       5   11715   11727   11718      20
   11715   11727   11742       5   11712   11715   11724      24   11712   11715
   11727      24   11712   11718   11721      25   11712   11718   11727      26
   11712   11718   11730      27   11712   11721   11718      28   11712   11721
   11733      29   12066   12069   12081       3   12048   12066   12069       3
   12030   12048   12066       3   12018   12039   12024       5   12009   12030
   12048       3   12006   12024   12039       5   12003   11991   12006       6
   12003   12018   12039       5   11994   12009   12030       3   11991   12003
   12018       7   11991   12006   12024       7   11982   11994   12009       3
   11973   11991   12003       9   11973   11991   12006       9   11964   11982
   11994       3   11955   11973   11991       9   11952   11973   11955       6
   11952   11973   11991       9   11946   11964   11982       3   11943   11928
   11946      10   11940   11955   11973       7   11937   11925   11940       5
   11937   11952   11973       7   11928   11943   11934       5   11928   11946
   11964      11   11925   11937   11952       5   11925   11940   11955       5
   11922   11937   11925      13   11922   11937   11952      13   11919   11910
   11922      14   11919   11934   11943       5   11916   11907   11919       5
   11916   11928   11943       5   11916   11928   11946      10   11913   11910
   11919      15   11913   11910   11922      16   11913   11925   11937      17
   11913   11925   11940      17   11910   11904   11913      18   11910   11913
   11925      19   11910   11919   11934      20   11910   11922   11937      21
   11907   11904   11910      22   11907   11904   11913      23   11907   11916
   11928       5   11907   11919   11910      20   11907   11919   11934       5
   11904   11907   11916      24   11904   11907   11919      24   11904   11910
   11913      25   11904   11910   11919      26   11904   11910   11922      27
   11904   11913   11910      28   11904   11913   11925      29   12258   12261
   12273       3   12240   12258   12261       3   12222   12240   12258       3
   12210   12231   12216       5   12201   12222   12240       3   12198   12216
   12231       5   12195   12183   12198       6   12195   12210   12231       5
   12186   12201   12222       3   12183   12195   12210       7   12183   12198
   12216       7   12174   12186   12201       3   12165   12183   12195       9
   12165   12183   12198       9   12156   12174   12186       3   12147   12165
   12183       9   12144   12165   12147       6   12144   12165   12183       9
   12138   12156   12174       3   12135   12120   12138      10   12132   12147
   12165       7   12129   12117   12132       5   12129   12144   12165       7
   12120   12135   12126       5   12120   12138   12156      11   12117   12129
   12144       5   12117   12132   12147       5   12114   12129   12117      13
   12114   12129   12144      13   12111   12102   12114      14   12111   12126
   12135       5   12108   12099   12111       5   12108   12120   12135       5
   12108   12120   12138      10   12105   12102   12111      15   12105   12102
   12114      16   12105   12117   12129      17   12105   12117   12132      17
   12102   12096   12105      18   12102   12105   12117      19   12102   12111
   12126      20   12102   12114   12129      21   12099   12096   12102      22
   12099   12096   12105      23   12099   12108   12120       5   12099   12111
   12102      20   12099   12111   12126       5   12096   12099   12108      24
   12096   12099   12111      24   12096   12102   12105      25   12096   12102
   12111      26   12096   12102   12114      27   12096   12105   12102      28
   12096   12105   12117      29   12450   12453   12465       3   12432   12450
   12453       3   12414   12432   12450       3   12402   12423   12408       5
   12393   12414   12432       3   12390   12408   12423       5   12387   12375
   12390       6   12387   12402   12423       5   12378   12393   12414       3
   12375   12387   12402       7   12375   12390   12408       7   12366   12378
   12393       3   12357   12375   12387       9   12357   12375   12390       9
   12348   12366   12378       3   12339   12357   12375       9   12336   12357
   12339       6   12336   12357   12375       9   12330   12348   12366       3
   12327   12312   12330      10   12324   12339   12357       7   12321   12309
   12324       5   12321   12336   12357       7   12312   12327   12318       5
   12312   12330   12348      11   12309   12321   12336       5   12309   12324
   12339       5   12306   12321   12309      13   12306   12321   12336      13
   12303   12294   12306      14   12303   12318   12327       5   12300   12291
   12303       5   12300   12312   12327       5   12300   12312   12330      10
   12297   12294   12303      15   12297   12294   12306      16   12297   12309
   12321      17   12297   12309   12324      17   12294   12288   12297      18
   12294   12297   12309      19   12294   12303   12318      20   12294   12306
   12321      21   12291   12288   12294      22   12291   12288   12297      23
   12291   12300   12312       5   12291   12303   12294      20   12291   12303
   12318       5   12288   12291   12300      24   12288   12291   12303      24
   12288   12294   12297      25   12288   12294   12303      26   12288   12294
   12306      27   12288   12297   12294      28   12288   12297   12309      29
   12642   12645   12657       3   12624   12642   12645       3   12606   12624
   12642       3   12594   12615   12600       5   12585   12606   12624       3
   12582   12600   12615       5   12579   12567   12582       6   12579   12594
   12615       5   12570   12585   12606       3   12567   12579   12594       7
   12567   12582   12600       7   12558   12570   12585       3   12549   12567
   12579       9   12549   12567   12582       9   12540   12558   12570       3
   12531   12549   12567       9   12528   12549   12531       6   12528   12549
   12567       9   12522   12540   12558       3   12519   12504   12522      10
   12516   12531   12549       7   12513   12501   12516       5   12513   12528
   12549       7   12504   12519   12510       5   12504   12522   12540      11
   12501   12513   12528       5   12501   12516   12531       5   12498   12513
   12501      13   12498   12513   12528      13   12495   12486   12498      14
   12495   12510   12519       5   12492   12483   12495       5   12492   12504
   12519       5   12492   12504   12522      10   12489   12486   12495      15
   12489   12486   12498      16   12489   12501   12513      17   12489   12501
   12516      17   12486   12480   12489      18   12486   12489   12501      19
   12486   12495   12510      20   12486   12498   12513      21   12483   12480
   12486      22   12483   12480   12489      23   12483   12492   12504       5
   12483   12495   12486      20   12483   12495   12510       5   12480   12483
   12492      24   12480   12483   12495      24   12480   12486   12489      25
   12480   12486   12495      26   12480   12486   12498      27   12480   12489
   12486      28   12480   12489   12501      29   12834   12837   12849       3
   12816   12834   12837       3   12798   12816   12834       3   12786   12807
   12792       5   12777   12798   12816       3   12774   12792   12807       5
   12771   12759   12774       6   12771   12786   12807       5   12762   12777
   12798       3   12759   12771   12786       7   12759   12774   12792       7
   12750   12762   12777       3   12741   12759   12771       9   12741   12759
   12774       9   12732   12750   12762       3   12723   12741   12759       9
   12720   12741   12723       6   12720   12741   12759       9   12714   12732
   12750       3   12711   12696   12714      10   12708   12723   12741       7
   12705   12693   12708       5   12705   12720   12741       7   12696   12711
   12702       5   12696   12714   12732      11   12693   12705   12720       5
   12693   12708   12723       5   12690   12705   12693      13   12690   12705
   12720      13   12687   12678   12690      14   12687   12702   12711       5
   12684   12675   12687       5   12684   12696   12711       5   12684   12696
   12714      10   12681   12678   12687      15   12681   12678   12690      16
   12681   12693   12705      17   12681   12693   12708      17   12678   12672
   12681      18   12678   12681   12693      19   12678   12687   12702      20
   12678   12690   12705      21   12675   12672   12678      22   12675   12672
   12681      23   12675   12684   12696       5   12675   12687   12678      20
   12675   12687   12702       5   12672   12675   12684      24   12672   12675
   12687      24   12672   12678   12681      25   12672   12678   12687      26
   12672   12678   12690      27   12672   12681   12678      28   12672   12681
   12693      29   13026   13029   13041       3   13008   13026   13029       3
   12990   13008   13026       3   12978   12999   12984       5   12969   12990
   13008       3   12966   12984   12999       5   12963   12951   12966       6
   12963   12978   12999       5   12954   12969   12990       3   12951   12963
   12978       7   12951   12966   12984       7   12942   12954   12969       3
   12933   12951   12963       9   12933   12951   12966       9   12924   12942
   12954       3   12915   12933   12951       9   12912   12933   12915       6
   12912   12933   12951       9   12906   12924   12942       3   12903   12888
   12906      10   12900   12915   12933       7   12897   12885   12900       5
   12897   12912   12933       7   12888   12903   12894       5   12888   12906
   12924      11   12885   12897   12912       5   12885   12900   12915       5
   12882   12897   12885      13   12882   12897   12912      13   12879   12870
   12882      14   12879   12894   12903       5   12876   12867   12879       5
   12876   12888   12903       5   12876   12888   12906      10   12873   12870
   12879      15   12873   12870   12882      16   12873   12885   12897      17
   12873   12885   12900      17   12870   12864   12873      18   12870   12873
   12885      19   12870   12879   12894      20   12870   12882   12897      21
   12867   12864   12870      22   12867   12864   12873      23   12867   12876
   12888       5   12867   12879   12870      20   12867   12879   12894       5
   12864   12867   12876      24   12864   12867   12879      24   12864   12870
   12873      25   12864   12870   12879      26   12864   12870   12882      27
   12864   12873   12870      28   12864   12873   12885      29   13218   13221
   13233       3   13200   13218   13221       3   13182   13200   13218       3
   13170   13191   13176       5   13161   13182   13200       3   13158   13176
   13191       5   13155   13143   13158       6   13155   13170   13191       5
   13146   13161   13182       3   13143   13155   13170       7   13143   13158
   13176       7   13134   13146   13161       3   13125   13143   13155       9
   13125   13143   13158       9   13116   13134   13146       3   13107   13125
   13143       9   13104   13125   13107       6   13104   13125   13143       9
   13098   13116   13134       3   13095   13080   13098      10   13092   13107
   13125       7   13089   13077   13092       5   13089   13104   13125       7
   13080   13095   13086       5   13080   13098   13116      11   13077   13089
   13104       5   13077   13092   13107       5   13074   13089   13077      13
   13074   13089   13104      13   13071   13062   13074      14   13071   13086
   13095       5   13068   13059   13071       5   13068   13080   13095       5
   13068   13080   13098      10   13065   13062   13071      15   13065   13062
   13074      16   13065   13077   13089      17   13065   13077   13092      17
   13062   13056   13065      18   13062   13065   13077      19   13062   13071
   13086      20   13062   13074   13089      21   13059   13056   13062      22
   13059   13056   13065      23   13059   13068   13080       5   13059   13071
   13062      20   13059   13071   13086       5   13056   13059   13068      24
   13056   13059   13071      24   13056   13062   13065      25   13056   13062
   13071      26   13056   13062   13074      27   13056   13065   13062      28
   13056   13065   13077      29   13410   13413   13425       3   13392   13410
   13413       3   13374   13392   13410       3   13362   13383   13368       5
   13353   13374   13392       3   13350   13368   13383       5   13347   13335
   13350       6   13347   13362   13383       5   13338   13353   13374       3
   13335   13347   13362       7   13335   13350   13368       7   13326   13338
   13353       3   13317   13335   13347       9   13317   13335   13350       9
   13308   13326   13338       3   13299   13317   13335       9   13296   13317
   13299       6   13296   13317   13335       9   13290   13308   13326       3
   13287   13272   13290      10   13284   13299   13317       7   13281   13269
   13284       5   13281   13296   13317       7   13272   13287   13278       5
   13272   13290   13308      11   13269   13281   13296       5   13269   13284
   13299       5   13266   13281   13269      13   13266   13281   13296      13
   13263   13254   13266      14   13263   13278   13287       5   13260   13251
   13263       5   13260   13272   13287       5   13260   13272   13290      10
   13257   13254   13263      15   13257   13254   13266      16   13257   13269
   13281      17   13257   13269   13284      17   13254   13248   13257      18
   13254   13257   13269      19   13254   13263   13278      20   13254   13266
   13281      21   13251   13248   13254      22   13251   13248   13257      23
   13251   13260   13272       5   13251   13263   13254      20   13251   13263
   13278       5   13248   13251   13260      24   13248   13251   13263      24
   13248   13254   13257      25   13248   13254   13263      26   13248   13254
   13266      27   13248   13257   13254      28   13248   13257   13269      29
   13602   13605   13617       3   13584   13602   13605       3   13566   13584
   13602       3   13554   13575   13560       5   13545   13566   13584       3
   13542   13560   13575       5   13539   13527   13542       6   13539   13554
   13575       5   13530   13545   13566       3   13527   13539   13554       7
   13527   13542   13560       7   13518   13530   13545       3   13509   13527
   13539       9   13509   13527   13542       9   13500   13518   13530       3
   13491   13509   13527       9   13488   13509   13491       6   13488   13509
   13527       9   13482   13500   13518       3   13479   13464   13482      10
   13476   13491   13509       7   13473   13461   13476       5   13473   13488
   13509       7   13464   13479   13470       5   13464   13482   13500      11
   13461   13473   13488       5   13461   13476   13491       5   13458   13473
   13461      13   13458   13473   13488      13   13455   13446   13458      14
   13455   13470   13479       5   13452   13443   13455       5   13452   13464
   13479       5   13452   13464   13482      10   13449   13446   13455      15
   13449   13446   13458      16   13449   13461   13473      17   13449   13461
   13476      17   13446   13440   13449      18   13446   13449   13461      19
   13446   13455   13470      20   13446   13458   13473      21   13443   13440
   13446      22   13443   13440   13449      23   13443   13452   13464       5
   13443   13455   13446      20   13443   13455   13470       5   13440   13443
   13452      24   13440   13443   13455      24   13440   13446   13449      25
   13440   13446   13455      26   13440   13446   13458      27   13440   13449
   13446      28   13440   13449   13461      29   13794   13797   13809       3
   13776   13794   13797       3   13758   13776   13794       3   13746   13767
   13752       5   13737   13758   13776       3   13734   13752   13767       5
   13731   13719   13734       6   13731   13746   13767       5   13722   13737
   13758       3   13719   13731   13746       7   13719   13734   13752       7
   13710   13722   13737       3   13701   13719   13731       9   13701   13719
   13734       9   13692   13710   13722       3   13683   13701   13719       9
   13680   13701   13683       6   13680   13701   13719       9   13674   13692
   13710       3   13671   13656   13674      10   13668   13683   13701       7
   13665   13653   13668       5   13665   13680   13701       7   13656   13671
   13662       5   13656   13674   13692      11   13653   13665   13680       5
   13653   13668   13683       5   13650   13665   13653      13   13650   13665
   13680      13   13647   13638   13650      14   13647   13662   13671       5
   13644   13635   13647       5   13644   13656   13671       5   13644   13656
   13674      10   13641   13638   13647      15   13641   13638   13650      16
   13641   13653   13665      17   13641   13653   13668      17   13638   13632
   13641      18   13638   13641   13653      19   13638   13647   13662      20
   13638   13650   13665      21   13635   13632   13638      22   13635   13632
   13641      23   13635   13644   13656       5   13635   13647   13638      20
   13635   13647   13662       5   13632   13635   13644      24   13632   13635
   13647      24   13632   13638   13641      25   13632   13638   13647      26
   13632   13638   13650      27   13632   13641   13638      28   13632   13641
   13653      29   13986   13989   14001       3   13968   13986   13989       3
   13950   13968   13986       3   13938   13959   13944       5   13929   13950
   13968       3   13926   13944   13959       5   13923   13911   13926       6
   13923   13938   13959       5   13914   13929   13950       3   13911   13923
   13938       7   13911   13926   13944       7   13902   13914   13929       3
   13893   13911   13923       9   13893   13911   13926       9   13884   13902
   13914       3   13875   13893   13911       9   13872   13893   13875       6
   13872   13893   13911       9   13866   13884   13902       3   13863   13848
   13866      10   13860   13875   13893       7   13857   13845   13860       5
   13857   13872   13893       7   13848   13863   13854       5   13848   13866
   13884      11   13845   13857   13872       5   13845   13860   13875       5
   13842   13857   13845      13   13842   13857   13872      13   13839   13830
   13842      14   13839   13854   13863       5   13836   13827   13839       5
   13836   13848   13863       5   13836   13848   13866      10   13833   13830
   13839      15   13833   13830   13842      16   13833   13845   13857      17
   13833   13845   13860      17   13830   13824   13833      18   13830   13833
   13845      19   13830   13839   13854      20   13830   13842   13857      21
   13827   13824   13830      22   13827   13824   13833      23   13827   13836
   13848       5   13827   13839   13830      20   13827   13839   13854       5
   13824   13827   13836      24   13824   13827   13839      24   13824   13830
   13833      25   13824   13830   13839      26   13824   13830   13842      27
   13824   13833   13830      28   13824   13833   13845      29   14178   14181
   14193       3   14160   14178   14181       3   14142   14160   14178       3
   14130   14151   14136       5   14121   14142   14160       3   14118   14136
   14151       5   14115   14103   14118       6   14115   14130   14151       5
   14106   14121   14142       3   14103   14115   14130       7   14103   14118
   14136       7   14094   14106   14121       3   14085   14103   14115       9
   14085   14103   14118       9   14076   14094   14106       3   14067   14085
   14103       9   14064   14085   14067       6   14064   14085   14103       9
   14058   14076   14094       3   14055   14040   14058      10   14052   14067
   14085       7   14049   14037   14052       5   14049   14064   14085       7
   14040   14055   14046       5   14040   14058   14076      11   14037   14049
   14064       5   14037   14052   14067       5   14034   14049   14037      13
   14034   14049   14064      13   14031   14022   14034      14   14031   14046
   14055       5   14028   14019   14031       5   14028   14040   14055       5
   14028   14040   14058      10   14025   14022   14031      15   14025   14022
   14034      16   14025   14037   14049      17   14025   14037   14052      17
   14022   14016   14025      18   14022   14025   14037      19   14022   14031
   14046      20   14022   14034   14049      21   14019   14016   14022      22
   14019   14016   14025      23   14019   14028   14040       5   14019   14031
   14022      20   14019   14031   14046       5   14016   14019   14028      24
   14016   14019   14031      24   14016   14022   14025      25   14016   14022
   14031      26   14016   14022   14034      27   14016   14025   14022      28
   14016   14025   14037      29   14370   14373   14385       3   14352   14370
   14373       3   14334   14352   14370       3   14322   14343   14328       5
   14313   14334   14352       3   14310   14328   14343       5   14307   14295
   14310       6   14307   14322   14343       5   14298   14313   14334       3
   14295   14307   14322       7   14295   14310   14328       7   14286   14298
   14313       3   14277   14295   14307       9   14277   14295   14310       9
   14268   14286   14298       3   14259   14277   14295       9   14256   14277
   14259       6   14256   14277   14295       9   14250   14268   14286       3
   14247   14232   14250      10   14244   14259   14277       7   14241   14229
   14244       5   14241   14256   14277       7   14232   14247   14238       5
   14232   14250   14268      11   14229   14241   14256       5   14229   14244
   14259       5   14226   14241   14229      13   14226   14241   14256      13
   14223   14214   14226      14   14223   14238   14247       5   14220   14211
   14223       5   14220   14232   14247       5   14220   14232   14250      10
   14217   14214   14223      15   14217   14214   14226      16   14217   14229
   14241      17   14217   14229   14244      17   14214   14208   14217      18
   14214   14217   14229      19   14214   14223   14238      20   14214   14226
   14241      21   14211   14208   14214      22   14211   14208   14217      23
   14211   14220   14232       5   14211   14223   14214      20   14211   14223
   14238       5   14208   14211   14220      24   14208   14211   14223      24
   14208   14214   14217      25   14208   14214   14223      26   14208   14214
   14226      27   14208   14217   14214      28   14208   14217   14229      29
   14562   14565   14577       3   14544   14562   14565       3   14526   14544
   14562       3   14514   14535   14520       5   14505   14526   14544       3
   14502   14520   14535       5   14499   14487   14502       6   14499   14514
   14535       5   14490   14505   14526       3   14487   14499   14514       7
   14487   14502   14520       7   14478   14490   14505       3   14469   14487
   14499       9   14469   14487   14502       9   14460   14478   14490       3
   14451   14469   14487       9   14448   14469   14451       6   14448   14469
   14487       9   14442   14460   14478       3   14439   14424   14442      10
   14436   14451   14469       7   14433   14421   14436       5   14433   14448
   14469       7   14424   14439   14430       5   14424   14442   14460      11
   14421   14433   14448       5   14421   14436   14451       5   14418   14433
   14421      13   14418   14433   14448      13   14415   14406   14418      14
   14415   14430   14439       5   14412   14403   14415       5   14412   14424
   14439       5   14412   14424   14442      10   14409   14406   14415      15
   14409   14406   14418      16   14409   14421   14433      17   14409   14421
   14436      17   14406   14400   14409      18   14406   14409   14421      19
   14406   14415   14430      20   14406   14418   14433      21   14403   14400
   14406      22   14403   14400   14409      23   14403   14412   14424       5
   14403   14415   14406      20   14403   14415   14430       5   14400   14403
   14412      24   14400   14403   14415      24   14400   14406   14409      25
   14400   14406   14415      26   14400   14406   14418      27   14400   14409
   14406      28   14400   14409   14421      29   14754   14757   14769       3
   14736   14754   14757       3   14718   14736   14754       3   14706   14727
   14712       5   14697   14718   14736       3   14694   14712   14727       5
   14691   14679   14694       6   14691   14706   14727       5   14682   14697
   14718       3   14679   14691   14706       7   14679   14694   14712       7
   14670   14682   14697       3   14661   14679   14691       9   14661   14679
   14694       9   14652   14670   14682       3   14643   14661   14679       9
   14640   14661   14643       6   14640   14661   14679       9   14634   14652
   14670       3   14631   14616   14634      10   14628   14643   14661       7
   14625   14613   14628       5   14625   14640   14661       7   14616   14631
   14622       5   14616   14634   14652      11   14613   14625   14640       5
   14613   14628   14643       5   14610   14625   14613      13   14610   14625
   14640      13   14607   14598   14610      14   14607   14622   14631       5
   14604   14595   14607       5   14604   14616   14631       5   14604   14616
   14634      10   14601   14598   14607      15   14601   14598   14610      16
   14601   14613   14625      17   14601   14613   14628      17   14598   14592
   14601      18   14598   14601   14613      19   14598   14607   14622      20
   14598   14610   14625      21   14595   14592   14598      22   14595   14592
   14601      23   14595   14604   14616       5   14595   14607   14598      20
   14595   14607   14622       5   14592   14595   14604      24   14592   14595
   14607      24   14592   14598   14601      25   14592   14598   14607      26
   14592   14598   14610      27   14592   14601   14598      28   14592   14601
   14613      29   14946   14949   14961       3   14928   14946   14949       3
   14910   14928   14946       3   14898   14919   14904       5   14889   14910
   14928       3   14886   14904   14919       5   14883   14871   14886       6
   14883   14898   14919       5   14874   14889   14910       3   14871   14883
   14898       7   14871   14886   14904       7   14862   14874   14889       3
   14853   14871   14883       9   14853   14871   14886       9   14844   14862
   14874       3   14835   14853   14871       9   14832   14853   14835       6
   14832   14853   14871       9   14826   14844   14862       3   14823   14808
   14826      10   14820   14835   14853       7   14817   14805   14820       5
   14817   14832   14853       7   14808   14823   14814       5   14808   14826
   14844      11   14805   14817   14832       5   14805   14820   14835       5
   14802   14817   14805      13   14802   14817   14832      13   14799   14790
   14802      14   14799   14814   14823       5   14796   14787   14799       5
   14796   14808   14823       5   14796   14808   14826      10   14793   14790
   14799      15   14793   14790   14802      16   14793   14805   14817      17
   14793   14805   14820      17   14790   14784   14793      18   14790   14793
   14805      19   14790   14799   14814      20   14790   14802   14817      21
   14787   14784   14790      22   14787   14784   14793      23   14787   14796
   14808       5   14787   14799   14790      20   14787   14799   14814       5
   14784   14787   14796      24   14784   14787   14799      24   14784   14790
   14793      25   14784   14790   14799      26   14784   14790   14802      27
   14784   14793   14790      28   14784   14793   14805      29   15138   15141
   15153       3   15120   15138   15141       3   15102   15120   15138       3
   15090   15111   15096       5   15081   15102   15120       3   15078   15096
   15111       5   15075   15063   15078       6   15075   15090   15111       5
   15066   15081   15102       3   15063   15075   15090       7   15063   15078
   15096       7   15054   15066   15081       3   15045   15063   15075       9
   15045   15063   15078       9   15036   15054   15066       3   15027   15045
   15063       9   15024   15045   15027       6   15024   15045   15063       9
   15018   15036   15054       3   15015   15000   15018      10   15012   15027
   15045       7   15009   14997   15012       5   15009   15024   15045       7
   15000   15015   15006       5   15000   15018   15036      11   14997   15009
   15024       5   14997   15012   15027       5   14994   15009   14997      13
   14994   15009   15024      13   14991   14982   14994      14   14991   15006
   15015       5   14988   14979   14991       5   14988   15000   15015       5
   14988   15000   15018      10   14985   14982   14991      15   14985   14982
   14994      16   14985   14997   15009      17   14985   14997   15012      17
   14982   14976   14985      18   14982   14985   14997      19   14982   14991
   15006      20   14982   14994   15009      21   14979   14976   14982      22
   14979   14976   14985      23   14979   14988   15000       5   14979   14991
   14982      20   14979   14991   15006       5   14976   14979   14988      24
   14976   14979   14991      24   14976   14982   14985      25   14976   14982
   14991      26   14976   14982   14994      27   14976   14985   14982      28
   14976   14985   14997      29   15330   15333   15345       3   15312   15330
   15333       3   15294   15312   15330       3   15282   15303   15288       5
   15273   15294   15312       3   15270   15288   15303       5   15267   15255
   15270       6   15267   15282   15303       5   15258   15273   15294       3
   15255   15267   15282       7   15255   15270   15288       7   15246   15258
   15273       3   15237   15255   15267       9   15237   15255   15270       9
   15228   15246   15258       3   15219   15237   15255       9   15216   15237
   15219       6   15216   15237   15255       9   15210   15228   15246       3
   15207   15192   15210      10   15204   15219   15237       7   15201   15189
   15204       5   15201   15216   15237       7   15192   15207   15198       5
   15192   15210   15228      11   15189   15201   15216       5   15189   15204
   15219       5   15186   15201   15189      13   15186   15201   15216      13
   15183   15174   15186      14   15183   15198   15207       5   15180   15171
   15183       5   15180   15192   15207       5   15180   15192   15210      10
   15177   15174   15183      15   15177   15174   15186      16   15177   15189
   15201      17   15177   15189   15204      17   15174   15168   15177      18
   15174   15177   15189      19   15174   15183   15198      20   15174   15186
   15201      21   15171   15168   15174      22   15171   15168   15177      23
   15171   15180   15192       5   15171   15183   15174      20   15171   15183
   15198       5   15168   15171   15180      24   15168   15171   15183      24
   15168   15174   15177      25   15168   15174   15183      26   15168   15174
   15186      27   15168   15177   15174      28   15168   15177   15189      29
   15522   15525   15537       3   15504   15522   15525       3   15486   15504
   15522       3   15474   15495   15480       5   15465   15486   15504       3
   15462   15480   15495       5   15459   15447   15462       6   15459   15474
   15495       5   15450   15465   15486       3   15447   15459   15474       7
   15447   15462   15480       7   15438   15450   15465       3   15429   15447
   15459       9   15429   15447   15462       9   15420   15438   15450       3
   15411   15429   15447       9   15408   15429   15411       6   15408   15429
   15447       9   15402   15420   15438       3   15399   15384   15402      10
   15396   15411   15429       7   15393   15381   15396       5   15393   15408
   15429       7   15384   15399   15390       5   15384   15402   15420      11
   15381   15393   15408       5   15381   15396   15411       5   15378   15393
   15381      13   15378   15393   15408      13   15375   15366   15378      14
   15375   15390   15399       5   15372   15363   15375       5   15372   15384
   15399       5   15372   15384   15402      10   15369   15366   15375      15
   15369   15366   15378      16   15369   15381   15393      17   15369   15381
   15396      17   15366   15360   15369      18   15366   15369   15381      19
   15366   15375   15390      20   15366   15378   15393      21   15363   15360
   15366      22   15363   15360   15369      23   15363   15372   15384       5
   15363   15375   15366      20   15363   15375   15390       5   15360   15363
   15372      24   15360   15363   15375      24   15360   15366   15369      25
   15360   15366   15375      26   15360   15366   15378      27   15360   15369
   15366      28   15360   15369   15381      29   15714   15717   15729       3
   15696   15714   15717       3   15678   15696   15714       3   15666   15687
   15672       5   15657   15678   15696       3   15654   15672   15687       5
   15651   15639   15654       6   15651   15666   15687       5   15642   15657
   15678       3   15639   15651   15666       7   15639   15654   15672       7
   15630   15642   15657       3   15621   15639   15651       9   15621   15639
   15654       9   15612   15630   15642       3   15603   15621   15639       9
   15600   15621   15603       6   15600   15621   15639       9   15594   15612
   15630       3   15591   15576   15594      10   15588   15603   15621       7
   15585   15573   15588       5   15585   15600   15621       7   15576   15591
   15582       5   15576   15594   15612      11   15573   15585   15600       5
   15573   15588   15603       5   15570   15585   15573      13   15570   15585
   15600      13   15567   15558   15570      14   15567   15582   15591       5
   15564   15555   15567       5   15564   15576   15591       5   15564   15576
   15594      10   15561   15558   15567      15   15561   15558   15570      16
   15561   15573   15585      17   15561   15573   15588      17   15558   15552
   15561      18   15558   15561   15573      19   15558   15567   15582      20
   15558   15570   15585      21   15555   15552   15558      22   15555   15552
   15561      23   15555   15564   15576       5   15555   15567   15558      20
   15555   15567   15582       5   15552   15555   15564      24   15552   15555
   15567      24   15552   15558   15561      25   15552   15558   15567      26
   15552   15558   15570      27   15552   15561   15558      28   15552   15561
   15573      29   15906   15909   15921       3   15888   15906   15909       3
   15870   15888   15906       3   15858   15879   15864       5   15849   15870
   15888       3   15846   15864   15879       5   15843   15831   15846       6
   15843   15858   15879       5   15834   15849   15870       3   15831   15843
   15858       7   15831   15846   15864       7   15822   15834   15849       3
   15813   15831   15843       9   15813   15831   15846       9   15804   15822
   15834       3   15795   15813   15831       9   15792   15813   15795       6
   15792   15813   15831       9   15786   15804   15822       3   15783   15768
   15786      10   15780   15795   15813       7   15777   15765   15780       5
   15777   15792   15813       7   15768   15783   15774       5   15768   15786
   15804      11   15765   15777   15792       5   15765   15780   15795       5
   15762   15777   15765      13   15762   15777   15792      13   15759   15750
   15762      14   15759   15774   15783       5   15756   15747   15759       5
   15756   15768   15783       5   15756   15768   15786      10   15753   15750
   15759      15   15753   15750   15762      16   15753   15765   15777      17
   15753   15765   15780      17   15750   15744   15753      18   15750   15753
   15765      19   15750   15759   15774      20   15750   15762   15777      21
   15747   15744   15750      22   15747   15744   15753      23   15747   15756
   15768       5   15747   15759   15750      20   15747   15759   15774       5
   15744   15747   15756      24   15744   15747   15759      24   15744   15750
   15753      25   15744   15750   15759      26   15744   15750   15762      27
   15744   15753   15750      28   15744   15753   15765      29   16098   16101
   16113       3   16080   16098   16101       3   16062   16080   16098       3
   16050   16071   16056       5   16041   16062   16080       3   16038   16056
   16071       5   16035   16023   16038       6   16035   16050   16071       5
   16026   16041   16062       3   16023   16035   16050       7   16023   16038
   16056       7   16014   16026   16041       3   16005   16023   16035       9
   16005   16023   16038       9   15996   16014   16026       3   15987   16005
   16023       9   15984   16005   15987       6   15984   16005   16023       9
   15978   15996   16014       3   15975   15960   15978      10   15972   15987
   16005       7   15969   15957   15972       5   15969   15984   16005       7
   15960   15975   15966       5   15960   15978   15996      11   15957   15969
   15984       5   15957   15972   15987       5   15954   15969   15957      13
   15954   15969   15984      13   15951   15942   15954      14   15951   15966
   15975       5   15948   15939   15951       5   15948   15960   15975       5
   15948   15960   15978      10   15945   15942   15951      15   15945   15942
   15954      16   15945   15957   15969      17   15945   15957   15972      17
   15942   15936   15945      18   15942   15945   15957      19   15942   15951
   15966      20   15942   15954   15969      21   15939   15936   15942      22
   15939   15936   15945      23   15939   15948   15960       5   15939   15951
   15942      20   15939   15951   15966       5   15936   15939   15948      24
   15936   15939   15951      24   15936   15942   15945      25   15936   15942
   15951      26   15936   15942   15954      27   15936   15945   15942      28
   15936   15945   15957      29   16290   16293   16305       3   16272   16290
   16293       3   16254   16272   16290       3   16242   16263   16248       5
   16233   16254   16272       3   16230   16248   16263       5   16227   16215
   16230       6   16227   16242   16263       5   16218   16233   16254       3
   16215   16227   16242       7   16215   16230   16248       7   16206   16218
   16233       3   16197   16215   16227       9   16197   16215   16230       9
   16188   16206   16218       3   16179   16197   16215       9   16176   16197
   16179       6   16176   16197   16215       9   16170   16188   16206       3
   16167   16152   16170      10   16164   16179   16197       7   16161   16149
   16164       5   16161   16176   16197       7   16152   16167   16158       5
   16152   16170   16188      11   16149   16161   16176       5   16149   16164
   16179       5   16146   16161   16149      13   16146   16161   16176      13
   16143   16134   16146      14   16143   16158   16167       5   16140   16131
   16143       5   16140   16152   16167       5   16140   16152   16170      10
   16137   16134   16143      15   16137   16134   16146      16   16137   16149
   16161      17   16137   16149   16164      17   16134   16128   16137      18
   16134   16137   16149      19   16134   16143   16158      20   16134   16146
   16161      21   16131   16128   16134      22   16131   16128   16137      23
   16131   16140   16152       5   16131   16143   16134      20   16131   16143
   16158       5   16128   16131   16140      24   16128   16131   16143      24
   16128   16134   16137      25   16128   16134   16143      26   16128   16134
   16146      27   16128   16137   16134      28   16128   16137   16149      29
   16482   16485   16497       3   16464   16482   16485       3   16446   16464
   16482       3   16434   16455   16440       5   16425   16446   16464       3
   16422   16440   16455       5   16419   16407   16422       6   16419   16434
   16455       5   16410   16425   16446       3   16407   16419   16434       7
   16407   16422   16440       7   16398   16410   16425       3   16389   16407
   16419       9   16389   16407   16422       9   16380   16398   16410       3
   16371   16389   16407       9   16368   16389   16371       6   16368   16389
   16407       9   16362   16380   16398       3   16359   16344   16362      10
   16356   16371   16389       7   16353   16341   16356       5   16353   16368
   16389       7   16344   16359   16350       5   16344   16362   16380      11
   16341   16353   16368       5   16341   16356   16371       5   16338   16353
   16341      13   16338   16353   16368      13   16335   16326   16338      14
   16335   16350   16359       5   16332   16323   16335       5   16332   16344
   16359       5   16332   16344   16362      10   16329   16326   16335      15
   16329   16326   16338      16   16329   16341   16353      17   16329   16341
   16356      17   16326   16320   16329      18   16326   16329   16341      19
   16326   16335   16350      20   16326   16338   16353      21   16323   16320
   16326      22   16323   16320   16329      23   16323   16332   16344       5
   16323   16335   16326      20   16323   16335   16350       5   16320   16323
   16332      24   16320   16323   16335      24   16320   16326   16329      25
   16320   16326   16335      26   16320   16326   16338      27   16320   16329
   16326      28   16320   16329   16341      29   16674   16677   16689       3
   16656   16674   16677       3   16638   16656   16674       3   16626   16647
   16632       5   16617   16638   16656       3   16614   16632   16647       5
   16611   16599   16614       6   16611   16626   16647       5   16602   16617
   16638       3   16599   16611   16626       7   16599   16614   16632       7
   16590   16602   16617       3   16581   16599   16611       9   16581   16599
   16614       9   16572   16590   16602       3   16563   16581   16599       9
   16560   16581   16563       6   16560   16581   16599       9   16554   16572
   16590       3   16551   16536   16554      10   16548   16563   16581       7
   16545   16533   16548       5   16545   16560   16581       7   16536   16551
   16542       5   16536   16554   16572      11   16533   16545   16560       5
   16533   16548   16563       5   16530   16545   16533      13   16530   16545
   16560      13   16527   16518   16530      14   16527   16542   16551       5
   16524   16515   16527       5   16524   16536   16551       5   16524   16536
   16554      10   16521   16518   16527      15   16521   16518   16530      16
   16521   16533   16545      17   16521   16533   16548      17   16518   16512
   16521      18   16518   16521   16533      19   16518   16527   16542      20
   16518   16530   16545      21   16515   16512   16518      22   16515   16512
   16521      23   16515   16524   16536       5   16515   16527   16518      20
   16515   16527   16542       5   16512   16515   16524      24   16512   16515
   16527      24   16512   16518   16521      25   16512   16518   16527      26
   16512   16518   16530      27   16512   16521   16518      28   16512   16521
   16533      29   16866   16869   16881       3   16848   16866   16869       3
   16830   16848   16866       3   16818   16839   16824       5   16809   16830
   16848       3   16806   16824   16839       5   16803   16791   16806       6
   16803   16818   16839       5   16794   16809   16830       3   16791   16803
   16818       7   16791   16806   16824       7   16782   16794   16809       3
   16773   16791   16803       9   16773   16791   16806       9   16764   16782
   16794       3   16755   16773   16791       9   16752   16773   16755       6
   16752   16773   16791       9   16746   16764   16782       3   16743   16728
   16746      10   16740   16755   16773       7   16737   16725   16740       5
   16737   16752   16773       7   16728   16743   16734       5   16728   16746
   16764      11   16725   16737   16752       5   16725   16740   16755       5
   16722   16737   16725      13   16722   16737   16752      13   16719   16710
   16722      14   16719   16734   16743       5   16716   16707   16719       5
   16716   16728   16743       5   16716   16728   16746      10   16713   16710
   16719      15   16713   16710   16722      16   16713   16725   16737      17
   16713   16725   16740      17   16710   16704   16713      18   16710   16713
   16725      19   16710   16719   16734      20   16710   16722   16737      21
   16707   16704   16710      22   16707   16704   16713      23   16707   16716
   16728       5   16707   16719   16710      20   16707   16719   16734       5
   16704   16707   16716      24   16704   16707   16719      24   16704   16710
   16713      25   16704   16710   16719      26   16704   16710   16722      27
   16704   16713   16710      28   16704   16713   16725      29   17058   17061
   17073       3   17040   17058   17061       3   17022   17040   17058       3
   17010   17031   17016       5   17001   17022   17040       3   16998   17016
   17031       5   16995   16983   16998       6   16995   17010   17031       5
   16986   17001   17022       3   16983   16995   17010       7   16983   16998
   17016       7   16974   16986   17001       3   16965   16983   16995       9
   16965   16983   16998       9   16956   16974   16986       3   16947   16965
   16983       9   16944   16965   16947       6   16944   16965   16983       9
   16938   16956   16974       3   16935   16920   16938      10   16932   16947
   16965       7   16929   16917   16932       5   16929   16944   16965       7
   16920   16935   16926       5   16920   16938   16956      11   16917   16929
   16944       5   16917   16932   16947       5   16914   16929   16917      13
   16914   16929   16944      13   16911   16902   16914      14   16911   16926
   16935       5   16908   16899   16911       5   16908   16920   16935       5
   16908   16920   16938      10   16905   16902   16911      15   16905   16902
   16914      16   16905   16917   16929      17   16905   16917   16932      17
   16902   16896   16905      18   16902   16905   16917      19   16902   16911
   16926      20   16902   16914   16929      21   16899   16896   16902      22
   16899   16896   16905      23   16899   16908   16920       5   16899   16911
   16902      20   16899   16911   16926       5   16896   16899   16908      24
   16896   16899   16911      24   16896   16902   16905      25   16896   16902
   16911      26   16896   16902   16914      27   16896   16905   16902      28
   16896   16905   16917      29   17250   17253   17265       3   17232   17250
   17253       3   17214   17232   17250       3   17202   17223   17208       5
   17193   17214   17232       3   17190   17208   17223       5   17187   17175
   17190       6   17187   17202   17223       5   17178   17193   17214       3
   17175   17187   17202       7   17175   17190   17208       7   17166   17178
   17193       3   17157   17175   17187       9   17157   17175   17190       9
   17148   17166   17178       3   17139   17157   17175       9   17136   17157
   17139       6   17136   17157   17175       9   17130   17148   17166       3
   17127   17112   17130      10   17124   17139   17157       7   17121   17109
   17124       5   17121   17136   17157       7   17112   17127   17118       5
   17112   17130   17148      11   17109   17121   17136       5   17109   17124
   17139       5   17106   17121   17109      13   17106   17121   17136      13
   17103   17094   17106      14   17103   17118   17127       5   17100   17091
   17103       5   17100   17112   17127       5   17100   17112   17130      10
   17097   17094   17103      15   17097   17094   17106      16   17097   17109
   17121      17   17097   17109   17124      17   17094   17088   17097      18
   17094   17097   17109      19   17094   17103   17118      20   17094   17106
   17121      21   17091   17088   17094      22   17091   17088   17097      23
   17091   17100   17112       5   17091   17103   17094      20   17091   17103
   17118       5   17088   17091   17100      24   17088   17091   17103      24
   17088   17094   17097      25   17088   17094   17103      26   17088   17094
   17106      27   17088   17097   17094      28   17088   17097   17109      29
   17442   17445   17457       3   17424   17442   17445       3   17406   17424
   17442       3   17394   17415   17400       5   17385   17406   17424       3
   17382   17400   17415       5   17379   17367   17382       6   17379   17394
   17415       5   17370   17385   17406       3   17367   17379   17394       7
   17367   17382   17400       7   17358   17370   17385       3   17349   17367
   17379       9   17349   17367   17382       9   17340   17358   17370       3
   17331   17349   17367       9   17328   17349   17331       6   17328   17349
   17367       9   17322   17340   17358       3   17319   17304   17322      10
   17316   17331   17349       7   17313   17301   17316       5   17313   17328
   17349       7   17304   17319   17310       5   17304   17322   17340      11
   17301   17313   17328       5   17301   17316   17331       5   17298   17313
   17301      13   17298   17313   17328      13   17295   17286   17298      14
   17295   17310   17319       5   17292   17283   17295       5   17292   17304
   17319       5   17292   17304   17322      10   17289   17286   17295      15
   17289   17286   17298      16   17289   17301   17313      17   17289   17301
   17316      17   17286   17280   17289      18   17286   17289   17301      19
   17286   17295   17310      20   17286   17298   17313      21   17283   17280
   17286      22   17283   17280   17289      23   17283   17292   17304       5
   17283   17295   17286      20   17283   17295   17310       5   17280   17283
   17292      24   17280   17283   17295      24   17280   17286   17289      25
   17280   17286   17295      26   17280   17286   17298      27   17280   17289
   17286      28   17280   17289   17301      29   17634   17637   17649       3
   17616   17634   17637       3   17598   17616   17634       3   17586   17607
   17592       5   17577   17598   17616       3   17574   17592   17607       5
   17571   17559   17574       6   17571   17586   17607       5   17562   17577
   17598       3   17559   17571   17586       7   17559   17574   17592       7
   17550   17562   17577       3   17541   17559   17571       9   17541   17559
   17574       9   17532   17550   17562       3   17523   17541   17559       9
   17520   17541   17523       6   17520   17541   17559       9   17514   17532
   17550       3   17511   17496   17514      10   17508   17523   17541       7
   17505   17493   17508       5   17505   17520   17541       7   17496   17511
   17502       5   17496   17514   17532      11   17493   17505   17520       5
   17493   17508   17523       5   17490   17505   17493      13   17490   17505
   17520      13   17487   17478   17490      14   17487   17502   17511       5
   17484   17475   17487       5   17484   17496   17511       5   17484   17496
   17514      10   17481   17478   17487      15   17481   17478   17490      16
   17481   17493   17505      17   17481   17493   17508      17   17478   17472
   17481      18   17478   17481   17493      19   17478   17487   17502      20
   17478   17490   17505      21   17475   17472   17478      22   17475   17472
   17481      23   17475   17484   17496       5   17475   17487   17478      20
   17475   17487   17502       5   17472   17475   17484      24   17472   17475
   17487      24   17472   17478   17481      25   17472   17478   17487      26
   17472   17478   17490      27   17472   17481   17478      28   17472   17481
   17493      29   17826   17829   17841       3   17808   17826   17829       3
   17790   17808   17826       3   17778   17799   17784       5   17769   17790
   17808       3   17766   17784   17799       5   17763   17751   17766       6
   17763   17778   17799       5   17754   17769   17790       3   17751   17763
   17778       7   17751   17766   17784       7   17742   17754   17769       3
   17733   17751   17763       9   17733   17751   17766       9   17724   17742
   17754       3   17715   17733   17751       9   17712   17733   17715       6
   17712   17733   17751       9   17706   17724   17742       3   17703   17688
   17706      10   17700   17715   17733       7   17697   17685   17700       5
   17697   17712   17733       7   17688   17703   17694       5   17688   17706
   17724      11   17685   17697   17712       5   17685   17700   17715       5
   17682   17697   17685      13   17682   17697   17712      13   17679   17670
   17682      14   17679   17694   17703       5   17676   17667   17679       5
   17676   17688   17703       5   17676   17688   17706      10   17673   17670
   17679      15   17673   17670   17682      16   17673   17685   17697      17
   17673   17685   17700      17   17670   17664   17673      18   17670   17673
   17685      19   17670   17679   17694      20   17670   17682   17697      21
   17667   17664   17670      22   17667   17664   17673      23   17667   17676
   17688       5   17667   17679   17670      20   17667   17679   17694       5
   17664   17667   17676      24   17664   17667   17679      24   17664   17670
   17673      25   17664   17670   17679      26   17664   17670   17682      27
   17664   17673   17670      28   17664   17673   17685      29   18018   18021
   18033       3   18000   18018   18021       3   17982   18000   18018       3
   17970   17991   17976       5   17961   17982   18000       3   17958   17976
   17991       5   17955   17943   17958       6   17955   17970   17991       5
   17946   17961   17982       3   17943   17955   17970       7   17943   17958
   17976       7   17934   17946   17961       3   17925   17943   17955       9
   17925   17943   17958       9   17916   17934   17946       3   17907   17925
   17943       9   17904   17925   17907       6   17904   17925   17943       9
   17898   17916   17934       3   17895   17880   17898      10   17892   17907
   17925       7   17889   17877   17892       5   17889   17904   17925       7
   17880   17895   17886       5   17880   17898   17916      11   17877   17889
   17904       5   17877   17892   17907       5   17874   17889   17877      13
   17874   17889   17904      13   17871   17862   17874      14   17871   17886
   17895       5   17868   17859   17871       5   17868   17880   17895       5
   17868   17880   17898      10   17865   17862   17871      15   17865   17862
   17874      16   17865   17877   17889      17   17865   17877   17892      17
   17862   17856   17865      18   17862   17865   17877      19   17862   17871
   17886      20   17862   17874   17889      21   17859   17856   17862      22
   17859   17856   17865      23   17859   17868   17880       5   17859   17871
   17862      20   17859   17871   17886       5   17856   17859   17868      24
   17856   17859   17871      24   17856   17862   17865      25   17856   17862
   17871      26   17856   17862   17874      27   17856   17865   17862      28
   17856   17865   17877      29   18210   18213   18225       3   18192   18210
   18213       3   18174   18192   18210       3   18162   18183   18168       5
   18153   18174   18192       3   18150   18168   18183       5   18147   18135
   18150       6   18147   18162   18183       5   18138   18153   18174       3
   18135   18147   18162       7   18135   18150   18168       7   18126   18138
   18153       3   18117   18135   18147       9   18117   18135   18150       9
   18108   18126   18138       3   18099   18117   18135       9   18096   18117
   18099       6   18096   18117   18135       9   18090   18108   18126       3
   18087   18072   18090      10   18084   18099   18117       7   18081   18069
   18084       5   18081   18096   18117       7   18072   18087   18078       5
   18072   18090   18108      11   18069   18081   18096       5   18069   18084
   18099       5   18066   18081   18069      13   18066   18081   18096      13
   18063   18054   18066      14   18063   18078   18087       5   18060   18051
   18063       5   18060   18072   18087       5   18060   18072   18090      10
   18057   18054   18063      15   18057   18054   18066      16   18057   18069
   18081      17   18057   18069   18084      17   18054   18048   18057      18
   18054   18057   18069      19   18054   18063   18078      20   18054   18066
   18081      21   18051   18048   18054      22   18051   18048   18057      23
   18051   18060   18072       5   18051   18063   18054      20   18051   18063
   18078       5   18048   18051   18060      24   18048   18051   18063      24
   18048   18054   18057      25   18048   18054   18063      26   18048   18054
   18066      27   18048   18057   18054      28   18048   18057   18069      29
   18402   18405   18417       3   18384   18402   18405       3   18366   18384
   18402       3   18354   18375   18360       5   18345   18366   18384       3
   18342   18360   18375       5   18339   18327   18342       6   18339   18354
   18375       5   18330   18345   18366       3   18327   18339   18354       7
   18327   18342   18360       7   18318   18330   18345       3   18309   18327
   18339       9   18309   18327   18342       9   18300   18318   18330       3
   18291   18309   18327       9   18288   18309   18291       6   18288   18309
   18327       9   18282   18300   18318       3   18279   18264   18282      10
   18276   18291   18309       7   18273   18261   18276       5   18273   18288
   18309       7   18264   18279   18270       5   18264   18282   18300      11
   18261   18273   18288       5   18261   18276   18291       5   18258   18273
   18261      13   18258   18273   18288      13   18255   18246   18258      14
   18255   18270   18279       5   18252   18243   18255       5   18252   18264
   18279       5   18252   18264   18282      10   18249   18246   18255      15
   18249   18246   18258      16   18249   18261   18273      17   18249   18261
   18276      17   18246   18240   18249      18   18246   18249   18261      19
   18246   18255   18270      20   18246   18258   18273      21   18243   18240
   18246      22   18243   18240   18249      23   18243   18252   18264       5
   18243   18255   18246      20   18243   18255   18270       5   18240   18243
   18252      24   18240   18243   18255      24   18240   18246   18249      25
   18240   18246   18255      26   18240   18246   18258      27   18240   18249
   18246      28   18240   18249   18261      29   18594   18597   18609       3
   18576   18594   18597       3   18558   18576   18594       3   18546   18567
   18552       5   18537   18558   18576       3   18534   18552   18567       5
   18531   18519   18534       6   18531   18546   18567       5   18522   18537
   18558       3   18519   18531   18546       7   18519   18534   18552       7
   18510   18522   18537       3   18501   18519   18531       9   18501   18519
   18534       9   18492   18510   18522       3   18483   18501   18519       9
   18480   18501   18483       6   18480   18501   18519       9   18474   18492
   18510       3   18471   18456   18474      10   18468   18483   18501       7
   18465   18453   18468       5   18465   18480   18501       7   18456   18471
   18462       5   18456   18474   18492      11   18453   18465   18480       5
   18453   18468   18483       5   18450   18465   18453      13   18450   18465
   18480      13   18447   18438   18450      14   18447   18462   18471       5
   18444   18435   18447       5   18444   18456   18471       5   18444   18456
   18474      10   18441   18438   18447      15   18441   18438   18450      16
   18441   18453   18465      17   18441   18453   18468      17   18438   18432
   18441      18   18438   18441   18453      19   18438   18447   18462      20
   18438   18450   18465      21   18435   18432   18438      22   18435   18432
   18441      23   18435   18444   18456       5   18435   18447   18438      20
   18435   18447   18462       5   18432   18435   18444      24   18432   18435
   18447      24   18432   18438   18441      25   18432   18438   18447      26
   18432   18438   18450      27   18432   18441   18438      28   18432   18441
   18453      29   18786   18789   18801       3   18768   18786   18789       3
   18750   18768   18786       3   18738   18759   18744       5   18729   18750
   18768       3   18726   18744   18759       5   18723   18711   18726       6
   18723   18738   18759       5   18714   18729   18750       3   18711   18723
   18738       7   18711   18726   18744       7   18702   18714   18729       3
   18693   18711   18723       9   18693   18711   18726       9   18684   18702
   18714       3   18675   18693   18711       9   18672   18693   18675       6
   18672   18693   18711       9   18666   18684   18702       3   18663   18648
   18666      10   18660   18675   18693       7   18657   18645   18660       5
   18657   18672   18693       7   18648   18663   18654       5   18648   18666
   18684      11   18645   18657   18672       5   18645   18660   18675       5
   18642   18657   18645      13   18642   18657   18672      13   18639   18630
   18642      14   18639   18654   18663       5   18636   18627   18639       5
   18636   18648   18663       5   18636   18648   18666      10   18633   18630
   18639      15   18633   18630   18642      16   18633   18645   18657      17
   18633   18645   18660      17   18630   18624   18633      18   18630   18633
   18645      19   18630   18639   18654      20   18630   18642   18657      21
   18627   18624   18630      22   18627   18624   18633      23   18627   18636
   18648       5   18627   18639   18630      20   18627   18639   18654       5
   18624   18627   18636      24   18624   18627   18639      24   18624   18630
   18633      25   18624   18630   18639      26   18624   18630   18642      27
   18624   18633   18630      28   18624   18633   18645      29   18978   18981
   18993       3   18960   18978   18981       3   18942   18960   18978       3
   18930   18951   18936       5   18921   18942   18960       3   18918   18936
   18951       5   18915   18903   18918       6   18915   18930   18951       5
   18906   18921   18942       3   18903   18915   18930       7   18903   18918
   18936       7   18894   18906   18921       3   18885   18903   18915       9
   18885   18903   18918       9   18876   18894   18906       3   18867   18885
   18903       9   18864   18885   18867       6   18864   18885   18903       9
   18858   18876   18894       3   18855   18840   18858      10   18852   18867
   18885       7   18849   18837   18852       5   18849   18864   18885       7
   18840   18855   18846       5   18840   18858   18876      11   18837   18849
   18864       5   18837   18852   18867       5   18834   18849   18837      13
   18834   18849   18864      13   18831   18822   18834      14   18831   18846
   18855       5   18828   18819   18831       5   18828   18840   18855       5
   18828   18840   18858      10   18825   18822   18831      15   18825   18822
   18834      16   18825   18837   18849      17   18825   18837   18852      17
   18822   18816   18825      18   18822   18825   18837      19   18822   18831
   18846      20   18822   18834   18849      21   18819   18816   18822      22
   18819   18816   18825      23   18819   18828   18840       5   18819   18831
   18822      20   18819   18831   18846       5   18816   18819   18828      24
   18816   18819   18831      24   18816   18822   18825      25   18816   18822
   18831      26   18816   18822   18834      27   18816   18825   18822      28
   18816   18825   18837      29   19170   19173   19185       3   19152   19170
   19173       3   19134   19152   19170       3   19122   19143   19128       5
   19113   19134   19152       3   19110   19128   19143       5   19107   19095
   19110       6   19107   19122   19143       5   19098   19113   19134       3
   19095   19107   19122       7   19095   19110   19128       7   19086   19098
   19113       3   19077   19095   19107       9   19077   19095   19110       9
   19068   19086   19098       3   19059   19077   19095       9   19056   19077
   19059       6   19056   19077   19095       9   19050   19068   19086       3
   19047   19032   19050      10   19044   19059   19077       7   19041   19029
   19044       5   19041   19056   19077       7   19032   19047   19038       5
   19032   19050   19068      11   19029   19041   19056       5   19029   19044
   19059       5   19026   19041   19029      13   19026   19041   19056      13
   19023   19014   19026      14   19023   19038   19047       5   19020   19011
   19023       5   19020   19032   19047       5   19020   19032   19050      10
   19017   19014   19023      15   19017   19014   19026      16   19017   19029
   19041      17   19017   19029   19044      17   19014   19008   19017      18
   19014   19017   19029      19   19014   19023   19038      20   19014   19026
   19041      21   19011   19008   19014      22   19011   19008   19017      23
   19011   19020   19032       5   19011   19023   19014      20   19011   19023
   19038       5   19008   19011   19020      24   19008   19011   19023      24
   19008   19014   19017      25   19008   19014   19023      26   19008   19014
   19026      27   19008   19017   19014      28   19008   19017   19029      29
   19362   19365   19377       3   19344   19362   19365       3   19326   19344
   19362       3   19314   19335   19320       5   19305   19326   19344       3
   19302   19320   19335       5   19299   19287   19302       6   19299   19314
   19335       5   19290   19305   19326       3   19287   19299   19314       7
   19287   19302   19320       7   19278   19290   19305       3   19269   19287
   19299       9   19269   19287   19302       9   19260   19278   19290       3
   19251   19269   19287       9   19248   19269   19251       6   19248   19269
   19287       9   19242   19260   19278       3   19239   19224   19242      10
   19236   19251   19269       7   19233   19221   19236       5   19233   19248
   19269       7   19224   19239   19230       5   19224   19242   19260      11
   19221   19233   19248       5   19221   19236   19251       5   19218   19233
   19221      13   19218   19233   19248      13   19215   19206   19218      14
   19215   19230   19239       5   19212   19203   19215       5   19212   19224
   19239       5   19212   19224   19242      10   19209   19206   19215      15
   19209   19206   19218      16   19209   19221   19233      17   19209   19221
   19236      17   19206   19200   19209      18   19206   19209   19221      19
   19206   19215   19230      20   19206   19218   19233      21   19203   19200
   19206      22   19203   19200   19209      23   19203   19212   19224       5
   19203   19215   19206      20   19203   19215   19230       5   19200   19203
   19212      24   19200   19203   19215      24   19200   19206   19209      25
   19200   19206   19215      26   19200   19206   19218      27   19200   19209
   19206      28   19200   19209   19221      29   19554   19557   19569       3
   19536   19554   19557       3   19518   19536   19554       3   19506   19527
   19512       5   19497   19518   19536       3   19494   19512   19527       5
   19491   19479   19494       6   19491   19506   19527       5   19482   19497
   19518       3   19479   19491   19506       7   19479   19494   19512       7
   19470   19482   19497       3   19461   19479   19491       9   19461   19479
   19494       9   19452   19470   19482       3   19443   19461   19479       9
   19440   19461   19443       6   19440   19461   19479       9   19434   19452
   19470       3   19431   19416   19434      10   19428   19443   19461       7
   19425   19413   19428       5   19425   19440   19461       7   19416   19431
   19422       5   19416   19434   19452      11   19413   19425   19440       5
   19413   19428   19443       5   19410   19425   19413      13   19410   19425
   19440      13   19407   19398   19410      14   19407   19422   19431       5
   19404   19395   19407       5   19404   19416   19431       5   19404   19416
   19434      10   19401   19398   19407      15   19401   19398   19410      16
   19401   19413   19425      17   19401   19413   19428      17   19398   19392
   19401      18   19398   19401   19413      19   19398   19407   19422      20
   19398   19410   19425      21   19395   19392   19398      22   19395   19392
   19401      23   19395   19404   19416       5   19395   19407   19398      20
   19395   19407   19422       5   19392   19395   19404      24   19392   19395
   19407      24   19392   19398   19401      25   19392   19398   19407      26
   19392   19398   19410      27   19392   19401   19398      28   19392   19401
   19413      29   19746   19749   19761       3   19728   19746   19749       3
   19710   19728   19746       3   19698   19719   19704       5   19689   19710
   19728       3   19686   19704   19719       5   19683   19671   19686       6
   19683   19698   19719       5   19674   19689   19710       3   19671   19683
   19698       7   19671   19686   19704       7   19662   19674   19689       3
   19653   19671   19683       9   19653   19671   19686       9   19644   19662
   19674       3   19635   19653   19671       9   19632   19653   19635       6
   19632   19653   19671       9   19626   19644   19662       3   19623   19608
   19626      10   19620   19635   19653       7   19617   19605   19620       5
   19617   19632   19653       7   19608   19623   19614       5   19608   19626
   19644      11   19605   19617   19632       5   19605   19620   19635       5
   19602   19617   19605      13   19602   19617   19632      13   19599   19590
   19602      14   19599   19614   19623       5   19596   19587   19599       5
   19596   19608   19623       5   19596   19608   19626      10   19593   19590
   19599      15   19593   19590   19602      16   19593   19605   19617      17
   19593   19605   19620      17   19590   19584   19593      18   19590   19593
   19605      19   19590   19599   19614      20   19590   19602   19617      21
   19587   19584   19590      22   19587   19584   19593      23   19587   19596
   19608       5   19587   19599   19590      20   19587   19599   19614       5
   19584   19587   19596      24   19584   19587   19599      24   19584   19590
   19593      25   19584   19590   19599      26   19584   19590   19602      27
   19584   19593   19590      28   19584   19593   19605      29   19938   19941
   19953       3   19920   19938   19941       3   19902   19920   19938       3
   19890   19911   19896       5   19881   19902   19920       3   19878   19896
   19911       5   19875   19863   19878       6   19875   19890   19911       5
   19866   19881   19902       3   19863   19875   19890       7   19863   19878
   19896       7   19854   19866   19881       3   19845   19863   19875       9
   19845   19863   19878       9   19836   19854   19866       3   19827   19845
   19863       9   19824   19845   19827       6   19824   19845   19863       9
   19818   19836   19854       3   19815   19800   19818      10   19812   19827
   19845       7   19809   19797   19812       5   19809   19824   19845       7
   19800   19815   19806       5   19800   19818   19836      11   19797   19809
   19824       5   19797   19812   19827       5   19794   19809   19797      13
   19794   19809   19824      13   19791   19782   19794      14   19791   19806
   19815       5   19788   19779   19791       5   19788   19800   19815       5
   19788   19800   19818      10   19785   19782   19791      15   19785   19782
   19794      16   19785   19797   19809      17   19785   19797   19812      17
   19782   19776   19785      18   19782   19785   19797      19   19782   19791
   19806      20   19782   19794   19809      21   19779   19776   19782      22
   19779   19776   19785      23   19779   19788   19800       5   19779   19791
   19782      20   19779   19791   19806       5   19776   19779   19788      24
   19776   19779   19791      24   19776   19782   19785      25   19776   19782
   19791      26   19776   19782   19794      27   19776   19785   19782      28
   19776   19785   19797      29   20130   20133   20145       3   20112   20130
   20133       3   20094   20112   20130       3   20082   20103   20088       5
   20073   20094   20112       3   20070   20088   20103       5   20067   20055
   20070       6   20067   20082   20103       5   20058   20073   20094       3
   20055   20067   20082       7   20055   20070   20088       7   20046   20058
   20073       3   20037   20055   20067       9   20037   20055   20070       9
   20028   20046   20058       3   20019   20037   20055       9   20016   20037
   20019       6   20016   20037   20055       9   20010   20028   20046       3
   20007   19992   20010      10   20004   20019   20037       7   20001   19989
   20004       5   20001   20016   20037       7   19992   20007   19998       5
   19992   20010   20028      11   19989   20001   20016       5   19989   20004
   20019       5   19986   20001   19989      13   19986   20001   20016      13
   19983   19974   19986      14   19983   19998   20007       5   19980   19971
   19983       5   19980   19992   20007       5   19980   19992   20010      10
   19977   19974   19983      15   19977   19974   19986      16   19977   19989
   20001      17   19977   19989   20004      17   19974   19968   19977      18
   19974   19977   19989      19   19974   19983   19998      20   19974   19986
   20001      21   19971   19968   19974      22   19971   19968   19977      23
   19971   19980   19992       5   19971   19983   19974      20   19971   19983
   19998       5   19968   19971   19980      24   19968   19971   19983      24
   19968   19974   19977      25   19968   19974   19983      26   19968   19974
   19986      27   19968   19977   19974      28   19968   19977   19989      29
   20322   20325   20337       3   20304   20322   20325       3   20286   20304
   20322       3   20274   20295   20280       5   20265   20286   20304       3
   20262   20280   20295       5   20259   20247   20262       6   20259   20274
   20295       5   20250   20265   20286       3   20247   20259   20274       7
   20247   20262   20280       7   20238   20250   20265       3   20229   20247
   20259       9   20229   20247   20262       9   20220   20238   20250       3
   20211   20229   20247       9   20208   20229   20211       6   20208   20229
   20247       9   20202   20220   20238       3   20199   20184   20202      10
   20196   20211   20229       7   20193   20181   20196       5   20193   20208
   20229       7   20184   20199   20190       5   20184   20202   20220      11
   20181   20193   20208       5   20181   20196   20211       5   20178   20193
   20181      13   20178   20193   20208      13   20175   20166   20178      14
   20175   20190   20199       5   20172   20163   20175       5   20172   20184
   20199       5   20172   20184   20202      10   20169   20166   20175      15
   20169   20166   20178      16   20169   20181   20193      17   20169   20181
   20196      17   20166   20160   20169      18   20166   20169   20181      19
   20166   20175   20190      20   20166   20178   20193      21   20163   20160
   20166      22   20163   20160   20169      23   20163   20172   20184       5
   20163   20175   20166      20   20163   20175   20190       5   20160   20163
   20172      24   20160   20163   20175      24   20160   20166   20169      25
   20160   20166   20175      26   20160   20166   20178      27   20160   20169
   20166      28   20160   20169   20181      29   20514   20517   20529       3
   20496   20514   20517       3   20478   20496   20514       3   20466   20487
   20472       5   20457   20478   20496       3   20454   20472   20487       5
   20451   20439   20454       6   20451   20466   20487       5   20442   20457
   20478       3   20439   20451   20466       7   20439   20454   20472       7
   20430   20442   20457       3   20421   20439   20451       9   20421   20439
   20454       9   20412   20430   20442       3   20403   20421   20439       9
   20400   20421   20403       6   20400   20421   20439       9   20394   20412
   20430       3   20391   20376   20394      10   20388   20403   20421       7
   20385   20373   20388       5   20385   20400   20421       7   20376   20391
   20382       5   20376   20394   20412      11   20373   20385   20400       5
   20373   20388   20403       5   20370   20385   20373      13   20370   20385
   20400      13   20367   20358   20370      14   20367   20382   20391       5
   20364   20355   20367       5   20364   20376   20391       5   20364   20376
   20394      10   20361   20358   20367      15   20361   20358   20370      16
   20361   20373   20385      17   20361   20373   20388      17   20358   20352
   20361      18   20358   20361   20373      19   20358   20367   20382      20
   20358   20370   20385      21   20355   20352   20358      22   20355   20352
   20361      23   20355   20364   20376       5   20355   20367   20358      20
   20355   20367   20382       5   20352   20355   20364      24   20352   20355
   20367      24   20352   20358   20361      25   20352   20358   20367      26
   20352   20358   20370      27   20352   20361   20358      28   20352   20361
   20373      29   20706   20709   20721       3   20688   20706   20709       3
   20670   20688   20706       3   20658   20679   20664       5   20649   20670
   20688       3   20646   20664   20679       5   20643   20631   20646       6
   20643   20658   20679       5   20634   20649   20670       3   20631   20643
   20658       7   20631   20646   20664       7   20622   20634   20649       3
   20613   20631   20643       9   20613   20631   20646       9   20604   20622
   20634       3   20595   20613   20631       9   20592   20613   20595       6
   20592   20613   20631       9   20586   20604   20622       3   20583   20568
   20586      10   20580   20595   20613       7   20577   20565   20580       5
   20577   20592   20613       7   20568   20583   20574       5   20568   20586
   20604      11   20565   20577   20592       5   20565   20580   20595       5
   20562   20577   20565      13   20562   20577   20592      13   20559   20550
   20562      14   20559   20574   20583       5   20556   20547   20559       5
   20556   20568   20583       5   20556   20568   20586      10   20553   20550
   20559      15   20553   20550   20562      16   20553   20565   20577      17
   20553   20565   20580      17   20550   20544   20553      18   20550   20553
   20565      19   20550   20559   20574      20   20550   20562   20577      21
   20547   20544   20550      22   20547   20544   20553      23   20547   20556
   20568       5   20547   20559   20550      20   20547   20559   20574       5
   20544   20547   20556      24   20544   20547   20559      24   20544   20550
   20553      25   20544   20550   20559      26   20544   20550   20562      27
   20544   20553   20550      28   20544   20553   20565      29   20898   20901
   20913       3   20880   20898   20901       3   20862   20880   20898       3
   20850   20871   20856       5   20841   20862   20880       3   20838   20856
   20871       5   20835   20823   20838       6   20835   20850   20871       5
   20826   20841   20862       3   20823   20835   20850       7   20823   20838
   20856       7   20814   20826   20841       3   20805   20823   20835       9
   20805   20823   20838       9   20796   20814   20826       3   20787   20805
   20823       9   20784   20805   20787       6   20784   20805   20823       9
   20778   20796   20814       3   20775   20760   20778      10   20772   20787
   20805       7   20769   20757   20772       5   20769   20784   20805       7
   20760   20775   20766       5   20760   20778   20796      11   20757   20769
   20784       5   20757   20772   20787       5   20754   20769   20757      13
   20754   20769   20784      13   20751   20742   20754      14   20751   20766
   20775       5   20748   20739   20751       5   20748   20760   20775       5
   20748   20760   20778      10   20745   20742   20751      15   20745   20742
   20754      16   20745   20757   20769      17   20745   20757   20772      17
   20742   20736   20745      18   20742   20745   20757      19   20742   20751
   20766      20   20742   20754   20769      21   20739   20736   20742      22
   20739   20736   20745      23   20739   20748   20760       5   20739   20751
   20742      20   20739   20751   20766       5   20736   20739   20748      24
   20736   20739   20751      24   20736   20742   20745      25   20736   20742
   20751      26   20736   20742   20754      27   20736   20745   20742      28
   20736   20745   20757      29   21090   21093   21105       3   21072   21090
   21093       3   21054   21072   21090       3   21042   21063   21048       5
   21033   21054   21072       3   21030   21048   21063       5   21027   21015
   21030       6   21027   21042   21063       5   21018   21033   21054       3
   21015   21027   21042       7   21015   21030   21048       7   21006   21018
   21033       3   20997   21015   21027       9   20997   21015   21030       9
   20988   21006   21018       3   20979   20997   21015       9   20976   20997
   20979       6   20976   20997   21015       9   20970   20988   21006       3
   20967   20952   20970      10   20964   20979   20997       7   20961   20949
   20964       5   20961   20976   20997       7   20952   20967   20958       5
   20952   20970   20988      11   20949   20961   20976       5   20949   20964
   20979       5   20946   20961   20949      13   20946   20961   20976      13
   20943   20934   20946      14   20943   20958   20967       5   20940   20931
   20943       5   20940   20952   20967       5   20940   20952   20970      10
   20937   20934   20943      15   20937   20934   20946      16   20937   20949
   20961      17   20937   20949   20964      17   20934   20928   20937      18
   20934   20937   20949      19   20934   20943   20958      20   20934   20946
   20961      21   20931   20928   20934      22   20931   20928   20937      23
   20931   20940   20952       5   20931   20943   20934      20   20931   20943
   20958       5   20928   20931   20940      24   20928   20931   20943      24
   20928   20934   20937      25   20928   20934   20943      26   20928   20934
   20946      27   20928   20937   20934      28   20928   20937   20949      29
   21282   21285   21297       3   21264   21282   21285       3   21246   21264
   21282       3   21234   21255   21240       5   21225   21246   21264       3
   21222   21240   21255       5   21219   21207   21222       6   21219   21234
   21255       5   21210   21225   21246       3   21207   21219   21234       7
   21207   21222   21240       7   21198   21210   21225       3   21189   21207
   21219       9   21189   21207   21222       9   21180   21198   21210       3
   21171   21189   21207       9   21168   21189   21171       6   21168   21189
   21207       9   21162   21180   21198       3   21159   21144   21162      10
   21156   21171   21189       7   21153   21141   21156       5   21153   21168
   21189       7   21144   21159   21150       5   21144   21162   21180      11
   21141   21153   21168       5   21141   21156   21171       5   21138   21153
   21141      13   21138   21153   21168      13   21135   21126   21138      14
   21135   21150   21159       5   21132   21123   21135       5   21132   21144
   21159       5   21132   21144   21162      10   21129   21126   21135      15
   21129   21126   21138      16   21129   21141   21153      17   21129   21141
   21156      17   21126   21120   21129      18   21126   21129   21141      19
   21126   21135   21150      20   21126   21138   21153      21   21123   21120
   21126      22   21123   21120   21129      23   21123   21132   21144       5
   21123   21135   21126      20   21123   21135   21150       5   21120   21123
   21132      24   21120   21123   21135      24   21120   21126   21129      25
   21120   21126   21135      26   21120   21126   21138      27   21120   21129
   21126      28   21120   21129   21141      29   21474   21477   21489       3
   21456   21474   21477       3   21438   21456   21474       3   21426   21447
   21432       5   21417   21438   21456       3   21414   21432   21447       5
   21411   21399   21414       6   21411   21426   21447       5   21402   21417
   21438       3   21399   21411   21426       7   21399   21414   21432       7
   21390   21402   21417       3   21381   21399   21411       9   21381   21399
   21414       9   21372   21390   21402       3   21363   21381   21399       9
   21360   21381   21363       6   21360   21381   21399       9   21354   21372
   21390       3   21351   21336   21354      10   21348   21363   21381       7
   21345   21333   21348       5   21345   21360   21381       7   21336   21351
   21342       5   21336   21354   21372      11   21333   21345   21360       5
   21333   21348   21363       5   21330   21345   21333      13   21330   21345
   21360      13   21327   21318   21330      14   21327   21342   21351       5
   21324   21315   21327       5   21324   21336   21351       5   21324   21336
   21354      10   21321   21318   21327      15   21321   21318   21330      16
   21321   21333   21345      17   21321   21333   21348      17   21318   21312
   21321      18   21318   21321   21333      19   21318   21327   21342      20
   21318   21330   21345      21   21315   21312   21318      22   21315   21312
   21321      23   21315   21324   21336       5   21315   21327   21318      20
   21315   21327   21342       5   21312   21315   21324      24   21312   21315
   21327      24   21312   21318   21321      25   21312   21318   21327      26
   21312   21318   21330      27   21312   21321   21318      28   21312   21321
   21333      29   21666   21669   21681       3   21648   21666   21669       3
   21630   21648   21666       3   21618   21639   21624       5   21609   21630
   21648       3   21606   21624   21639       5   21603   21591   21606       6
   21603   21618   21639       5   21594   21609   21630       3   21591   21603
   21618       7   21591   21606   21624       7   21582   21594   21609       3
   21573   21591   21603       9   21573   21591   21606       9   21564   21582
   21594       3   21555   21573   21591       9   21552   21573   21555       6
   21552   21573   21591       9   21546   21564   21582       3   21543   21528
   21546      10   21540   21555   21573       7   21537   21525   21540       5
   21537   21552   21573       7   21528   21543   21534       5   21528   21546
   21564      11   21525   21537   21552       5   21525   21540   21555       5
   21522   21537   21525      13   21522   21537   21552      13   21519   21510
   21522      14   21519   21534   21543       5   21516   21507   21519       5
   21516   21528   21543       5   21516   21528   21546      10   21513   21510
   21519      15   21513   21510   21522      16   21513   21525   21537      17
   21513   21525   21540      17   21510   21504   21513      18   21510   21513
   21525      19   21510   21519   21534      20   21510   21522   21537      21
   21507   21504   21510      22   21507   21504   21513      23   21507   21516
   21528       5   21507   21519   21510      20   21507   21519   21534       5
   21504   21507   21516      24   21504   21507   21519      24   21504   21510
   21513      25   21504   21510   21519      26   21504   21510   21522      27
   21504   21513   21510      28   21504   21513   21525      29   21858   21861
   21873       3   21840   21858   21861       3   21822   21840   21858       3
   21810   21831   21816       5   21801   21822   21840       3   21798   21816
   21831       5   21795   21783   21798       6   21795   21810   21831       5
   21786   21801   21822       3   21783   21795   21810       7   21783   21798
   21816       7   21774   21786   21801       3   21765   21783   21795       9
   21765   21783   21798       9   21756   21774   21786       3   21747   21765
   21783       9   21744   21765   21747       6   21744   21765   21783       9
   21738   21756   21774       3   21735   21720   21738      10   21732   21747
   21765       7   21729   21717   21732       5   21729   21744   21765       7
   21720   21735   21726       5   21720   21738   21756      11   21717   21729
   21744       5   21717   21732   21747       5   21714   21729   21717      13
   21714   21729   21744      13   21711   21702   21714      14   21711   21726
   21735       5   21708   21699   21711       5   21708   21720   21735       5
   21708   21720   21738      10   21705   21702   21711      15   21705   21702
   21714      16   21705   21717   21729      17   21705   21717   21732      17
   21702   21696   21705      18   21702   21705   21717      19   21702   21711
   21726      20   21702   21714   21729      21   21699   21696   21702      22
   21699   21696   21705      23   21699   21708   21720       5   21699   21711
   21702      20   21699   21711   21726       5   21696   21699   21708      24
   21696   21699   21711      24   21696   21702   21705      25   21696   21702
   21711      26   21696   21702   21714      27   21696   21705   21702      28
   21696   21705   21717      29   22050   22053   22065       3   22032   22050
   22053       3   22014   22032   22050       3   22002   22023   22008       5
   21993   22014   22032       3   21990   22008   22023       5   21987   21975
   21990       6   21987   22002   22023       5   21978   21993   22014       3
   21975   21987   22002       7   21975   21990   22008       7   21966   21978
   21993       3   21957   21975   21987       9   21957   21975   21990       9
   21948   21966   21978       3   21939   21957   21975       9   21936   21957
   21939       6   21936   21957   21975       9   21930   21948   21966       3
   21927   21912   21930      10   21924   21939   21957       7   21921   21909
   21924       5   21921   21936   21957       7   21912   21927   21918       5
   21912   21930   21948      11   21909   21921   21936       5   21909   21924
   21939       5   21906   21921   21909      13   21906   21921   21936      13
   21903   21894   21906      14   21903   21918   21927       5   21900   21891
   21903       5   21900   21912   21927       5   21900   21912   21930      10
   21897   21894   21903      15   21897   21894   21906      16   21897   21909
   21921      17   21897   21909   21924      17   21894   21888   21897      18
   21894   21897   21909      19   21894   21903   21918      20   21894   21906
   21921      21   21891   21888   21894      22   21891   21888   21897      23
   21891   21900   21912       5   21891   21903   21894      20   21891   21903
   21918       5   21888   21891   21900      24   21888   21891   21903      24
   21888   21894   21897      25   21888   21894   21903      26   21888   21894
   21906      27   21888   21897   21894      28   21888   21897   21909      29
   22242   22245   22257       3   22224   22242   22245       3   22206   22224
   22242       3   22194   22215   22200       5   22185   22206   22224       3
   22182   22200   22215       5   22179   22167   22182       6   22179   22194
   22215       5   22170   22185   22206       3   22167   22179   22194       7
   22167   22182   22200       7   22158   22170   22185       3   22149   22167
   22179       9   22149   22167   22182       9   22140   22158   22170       3
   22131   22149   22167       9   22128   22149   22131       6   22128   22149
   22167       9   22122   22140   22158       3   22119   22104   22122      10
   22116   22131   22149       7   22113   22101   22116       5   22113   22128
   22149       7   22104   22119   22110       5   22104   22122   22140      11
   22101   22113   22128       5   22101   22116   22131       5   22098   22113
   22101      13   22098   22113   22128      13   22095   22086   22098      14
   22095   22110   22119       5   22092   22083   22095       5   22092   22104
   22119       5   22092   22104   22122      10   22089   22086   22095      15
   22089   22086   22098      16   22089   22101   22113      17   22089   22101
   22116      17   22086   22080   22089      18   22086   22089   22101      19
   22086   22095   22110      20   22086   22098   22113      21   22083   22080
   22086      22   22083   22080   22089      23   22083   22092   22104       5
   22083   22095   22086      20   22083   22095   22110       5   22080   22083
   22092      24   22080   22083   22095      24   22080   22086   22089      25
   22080   22086   22095      26   22080   22086   22098      27   22080   22089
   22086      28   22080   22089   22101      29   22434   22437   22449       3
   22416   22434   22437       3   22398   22416   22434       3   22386   22407
   22392       5   22377   22398   22416       3   22374   22392   22407       5
   22371   22359   22374       6   22371   22386   22407       5   22362   22377
   22398       3   22359   22371   22386       7   22359   22374   22392       7
   22350   22362   22377       3   22341   22359   22371       9   22341   22359
   22374       9   22332   22350   22362       3   22323   22341   22359       9
   22320   22341   22323       6   22320   22341   22359       9   22314   22332
   22350       3   22311   22296   22314      10   22308   22323   22341       7
   22305   22293   22308       5   22305   22320   22341       7   22296   22311
   22302       5   22296   22314   22332      11   22293   22305   22320       5
   22293   22308   22323       5   22290   22305   22293      13   22290   22305
   22320      13   22287   22278   22290      14   22287   22302   22311       5
   22284   22275   22287       5   22284   22296   22311       5   22284   22296
   22314      10   22281   22278   22287      15   22281   22278   22290      16
   22281   22293   22305      17   22281   22293   22308      17   22278   22272
   22281      18   22278   22281   22293      19   22278   22287   22302      20
   22278   22290   22305      21   22275   22272   22278      22   22275   22272
   22281      23   22275   22284   22296       5   22275   22287   22278      20
   22275   22287   22302       5   22272   22275   22284      24   22272   22275
   22287      24   22272   22278   22281      25   22272   22278   22287      26
   22272   22278   22290      27   22272   22281   22278      28   22272   22281
   22293      29   22626   22629   22641       3   22608   22626   22629       3
   22590   22608   22626       3   22578   22599   22584       5   22569   22590
   22608       3   22566   22584   22599       5   22563   22551   22566       6
   22563   22578   22599       5   22554   22569   22590       3   22551   22563
   22578       7   22551   22566   22584       7   22542   22554   22569       3
   22533   22551   22563       9   22533   22551   22566       9   22524   22542
   22554       3   22515   22533   22551       9   22512   22533   22515       6
   22512   22533   22551       9   22506   22524   22542       3   22503   22488
   22506      10   22500   22515   22533       7   22497   22485   22500       5
   22497   22512   22533       7   22488   22503   22494       5   22488   22506
   22524      11   22485   22497   22512       5   22485   22500   22515       5
   22482   22497   22485      13   22482   22497   22512      13   22479   22470
   22482      14   22479   22494   22503       5   22476   22467   22479       5
   22476   22488   22503       5   22476   22488   22506      10   22473   22470
   22479      15   22473   22470   22482      16   22473   22485   22497      17
   22473   22485   22500      17   22470   22464   22473      18   22470   22473
   22485      19   22470   22479   22494      20   22470   22482   22497      21
   22467   22464   22470      22   22467   22464   22473      23   22467   22476
   22488       5   22467   22479   22470      20   22467   22479   22494       5
   22464   22467   22476      24   22464   22467   22479      24   22464   22470
   22473      25   22464   22470   22479      26   22464   22470   22482      27
   22464   22473   22470      28   22464   22473   22485      29   22818   22821
   22833       3   22800   22818   22821       3   22782   22800   22818       3
   22770   22791   22776       5   22761   22782   22800       3   22758   22776
   22791       5   22755   22743   22758       6   22755   22770   22791       5
   22746   22761   22782       3   22743   22755   22770       7   22743   22758
   22776       7   22734   22746   22761       3   22725   22743   22755       9
   22725   22743   22758       9   22716   22734   22746       3   22707   22725
   22743       9   22704   22725   22707       6   22704   22725   22743       9
   22698   22716   22734       3   22695   22680   22698      10   22692   22707
   22725       7   22689   22677   22692       5   22689   22704   22725       7
   22680   22695   22686       5   22680   22698   22716      11   22677   22689
   22704       5   22677   22692   22707       5   22674   22689   22677      13
   22674   22689   22704      13   22671   22662   22674      14   22671   22686
   22695       5   22668   22659   22671       5   22668   22680   22695       5
   22668   22680   22698      10   22665   22662   22671      15   22665   22662
   22674      16   22665   22677   22689      17   22665   22677   22692      17
   22662   22656   22665      18   22662   22665   22677      19   22662   22671
   22686      20   22662   22674   22689      21   22659   22656   22662      22
   22659   22656   22665      23   22659   22668   22680       5   22659   22671
   22662      20   22659   22671   22686       5   22656   22659   22668      24
   22656   22659   22671      24   22656   22662   22665      25   22656   22662
   22671      26   22656   22662   22674      27   22656   22665   22662      28
   22656   22665   22677      29   23010   23013   23025       3   22992   23010
   23013       3   22974   22992   23010       3   22962   22983   22968       5
   22953   22974   22992       3   22950   22968   22983       5   22947   22935
   22950       6   22947   22962   22983       5   22938   22953   22974       3
   22935   22947   22962       7   22935   22950   22968       7   22926   22938
   22953       3   22917   22935   22947       9   22917   22935   22950       9
   22908   22926   22938       3   22899   22917   22935       9   22896   22917
   22899       6   22896   22917   22935       9   22890   22908   22926       3
   22887   22872   22890      10   22884   22899   22917       7   22881   22869
   22884       5   22881   22896   22917       7   22872   22887   22878       5
   22872   22890   22908      11   22869   22881   22896       5   22869   22884
   22899       5   22866   22881   22869      13   22866   22881   22896      13
   22863   22854   22866      14   22863   22878   22887       5   22860   22851
   22863       5   22860   22872   22887       5   22860   22872   22890      10
   22857   22854   22863      15   22857   22854   22866      16   22857   22869
   22881      17   22857   22869   22884      17   22854   22848   22857      18
   22854   22857   22869      19   22854   22863   22878      20   22854   22866
   22881      21   22851   22848   22854      22   22851   22848   22857      23
   22851   22860   22872       5   22851   22863   22854      20   22851   22863
   22878       5   22848   22851   22860      24   22848   22851   22863      24
   22848   22854   22857      25   22848   22854   22863      26   22848   22854
   22866      27   22848   22857   22854      28   22848   22857   22869      29
   23202   23205   23217       3   23184   23202   23205       3   23166   23184
   23202       3   23154   23175   23160       5   23145   23166   23184       3
   23142   23160   23175       5   23139   23127   23142       6   23139   23154
   23175       5   23130   23145   23166       3   23127   23139   23154       7
   23127   23142   23160       7   23118   23130   23145       3   23109   23127
   23139       9   23109   23127   23142       9   23100   23118   23130       3
   23091   23109   23127       9   23088   23109   23091       6   23088   23109
   23127       9   23082   23100   23118       3   23079   23064   23082      10
   23076   23091   23109       7   23073   23061   23076       5   23073   23088
   23109       7   23064   23079   23070       5   23064   23082   23100      11
   23061   23073   23088       5   23061   23076   23091       5   23058   23073
   23061      13   23058   23073   23088      13   23055   23046   23058      14
   23055   23070   23079       5   23052   23043   23055       5   23052   23064
   23079       5   23052   23064   23082      10   23049   23046   23055      15
   23049   23046   23058      16   23049   23061   23073      17   23049   23061
   23076      17   23046   23040   23049      18   23046   23049   23061      19
   23046   23055   23070      20   23046   23058   23073      21   23043   23040
   23046      22   23043   23040   23049      23   23043   23052   23064       5
   23043   23055   23046      20   23043   23055   23070       5   23040   23043
   23052      24   23040   23043   23055      24   23040   23046   23049      25
   23040   23046   23055      26   23040   23046   23058      27   23040   23049
   23046      28   23040   23049   23061      29   23394   23397   23409       3
   23376   23394   23397       3   23358   23376   23394       3   23346   23367
   23352       5   23337   23358   23376       3   23334   23352   23367       5
   23331   23319   23334       6   23331   23346   23367       5   23322   23337
   23358       3   23319   23331   23346       7   23319   23334   23352       7
   23310   23322   23337       3   23301   23319   23331       9   23301   23319
   23334       9   23292   23310   23322       3   23283   23301   23319       9
   23280   23301   23283       6   23280   23301   23319       9   23274   23292
   23310       3   23271   23256   23274      10   23268   23283   23301       7
   23265   23253   23268       5   23265   23280   23301       7   23256   23271
   23262       5   23256   23274   23292      11   23253   23265   23280       5
   23253   23268   23283       5   23250   23265   23253      13   23250   23265
   23280      13   23247   23238   23250      14   23247   23262   23271       5
   23244   23235   23247       5   23244   23256   23271       5   23244   23256
   23274      10   23241   23238   23247      15   23241   23238   23250      16
   23241   23253   23265      17   23241   23253   23268      17   23238   23232
   23241      18   23238   23241   23253      19   23238   23247   23262      20
   23238   23250   23265      21   23235   23232   23238      22   23235   23232
   23241      23   23235   23244   23256       5   23235   23247   23238      20
   23235   23247   23262       5   23232   23235   23244      24   23232   23235
   23247      24   23232   23238   23241      25   23232   23238   23247      26
   23232   23238   23250      27   23232   23241   23238      28   23232   23241
   23253      29   23586   23589   23601       3   23568   23586   23589       3
   23550   23568   23586       3   23538   23559   23544       5   23529   23550
   23568       3   23526   23544   23559       5   23523   23511   23526       6
   23523   23538   23559       5   23514   23529   23550       3   23511   23523
   23538       7   23511   23526   23544       7   23502   23514   23529       3
   23493   23511   23523       9   23493   23511   23526       9   23484   23502
   23514       3   23475   23493   23511       9   23472   23493   23475       6
   23472   23493   23511       9   23466   23484   23502       3   23463   23448
   23466      10   23460   23475   23493       7   23457   23445   23460       5
   23457   23472   23493       7   23448   23463   23454       5   23448   23466
   23484      11   23445   23457   23472       5   23445   23460   23475       5
   23442   23457   23445      13   23442   23457   23472      13   23439   23430
   23442      14   23439   23454   23463       5   23436   23427   23439       5
   23436   23448   23463       5   23436   23448   23466      10   23433   23430
   23439      15   23433   23430   23442      16   23433   23445   23457      17
   23433   23445   23460      17   23430   23424   23433      18   23430   23433
   23445      19   23430   23439   23454      20   23430   23442   23457      21
   23427   23424   23430      22   23427   23424   23433      23   23427   23436
   23448       5   23427   23439   23430      20   23427   23439   23454       5
   23424   23427   23436      24   23424   23427   23439      24   23424   23430
   23433      25   23424   23430   23439      26   23424   23430   23442      27
   23424   23433   23430      28   23424   23433   23445      29   23778   23781
   23793       3   23760   23778   23781       3   23742   23760   23778       3
   23730   23751   23736       5   23721   23742   23760       3   23718   23736
   23751       5   23715   23703   23718       6   23715   23730   23751       5
   23706   23721   23742       3   23703   23715   23730       7   23703   23718
   23736       7   23694   23706   23721       3   23685   23703   23715       9
   23685   23703   23718       9   23676   23694   23706       3   23667   23685
   23703       9   23664   23685   23667       6   23664   23685   23703       9
   23658   23676   23694       3   23655   23640   23658      10   23652   23667
   23685       7   23649   23637   23652       5   23649   23664   23685       7
   23640   23655   23646       5   23640   23658   23676      11   23637   23649
   23664       5   23637   23652   23667       5   23634   23649   23637      13
   23634   23649   23664      13   23631   23622   23634      14   23631   23646
   23655       5   23628   23619   23631       5   23628   23640   23655       5
   23628   23640   23658      10   23625   23622   23631      15   23625   23622
   23634      16   23625   23637   23649      17   23625   23637   23652      17
   23622   23616   23625      18   23622   23625   23637      19   23622   23631
   23646      20   23622   23634   23649      21   23619   23616   23622      22
   23619   23616   23625      23   23619   23628   23640       5   23619   23631
   23622      20   23619   23631   23646       5   23616   23619   23628      24
   23616   23619   23631      24   23616   23622   23625      25   23616   23622
   23631      26   23616   23622   23634      27   23616   23625   23622      28
   23616   23625   23637      29   23970   23973   23985       3   23952   23970
   23973       3   23934   23952   23970       3   23922   23943   23928       5
   23913   23934   23952       3   23910   23928   23943       5   23907   23895
   23910       6   23907   23922   23943       5   23898   23913   23934       3
   23895   23907   23922       7   23895   23910   23928       7   23886   23898
   23913       3   23877   23895   23907       9   23877   23895   23910       9
   23868   23886   23898       3   23859   23877   23895       9   23856   23877
   23859       6   23856   23877   23895       9   23850   23868   23886       3
   23847   23832   23850      10   23844   23859   23877       7   23841   23829
   23844       5   23841   23856   23877       7   23832   23847   23838       5
   23832   23850   23868      11   23829   23841   23856       5   23829   23844
   23859       5   23826   23841   23829      13   23826   23841   23856      13
   23823   23814   23826      14   23823   23838   23847       5   23820   23811
   23823       5   23820   23832   23847       5   23820   23832   23850      10
   23817   23814   23823      15   23817   23814   23826      16   23817   23829
   23841      17   23817   23829   23844      17   23814   23808   23817      18
   23814   23817   23829      19   23814   23823   23838      20   23814   23826
   23841      21   23811   23808   23814      22   23811   23808   23817      23
   23811   23820   23832       5   23811   23823   23814      20   23811   23823
   23838       5   23808   23811   23820      24   23808   23811   23823      24
   23808   23814   23817      25   23808   23814   23823      26   23808   23814
   23826      27   23808   23817   23814      28   23808   23817   23829      29
   24162   24165   24177       3   24144   24162   24165       3   24126   24144
   24162       3   24114   24135   24120       5   24105   24126   24144       3
   24102   24120   24135       5   24099   24087   24102       6   24099   24114
   24135       5   24090   24105   24126       3   24087   24099   24114       7
   24087   24102   24120       7   24078   24090   24105       3   24069   24087
   24099       9   24069   24087   24102       9   24060   24078   24090       3
   24051   24069   24087       9   24048   24069   24051       6   24048   24069
   24087       9   24042   24060   24078       3   24039   24024   24042      10
   24036   24051   24069       7   24033   24021   24036       5   24033   24048
   24069       7   24024   24039   24030       5   24024   24042   24060      11
   24021   24033   24048       5   24021   24036   24051       5   24018   24033
   24021      13   24018   24033   24048      13   24015   24006   24018      14
   24015   24030   24039       5   24012   24003   24015       5   24012   24024
   24039       5   24012   24024   24042      10   24009   24006   24015      15
   24009   24006   24018      16   24009   24021   24033      17   24009   24021
   24036      17   24006   24000   24009      18   24006   24009   24021      19
   24006   24015   24030      20   24006   24018   24033      21   24003   24000
   24006      22   24003   24000   24009      23   24003   24012   24024       5
   24003   24015   24006      20   24003   24015   24030       5   24000   24003
   24012      24   24000   24003   24015      24   24000   24006   24009      25
   24000   24006   24015      26   24000   24006   24018      27   24000   24009
   24006      28   24000   24009   24021      29   24354   24357   24369       3
   24336   24354   24357       3   24318   24336   24354       3   24306   24327
   24312       5   24297   24318   24336       3   24294   24312   24327       5
   24291   24279   24294       6   24291   24306   24327       5   24282   24297
   24318       3   24279   24291   24306       7   24279   24294   24312       7
   24270   24282   24297       3   24261   24279   24291       9   24261   24279
   24294       9   24252   24270   24282       3   24243   24261   24279       9
   24240   24261   24243       6   24240   24261   24279       9   24234   24252
   24270       3   24231   24216   24234      10   24228   24243   24261       7
   24225   24213   24228       5   24225   24240   24261       7   24216   24231
   24222       5   24216   24234   24252      11   24213   24225   24240       5
   24213   24228   24243       5   24210   24225   24213      13   24210   24225
   24240      13   24207   24198   24210      14   24207   24222   24231       5
   24204   24195   24207       5   24204   24216   24231       5   24204   24216
   24234      10   24201   24198   24207      15   24201   24198   24210      16
   24201   24213   24225      17   24201   24213   24228      17   24198   24192
   24201      18   24198   24201   24213      19   24198   24207   24222      20
   24198   24210   24225      21   24195   24192   24198      22   24195   24192
   24201      23   24195   24204   24216       5   24195   24207   24198      20
   24195   24207   24222       5   24192   24195   24204      24   24192   24195
   24207      24   24192   24198   24201      25   24192   24198   24207      26
   24192   24198   24210      27   24192   24201   24198      28   24192   24201
   24213      29   24546   24549   24561       3   24528   24546   24549       3
   24510   24528   24546       3   24498   24519   24504       5   24489   24510
   24528       3   24486   24504   24519       5   24483   24471   24486       6
   24483   24498   24519       5   24474   24489   24510       3   24471   24483
   24498       7   24471   24486   24504       7   24462   24474   24489       3
   24453   24471   24483       9   24453   24471   24486       9   24444   24462
   24474       3   24435   24453   24471       9   24432   24453   24435       6
   24432   24453   24471       9   24426   24444   24462       3   24423   24408
   24426      10   24420   24435   24453       7   24417   24405   24420       5
   24417   24432   24453       7   24408   24423   24414       5   24408   24426
   24444      11   24405   24417   24432       5   24405   24420   24435       5
   24402   24417   24405      13   24402   24417   24432      13   24399   24390
   24402      14   24399   24414   24423       5   24396   24387   24399       5
   24396   24408   24423       5   24396   24408   24426      10   24393   24390
   24399      15   24393   24390   24402      16   24393   24405   24417      17
   24393   24405   24420      17   24390   24384   24393      18   24390   24393
   24405      19   24390   24399   24414      20   24390   24402   24417      21
   24387   24384   24390      22   24387   24384   24393      23   24387   24396
   24408       5   24387   24399   24390      20   24387   24399   24414       5
   24384   24387   24396      24   24384   24387   24399      24   24384   24390
   24393      25   24384   24390   24399      26   24384   24390   24402      27
   24384   24393   24390      28   24384   24393   24405      29   24738   24741
   24753       3   24720   24738   24741       3   24702   24720   24738       3
   24690   24711   24696       5   24681   24702   24720       3   24678   24696
   24711       5   24675   24663   24678       6   24675   24690   24711       5
   24666   24681   24702       3   24663   24675   24690       7   24663   24678
   24696       7   24654   24666   24681       3   24645   24663   24675       9
   24645   24663   24678       9   24636   24654   24666       3   24627   24645
   24663       9   24624   24645   24627       6   24624   24645   24663       9
   24618   24636   24654       3   24615   24600   24618      10   24612   24627
   24645       7   24609   24597   24612       5   24609   24624   24645       7
   24600   24615   24606       5   24600   24618   24636      11   24597   24609
   24624       5   24597   24612   24627       5   24594   24609   24597      13
   24594   24609   24624      13   24591   24582   24594      14   24591   24606
   24615       5   24588   24579   24591       5   24588   24600   24615       5
   24588   24600   24618      10   24585   24582   24591      15   24585   24582
   24594      16   24585   24597   24609      17   24585   24597   24612      17
   24582   24576   24585      18   24582   24585   24597      19   24582   24591
   24606      20   24582   24594   24609      21   24579   24576   24582      22
   24579   24576   24585      23   24579   24588   24600       5   24579   24591
   24582      20   24579   24591   24606       5   24576   24579   24588      24
   24576   24579   24591      24   24576   24582   24585      25   24576   24582
   24591      26   24576   24582   24594      27   24576   24585   24582      28
   24576   24585   24597      29   24930   24933   24945       3   24912   24930
   24933       3   24894   24912   24930       3   24882   24903   24888       5
   24873   24894   24912       3   24870   24888   24903       5   24867   24855
   24870       6   24867   24882   24903       5   24858   24873   24894       3
   24855   24867   24882       7   24855   24870   24888       7   24846   24858
   24873       3   24837   24855   24867       9   24837   24855   24870       9
   24828   24846   24858       3   24819   24837   24855       9   24816   24837
   24819       6   24816   24837   24855       9   24810   24828   24846       3
   24807   24792   24810      10   24804   24819   24837       7   24801   24789
   24804       5   24801   24816   24837       7   24792   24807   24798       5
   24792   24810   24828      11   24789   24801   24816       5   24789   24804
   24819       5   24786   24801   24789      13   24786   24801   24816      13
   24783   24774   24786      14   24783   24798   24807       5   24780   24771
   24783       5   24780   24792   24807       5   24780   24792   24810      10
   24777   24774   24783      15   24777   24774   24786      16   24777   24789
   24801      17   24777   24789   24804      17   24774   24768   24777      18
   24774   24777   24789      19   24774   24783   24798      20   24774   24786
   24801      21   24771   24768   24774      22   24771   24768   24777      23
   24771   24780   24792       5   24771   24783   24774      20   24771   24783
   24798       5   24768   24771   24780      24   24768   24771   24783      24
   24768   24774   24777      25   24768   24774   24783      26   24768   24774
   24786      27   24768   24777   24774      28   24768   24777   24789      29
   25122   25125   25137       3   25104   25122   25125       3   25086   25104
   25122       3   25074   25095   25080       5   25065   25086   25104       3
   25062   25080   25095       5   25059   25047   25062       6   25059   25074
   25095       5   25050   25065   25086       3   25047   25059   25074       7
   25047   25062   25080       7   25038   25050   25065       3   25029   25047
   25059       9   25029   25047   25062       9   25020   25038   25050       3
   25011   25029   25047       9   25008   25029   25011       6   25008   25029
   25047       9   25002   25020   25038       3   24999   24984   25002      10
   24996   25011   25029       7   24993   24981   24996       5   24993   25008
   25029       7   24984   24999   24990       5   24984   25002   25020      11
   24981   24993   25008       5   24981   24996   25011       5   24978   24993
   24981      13   24978   24993   25008      13   24975   24966   24978      14
   24975   24990   24999       5   24972   24963   24975       5   24972   24984
   24999       5   24972   24984   25002      10   24969   24966   24975      15
   24969   24966   24978      16   24969   24981   24993      17   24969   24981
   24996      17   24966   24960   24969      18   24966   24969   24981      19
   24966   24975   24990      20   24966   24978   24993      21   24963   24960
   24966      22   24963   24960   24969      23   24963   24972   24984       5
   24963   24975   24966      20   24963   24975   24990       5   24960   24963
   24972      24   24960   24963   24975      24   24960   24966   24969      25
   24960   24966   24975      26   24960   24966   24978      27   24960   24969
   24966      28   24960   24969   24981      29   25314   25317   25329       3
   25296   25314   25317       3   25278   25296   25314       3   25266   25287
   25272       5   25257   25278   25296       3   25254   25272   25287       5
   25251   25239   25254       6   25251   25266   25287       5   25242   25257
   25278       3   25239   25251   25266       7   25239   25254   25272       7
   25230   25242   25257       3   25221   25239   25251       9   25221   25239
   25254       9   25212   25230   25242       3   25203   25221   25239       9
   25200   25221   25203       6   25200   25221   25239       9   25194   25212
   25230       3   25191   25176   25194      10   25188   25203   25221       7
   25185   25173   25188       5   25185   25200   25221       7   25176   25191
   25182       5   25176   25194   25212      11   25173   25185   25200       5
   25173   25188   25203       5   25170   25185   25173      13   25170   25185
   25200      13   25167   25158   25170      14   25167   25182   25191       5
   25164   25155   25167       5   25164   25176   25191       5   25164   25176
   25194      10   25161   25158   25167      15   25161   25158   25170      16
   25161   25173   25185      17   25161   25173   25188      17   25158   25152
   25161      18   25158   25161   25173      19   25158   25167   25182      20
   25158   25170   25185      21   25155   25152   25158      22   25155   25152
   25161      23   25155   25164   25176       5   25155   25167   25158      20
   25155   25167   25182       5   25152   25155   25164      24   25152   25155
   25167      24   25152   25158   25161      25   25152   25158   25167      26
   25152   25158   25170      27   25152   25161   25158      28   25152   25161
   25173      29   25506   25509   25521       3   25488   25506   25509       3
   25470   25488   25506       3   25458   25479   25464       5   25449   25470
   25488       3   25446   25464   25479       5   25443   25431   25446       6
   25443   25458   25479       5   25434   25449   25470       3   25431   25443
   25458       7   25431   25446   25464       7   25422   25434   25449       3
   25413   25431   25443       9   25413   25431   25446       9   25404   25422
   25434       3   25395   25413   25431       9   25392   25413   25395       6
   25392   25413   25431       9   25386   25404   25422       3   25383   25368
   25386      10   25380   25395   25413       7   25377   25365   25380       5
   25377   25392   25413       7   25368   25383   25374       5   25368   25386
   25404      11   25365   25377   25392       5   25365   25380   25395       5
   25362   25377   25365      13   25362   25377   25392      13   25359   25350
   25362      14   25359   25374   25383       5   25356   25347   25359       5
   25356   25368   25383       5   25356   25368   25386      10   25353   25350
   25359      15   25353   25350   25362      16   25353   25365   25377      17
   25353   25365   25380      17   25350   25344   25353      18   25350   25353
   25365      19   25350   25359   25374      20   25350   25362   25377      21
   25347   25344   25350      22   25347   25344   25353      23   25347   25356
   25368       5   25347   25359   25350      20   25347   25359   25374       5
   25344   25347   25356      24   25344   25347   25359      24   25344   25350
   25353      25   25344   25350   25359      26   25344   25350   25362      27
   25344   25353   25350      28   25344   25353   25365      29   25698   25701
   25713       3   25680   25698   25701       3   25662   25680   25698       3
   25650   25671   25656       5   25641   25662   25680       3   25638   25656
   25671       5   25635   25623   25638       6   25635   25650   25671       5
   25626   25641   25662       3   25623   25635   25650       7   25623   25638
   25656       7   25614   25626   25641       3   25605   25623   25635       9
   25605   25623   25638       9   25596   25614   25626       3   25587   25605
   25623       9   25584   25605   25587       6   25584   25605   25623       9
   25578   25596   25614       3   25575   25560   25578      10   25572   25587
   25605       7   25569   25557   25572       5   25569   25584   25605       7
   25560   25575   25566       5   25560   25578   25596      11   25557   25569
   25584       5   25557   25572   25587       5   25554   25569   25557      13
   25554   25569   25584      13   25551   25542   25554      14   25551   25566
   25575       5   25548   25539   25551       5   25548   25560   25575       5
   25548   25560   25578      10   25545   25542   25551      15   25545   25542
   25554      16   25545   25557   25569      17   25545   25557   25572      17
   25542   25536   25545      18   25542   25545   25557      19   25542   25551
   25566      20   25542   25554   25569      21   25539   25536   25542      22
   25539   25536   25545      23   25539   25548   25560       5   25539   25551
   25542      20   25539   25551   25566       5   25536   25539   25548      24
   25536   25539   25551      24   25536   25542   25545      25   25536   25542
   25551      26   25536   25542   25554      27   25536   25545   25542      28
   25536   25545   25557      29   25890   25893   25905       3   25872   25890
   25893       3   25854   25872   25890       3   25842   25863   25848       5
   25833   25854   25872       3   25830   25848   25863       5   25827   25815
   25830       6   25827   25842   25863       5   25818   25833   25854       3
   25815   25827   25842       7   25815   25830   25848       7   25806   25818
   25833       3   25797   25815   25827       9   25797   25815   25830       9
   25788   25806   25818       3   25779   25797   25815       9   25776   25797
   25779       6   25776   25797   25815       9   25770   25788   25806       3
   25767   25752   25770      10   25764   25779   25797       7   25761   25749
   25764       5   25761   25776   25797       7   25752   25767   25758       5
   25752   25770   25788      11   25749   25761   25776       5   25749   25764
   25779       5   25746   25761   25749      13   25746   25761   25776      13
   25743   25734   25746      14   25743   25758   25767       5   25740   25731
   25743       5   25740   25752   25767       5   25740   25752   25770      10
   25737   25734   25743      15   25737   25734   25746      16   25737   25749
   25761      17   25737   25749   25764      17   25734   25728   25737      18
   25734   25737   25749      19   25734   25743   25758      20   25734   25746
   25761      21   25731   25728   25734      22   25731   25728   25737      23
   25731   25740   25752       5   25731   25743   25734      20   25731   25743
   25758       5   25728   25731   25740      24   25728   25731   25743      24
   25728   25734   25737      25   25728   25734   25743      26   25728   25734
   25746      27   25728   25737   25734      28   25728   25737   25749      29
   26082   26085   26097       3   26064   26082   26085       3   26046   26064
   26082       3   26034   26055   26040       5   26025   26046   26064       3
   26022   26040   26055       5   26019   26007   26022       6   26019   26034
   26055       5   26010   26025   26046       3   26007   26019   26034       7
   26007   26022   26040       7   25998   26010   26025       3   25989   26007
   26019       9   25989   26007   26022       9   25980   25998   26010       3
   25971   25989   26007       9   25968   25989   25971       6   25968   25989
   26007       9   25962   25980   25998       3   25959   25944   25962      10
   25956   25971   25989       7   25953   25941   25956       5   25953   25968
   25989       7   25944   25959   25950       5   25944   25962   25980      11
   25941   25953   25968       5   25941   25956   25971       5   25938   25953
   25941      13   25938   25953   25968      13   25935   25926   25938      14
   25935   25950   25959       5   25932   25923   25935       5   25932   25944
   25959       5   25932   25944   25962      10   25929   25926   25935      15
   25929   25926   25938      16   25929   25941   25953      17   25929   25941
   25956      17   25926   25920   25929      18   25926   25929   25941      19
   25926   25935   25950      20   25926   25938   25953      21   25923   25920
   25926      22   25923   25920   25929      23   25923   25932   25944       5
   25923   25935   25926      20   25923   25935   25950       5   25920   25923
   25932      24   25920   25923   25935      24   25920   25926   25929      25
   25920   25926   25935      26   25920   25926   25938      27   25920   25929
   25926      28   25920   25929   25941      29   26274   26277   26289       3
   26256   26274   26277       3   26238   26256   26274       3   26226   26247
   26232       5   26217   26238   26256       3   26214   26232   26247       5
   26211   26199   26214       6   26211   26226   26247       5   26202   26217
   26238       3   26199   26211   26226       7   26199   26214   26232       7
   26190   26202   26217       3   26181   26199   26211       9   26181   26199
   26214       9   26172   26190   26202       3   26163   26181   26199       9
   26160   26181   26163       6   26160   26181   26199       9   26154   26172
   26190       3   26151   26136   26154      10   26148   26163   26181       7
   26145   26133   26148       5   26145   26160   26181       7   26136   26151
   26142       5   26136   26154   26172      11   26133   26145   26160       5
   26133   26148   26163       5   26130   26145   26133      13   26130   26145
   26160      13   26127   26118   26130      14   26127   26142   26151       5
   26124   26115   26127       5   26124   26136   26151       5   26124   26136
   26154      10   26121   26118   26127      15   26121   26118   26130      16
   26121   26133   26145      17   26121   26133   26148      17   26118   26112
   26121      18   26118   26121   26133      19   26118   26127   26142      20
   26118   26130   26145      21   26115   26112   26118      22   26115   26112
   26121      23   26115   26124   26136       5   26115   26127   26118      20
   26115   26127   26142       5   26112   26115   26124      24   26112   26115
   26127      24   26112   26118   26121      25   26112   26118   26127      26
   26112   26118   26130      27   26112   26121   26118      28   26112   26121
   26133      29   26466   26469   26481       3   26448   26466   26469       3
   26430   26448   26466       3   26418   26439   26424       5   26409   26430
   26448       3   26406   26424   26439       5   26403   26391   26406       6
   26403   26418   26439       5   26394   26409   26430       3   26391   26403
   26418       7   26391   26406   26424       7   26382   26394   26409       3
   26373   26391   26403       9   26373   26391   26406       9   26364   26382
   26394       3   26355   26373   26391       9   26352   26373   26355       6
   26352   26373   26391       9   26346   26364   26382       3   26343   26328
   26346      10   26340   26355   26373       7   26337   26325   26340       5
   26337   26352   26373       7   26328   26343   26334       5   26328   26346
   26364      11   26325   26337   26352       5   26325   26340   26355       5
   26322   26337   26325      13   26322   26337   26352      13   26319   26310
   26322      14   26319   26334   26343       5   26316   26307   26319       5
   26316   26328   26343       5   26316   26328   26346      10   26313   26310
   26319      15   26313   26310   26322      16   26313   26325   26337      17
   26313   26325   26340      17   26310   26304   26313      18   26310   26313
   26325      19   26310   26319   26334      20   26310   26322   26337      21
   26307   26304   26310      22   26307   26304   26313      23   26307   26316
   26328       5   26307   26319   26310      20   26307   26319   26334       5
   26304   26307   26316      24   26304   26307   26319      24   26304   26310
   26313      25   26304   26310   26319      26   26304   26310   26322      27
   26304   26313   26310      28   26304   26313   26325      29   26658   26661
   26673       3   26640   26658   26661       3   26622   26640   26658       3
   26610   26631   26616       5   26601   26622   26640       3   26598   26616
   26631       5   26595   26583   26598       6   26595   26610   26631       5
   26586   26601   26622       3   26583   26595   26610       7   26583   26598
   26616       7   26574   26586   26601       3   26565   26583   26595       9
   26565   26583   26598       9   26556   26574   26586       3   26547   26565
   26583       9   26544   26565   26547       6   26544   26565   26583       9
   26538   26556   26574       3   26535   26520   26538      10   26532   26547
   26565       7   26529   26517   26532       5   26529   26544   26565       7
   26520   26535   26526       5   26520   26538   26556      11   26517   26529
   26544       5   26517   26532   26547       5   26514   26529   26517      13
   26514   26529   26544      13   26511   26502   26514      14   26511   26526
   26535       5   26508   26499   26511       5   26508   26520   26535       5
   26508   26520   26538      10   26505   26502   26511      15   26505   26502
   26514      16   26505   26517   26529      17   26505   26517   26532      17
   26502   26496   26505      18   26502   26505   26517      19   26502   26511
   26526      20   26502   26514   26529      21   26499   26496   26502      22
   26499   26496   26505      23   26499   26508   26520       5   26499   26511
   26502      20   26499   26511   26526       5   26496   26499   26508      24
   26496   26499   26511      24   26496   26502   26505      25   26496   26502
   26511      26   26496   26502   26514      27   26496   26505   26502      28
   26496   26505   26517      29   26850   26853   26865       3   26832   26850
   26853       3   26814   26832   26850       3   26802   26823   26808       5
   26793   26814   26832       3   26790   26808   26823       5   26787   26775
   26790       6   26787   26802   26823       5   26778   26793   26814       3
   26775   26787   26802       7   26775   26790   26808       7   26766   26778
   26793       3   26757   26775   26787       9   26757   26775   26790       9
   26748   26766   26778       3   26739   26757   26775       9   26736   26757
   26739       6   26736   26757   26775       9   26730   26748   26766       3
   26727   26712   26730      10   26724   26739   26757       7   26721   26709
   26724       5   26721   26736   26757       7   26712   26727   26718       5
   26712   26730   26748      11   26709   26721   26736       5   26709   26724
   26739       5   26706   26721   26709      13   26706   26721   26736      13
   26703   26694   26706      14   26703   26718   26727       5   26700   26691
   26703       5   26700   26712   26727       5   26700   26712   26730      10
   26697   26694   26703      15   26697   26694   26706      16   26697   26709
   26721      17   26697   26709   26724      17   26694   26688   26697      18
   26694   26697   26709      19   26694   26703   26718      20   26694   26706
   26721      21   26691   26688   26694      22   26691   26688   26697      23
   26691   26700   26712       5   26691   26703   26694      20   26691   26703
   26718       5   26688   26691   26700      24   26688   26691   26703      24
   26688   26694   26697      25   26688   26694   26703      26   26688   26694
   26706      27   26688   26697   26694      28   26688   26697   26709      29
   27042   27045   27057       3   27024   27042   27045       3   27006   27024
   27042       3   26994   27015   27000       5   26985   27006   27024       3
   26982   27000   27015       5   26979   26967   26982       6   26979   26994
   27015       5   26970   26985   27006       3   26967   26979   26994       7
   26967   26982   27000       7   26958   26970   26985       3   26949   26967
   26979       9   26949   26967   26982       9   26940   26958   26970       3
   26931   26949   26967       9   26928   26949   26931       6   26928   26949
   26967       9   26922   26940   26958       3   26919   26904   26922      10
   26916   26931   26949       7   26913   26901   26916       5   26913   26928
   26949       7   26904   26919   26910       5   26904   26922   26940      11
   26901   26913   26928       5   26901   26916   26931       5   26898   26913
   26901      13   26898   26913   26928      13   26895   26886   26898      14
   26895   26910   26919       5   26892   26883   26895       5   26892   26904
   26919       5   26892   26904   26922      10   26889   26886   26895      15
   26889   26886   26898      16   26889   26901   26913      17   26889   26901
   26916      17   26886   26880   26889      18   26886   26889   26901      19
   26886   26895   26910      20   26886   26898   26913      21   26883   26880
   26886      22   26883   26880   26889      23   26883   26892   26904       5
   26883   26895   26886      20   26883   26895   26910       5   26880   26883
   26892      24   26880   26883   26895      24   26880   26886   26889      25
   26880   26886   26895      26   26880   26886   26898      27   26880   26889
   26886      28   26880   26889   26901      29   27234   27237   27249       3
   27216   27234   27237       3   27198   27216   27234       3   27186   27207
   27192       5   27177   27198   27216       3   27174   27192   27207       5
   27171   27159   27174       6   27171   27186   27207       5   27162   27177
   27198       3   27159   27171   27186       7   27159   27174   27192       7
   27150   27162   27177       3   27141   27159   27171       9   27141   27159
   27174       9   27132   27150   27162       3   27123   27141   27159       9
   27120   27141   27123       6   27120   27141   27159       9   27114   27132
   27150       3   27111   27096   27114      10   27108   27123   27141       7
   27105   27093   27108       5   27105   27120   27141       7   27096   27111
   27102       5   27096   27114   27132      11   27093   27105   27120       5
   27093   27108   27123       5   27090   27105   27093      13   27090   27105
   27120      13   27087   27078   27090      14   27087   27102   27111       5
   27084   27075   27087       5   27084   27096   27111       5   27084   27096
   27114      10   27081   27078   27087      15   27081   27078   27090      16
   27081   27093   27105      17   27081   27093   27108      17   27078   27072
   27081      18   27078   27081   27093      19   27078   27087   27102      20
   27078   27090   27105      21   27075   27072   27078      22   27075   27072
   27081      23   27075   27084   27096       5   27075   27087   27078      20
   27075   27087   27102       5   27072   27075   27084      24   27072   27075
   27087      24   27072   27078   27081      25   27072   27078   27087      26
   27072   27078   27090      27   27072   27081   27078      28   27072   27081
   27093      29   27426   27429   27441       3   27408   27426   27429       3
   27390   27408   27426       3   27378   27399   27384       5   27369   27390
   27408       3   27366   27384   27399       5   27363   27351   27366       6
   27363   27378   27399       5   27354   27369   27390       3   27351   27363
   27378       7   27351   27366   27384       7   27342   27354   27369       3
   27333   27351   27363       9   27333   27351   27366       9   27324   27342
   27354       3   27315   27333   27351       9   27312   27333   27315       6
   27312   27333   27351       9   27306   27324   27342       3   27303   27288
   27306      10   27300   27315   27333       7   27297   27285   27300       5
   27297   27312   27333       7   27288   27303   27294       5   27288   27306
   27324      11   27285   27297   27312       5   27285   27300   27315       5
   27282   27297   27285      13   27282   27297   27312      13   27279   27270
   27282      14   27279   27294   27303       5   27276   27267   27279       5
   27276   27288   27303       5   27276   27288   27306      10   27273   27270
   27279      15   27273   27270   27282      16   27273   27285   27297      17
   27273   27285   27300      17   27270   27264   27273      18   27270   27273
   27285      19   27270   27279   27294      20   27270   27282   27297      21
   27267   27264   27270      22   27267   27264   27273      23   27267   27276
   27288       5   27267   27279   27270      20   27267   27279   27294       5
   27264   27267   27276      24   27264   27267   27279      24   27264   27270
   27273      25   27264   27270   27279      26   27264   27270   27282      27
   27264   27273   27270      28   27264   27273   27285      29   27618   27621
   27633       3   27600   27618   27621       3   27582   27600   27618       3
   27570   27591   27576       5   27561   27582   27600       3   27558   27576
   27591       5   27555   27543   27558       6   27555   27570   27591       5
   27546   27561   27582       3   27543   27555   27570       7   27543   27558
   27576       7   27534   27546   27561       3   27525   27543   27555       9
   27525   27543   27558       9   27516   27534   27546       3   27507   27525
   27543       9   27504   27525   27507       6   27504   27525   27543       9
   27498   27516   27534       3   27495   27480   27498      10   27492   27507
   27525       7   27489   27477   27492       5   27489   27504   27525       7
   27480   27495   27486       5   27480   27498   27516      11   27477   27489
   27504       5   27477   27492   27507       5   27474   27489   27477      13
   27474   27489   27504      13   27471   27462   27474      14   27471   27486
   27495       5   27468   27459   27471       5   27468   27480   27495       5
   27468   27480   27498      10   27465   27462   27471      15   27465   27462
   27474      16   27465   27477   27489      17   27465   27477   27492      17
   27462   27456   27465      18   27462   27465   27477      19   27462   27471
   27486      20   27462   27474   27489      21   27459   27456   27462      22
   27459   27456   27465      23   27459   27468   27480       5   27459   27471
   27462      20   27459   27471   27486       5   27456   27459   27468      24
   27456   27459   27471      24   27456   27462   27465      25   27456   27462
   27471      26   27456   27462   27474      27   27456   27465   27462      28
   27456   27465   27477      29   27810   27813   27825       3   27792   27810
   27813       3   27774   27792   27810       3   27762   27783   27768       5
   27753   27774   27792       3   27750   27768   27783       5   27747   27735
   27750       6   27747   27762   27783       5   27738   27753   27774       3
   27735   27747   27762       7   27735   27750   27768       7   27726   27738
   27753       3   27717   27735   27747       9   27717   27735   27750       9
   27708   27726   27738       3   27699   27717   27735       9   27696   27717
   27699       6   27696   27717   27735       9   27690   27708   27726       3
   27687   27672   27690      10   27684   27699   27717       7   27681   27669
   27684       5   27681   27696   27717       7   27672   27687   27678       5
   27672   27690   27708      11   27669   27681   27696       5   27669   27684
   27699       5   27666   27681   27669      13   27666   27681   27696      13
   27663   27654   27666      14   27663   27678   27687       5   27660   27651
   27663       5   27660   27672   27687       5   27660   27672   27690      10
   27657   27654   27663      15   27657   27654   27666      16   27657   27669
   27681      17   27657   27669   27684      17   27654   27648   27657      18
   27654   27657   27669      19   27654   27663   27678      20   27654   27666
   27681      21   27651   27648   27654      22   27651   27648   27657      23
   27651   27660   27672       5   27651   27663   27654      20   27651   27663
   27678       5   27648   27651   27660      24   27648   27651   27663      24
   27648   27654   27657      25   27648   27654   27663      26   27648   27654
   27666      27   27648   27657   27654      28   27648   27657   27669      29
   28002   28005   28017       3   27984   28002   28005       3   27966   27984
   28002       3   27954   27975   27960       5   27945   27966   27984       3
   27942   27960   27975       5   27939   27927   27942       6   27939   27954
   27975       5   27930   27945   27966       3   27927   27939   27954       7
   27927   27942   27960       7   27918   27930   27945       3   27909   27927
   27939       9   27909   27927   27942       9   27900   27918   27930       3
   27891   27909   27927       9   27888   27909   27891       6   27888   27909
   27927       9   27882   27900   27918       3   27879   27864   27882      10
   27876   27891   27909       7   27873   27861   27876       5   27873   27888
   27909       7   27864   27879   27870       5   27864   27882   27900      11
   27861   27873   27888       5   27861   27876   27891       5   27858   27873
   27861      13   27858   27873   27888      13   27855   27846   27858      14
   27855   27870   27879       5   27852   27843   27855       5   27852   27864
   27879       5   27852   27864   27882      10   27849   27846   27855      15
   27849   27846   27858      16   27849   27861   27873      17   27849   27861
   27876      17   27846   27840   27849      18   27846   27849   27861      19
   27846   27855   27870      20   27846   27858   27873      21   27843   27840
   27846      22   27843   27840   27849      23   27843   27852   27864       5
   27843   27855   27846      20   27843   27855   27870       5   27840   27843
   27852      24   27840   27843   27855      24   27840   27846   27849      25
   27840   27846   27855      26   27840   27846   27858      27   27840   27849
   27846      28   27840   27849   27861      29   28194   28197   28209       3
   28176   28194   28197       3   28158   28176   28194       3   28146   28167
   28152       5   28137   28158   28176       3   28134   28152   28167       5
   28131   28119   28134       6   28131   28146   28167       5   28122   28137
   28158       3   28119   28131   28146       7   28119   28134   28152       7
   28110   28122   28137       3   28101   28119   28131       9   28101   28119
   28134       9   28092   28110   28122       3   28083   28101   28119       9
   28080   28101   28083       6   28080   28101   28119       9   28074   28092
   28110       3   28071   28056   28074      10   28068   28083   28101       7
   28065   28053   28068       5   28065   28080   28101       7   28056   28071
   28062       5   28056   28074   28092      11   28053   28065   28080       5
   28053   28068   28083       5   28050   28065   28053      13   28050   28065
   28080      13   28047   28038   28050      14   28047   28062   28071       5
   28044   28035   28047       5   28044   28056   28071       5   28044   28056
   28074      10   28041   28038   28047      15   28041   28038   28050      16
   28041   28053   28065      17   28041   28053   28068      17   28038   28032
   28041      18   28038   28041   28053      19   28038   28047   28062      20
   28038   28050   28065      21   28035   28032   28038      22   28035   28032
   28041      23   28035   28044   28056       5   28035   28047   28038      20
   28035   28047   28062       5   28032   28035   28044      24   28032   28035
   28047      24   28032   28038   28041      25   28032   28038   28047      26
   28032   28038   28050      27   28032   28041   28038      28   28032   28041
   28053      29   28386   28389   28401       3   28368   28386   28389       3
   28350   28368   28386       3   28338   28359   28344       5   28329   28350
   28368       3   28326   28344   28359       5   28323   28311   28326       6
   28323   28338   28359       5   28314   28329   28350       3   28311   28323
   28338       7   28311   28326   28344       7   28302   28314   28329       3
   28293   28311   28323       9   28293   28311   28326       9   28284   28302
   28314       3   28275   28293   28311       9   28272   28293   28275       6
   28272   28293   28311       9   28266   28284   28302       3   28263   28248
   28266      10   28260   28275   28293       7   28257   28245   28260       5
   28257   28272   28293       7   28248   28263   28254       5   28248   28266
   28284      11   28245   28257   28272       5   28245   28260   28275       5
   28242   28257   28245      13   28242   28257   28272      13   28239   28230
   28242      14   28239   28254   28263       5   28236   28227   28239       5
   28236   28248   28263       5   28236   28248   28266      10   28233   28230
   28239      15   28233   28230   28242      16   28233   28245   28257      17
   28233   28245   28260      17   28230   28224   28233      18   28230   28233
   28245      19   28230   28239   28254      20   28230   28242   28257      21
   28227   28224   28230      22   28227   28224   28233      23   28227   28236
   28248       5   28227   28239   28230      20   28227   28239   28254       5
   28224   28227   28236      24   28224   28227   28239      24   28224   28230
   28233      25   28224   28230   28239      26   28224   28230   28242      27
   28224   28233   28230      28   28224   28233   28245      29   28578   28581
   28593       3   28560   28578   28581       3   28542   28560   28578       3
   28530   28551   28536       5   28521   28542   28560       3   28518   28536
   28551       5   28515   28503   28518       6   28515   28530   28551       5
   28506   28521   28542       3   28503   28515   28530       7   28503   28518
   28536       7   28494   28506   28521       3   28485   28503   28515       9
   28485   28503   28518       9   28476   28494   28506       3   28467   28485
   28503       9   28464   28485   28467       6   28464   28485   28503       9
   28458   28476   28494       3   28455   28440   28458      10   28452   28467
   28485       7   28449   28437   28452       5   28449   28464   28485       7
   28440   28455   28446       5   28440   28458   28476      11   28437   28449
   28464       5   28437   28452   28467       5   28434   28449   28437      13
   28434   28449   28464      13   28431   28422   28434      14   28431   28446
   28455       5   28428   28419   28431       5   28428   28440   28455       5
   28428   28440   28458      10   28425   28422   28431      15   28425   28422
   28434      16   28425   28437   28449      17   28425   28437   28452      17
   28422   28416   28425      18   28422   28425   28437      19   28422   28431
   28446      20   28422   28434   28449      21   28419   28416   28422      22
   28419   28416   28425      23   28419   28428   28440       5   28419   28431
   28422      20   28419   28431   28446       5   28416   28419   28428      24
   28416   28419   28431      24   28416   28422   28425      25   28416   28422
   28431      26   28416   28422   28434      27   28416   28425   28422      28
   28416   28425   28437      29   28770   28773   28785       3   28752   28770
   28773       3   28734   28752   28770       3   28722   28743   28728       5
   28713   28734   28752       3   28710   28728   28743       5   28707   28695
   28710       6   28707   28722   28743       5   28698   28713   28734       3
   28695   28707   28722       7   28695   28710   28728       7   28686   28698
   28713       3   28677   28695   28707       9   28677   28695   28710       9
   28668   28686   28698       3   28659   28677   28695       9   28656   28677
   28659       6   28656   28677   28695       9   28650   28668   28686       3
   28647   28632   28650      10   28644   28659   28677       7   28641   28629
   28644       5   28641   28656   28677       7   28632   28647   28638       5
   28632   28650   28668      11   28629   28641   28656       5   28629   28644
   28659       5   28626   28641   28629      13   28626   28641   28656      13
   28623   28614   28626      14   28623   28638   28647       5   28620   28611
   28623       5   28620   28632   28647       5   28620   28632   28650      10
   28617   28614   28623      15   28617   28614   28626      16   28617   28629
   28641      17   28617   28629   28644      17   28614   28608   28617      18
   28614   28617   28629      19   28614   28623   28638      20   28614   28626
   28641      21   28611   28608   28614      22   28611   28608   28617      23
   28611   28620   28632       5   28611   28623   28614      20   28611   28623
   28638       5   28608   28611   28620      24   28608   28611   28623      24
   28608   28614   28617      25   28608   28614   28623      26   28608   28614
   28626      27   28608   28617   28614      28   28608   28617   28629      29
   28962   28965   28977       3   28944   28962   28965       3   28926   28944
   28962       3   28914   28935   28920       5   28905   28926   28944       3
   28902   28920   28935       5   28899   28887   28902       6   28899   28914
   28935       5   28890   28905   28926       3   28887   28899   28914       7
   28887   28902   28920       7   28878   28890   28905       3   28869   28887
   28899       9   28869   28887   28902       9   28860   28878   28890       3
   28851   28869   28887       9   28848   28869   28851       6   28848   28869
   28887       9   28842   28860   28878       3   28839   28824   28842      10
   28836   28851   28869       7   28833   28821   28836       5   28833   28848
   28869       7   28824   28839   28830       5   28824   28842   28860      11
   28821   28833   28848       5   28821   28836   28851       5   28818   28833
   28821      13   28818   28833   28848      13   28815   28806   28818      14
   28815   28830   28839       5   28812   28803   28815       5   28812   28824
   28839       5   28812   28824   28842      10   28809   28806   28815      15
   28809   28806   28818      16   28809   28821   28833      17   28809   28821
   28836      17   28806   28800   28809      18   28806   28809   28821      19
   28806   28815   28830      20   28806   28818   28833      21   28803   28800
   28806      22   28803   28800   28809      23   28803   28812   28824       5
   28803   28815   28806      20   28803   28815   28830       5   28800   28803
   28812      24   28800   28803   28815      24   28800   28806   28809      25
   28800   28806   28815      26   28800   28806   28818      27   28800   28809
   28806      28   28800   28809   28821      29   29154   29157   29169       3
   29136   29154   29157       3   29118   29136   29154       3   29106   29127
   29112       5   29097   29118   29136       3   29094   29112   29127       5
   29091   29079   29094       6   29091   29106   29127       5   29082   29097
   29118       3   29079   29091   29106       7   29079   29094   29112       7
   29070   29082   29097       3   29061   29079   29091       9   29061   29079
   29094       9   29052   29070   29082       3   29043   29061   29079       9
   29040   29061   29043       6   29040   29061   29079       9   29034   29052
   29070       3   29031   29016   29034      10   29028   29043   29061       7
   29025   29013   29028       5   29025   29040   29061       7   29016   29031
   29022       5   29016   29034   29052      11   29013   29025   29040       5
   29013   29028   29043       5   29010   29025   29013      13   29010   29025
   29040      13   29007   28998   29010      14   29007   29022   29031       5
   29004   28995   29007       5   29004   29016   29031       5   29004   29016
   29034      10   29001   28998   29007      15   29001   28998   29010      16
   29001   29013   29025      17   29001   29013   29028      17   28998   28992
   29001      18   28998   29001   29013      19   28998   29007   29022      20
   28998   29010   29025      21   28995   28992   28998      22   28995   28992
   29001      23   28995   29004   29016       5   28995   29007   28998      20
   28995   29007   29022       5   28992   28995   29004      24   28992   28995
   29007      24   28992   28998   29001      25   28992   28998   29007      26
   28992   28998   29010      27   28992   29001   28998      28   28992   29001
   29013      29   29346   29349   29361       3   29328   29346   29349       3
   29310   29328   29346       3   29298   29319   29304       5   29289   29310
   29328       3   29286   29304   29319       5   29283   29271   29286       6
   29283   29298   29319       5   29274   29289   29310       3   29271   29283
   29298       7   29271   29286   29304       7   29262   29274   29289       3
   29253   29271   29283       9   29253   29271   29286       9   29244   29262
   29274       3   29235   29253   29271       9   29232   29253   29235       6
   29232   29253   29271       9   29226   29244   29262       3   29223   29208
   29226      10   29220   29235   29253       7   29217   29205   29220       5
   29217   29232   29253       7   29208   29223   29214       5   29208   29226
   29244      11   29205   29217   29232       5   29205   29220   29235       5
   29202   29217   29205      13   29202   29217   29232      13   29199   29190
   29202      14   29199   29214   29223       5   29196   29187   29199       5
   29196   29208   29223       5   29196   29208   29226      10   29193   29190
   29199      15   29193   29190   29202      16   29193   29205   29217      17
   29193   29205   29220      17   29190   29184   29193      18   29190   29193
   29205      19   29190   29199   29214      20   29190   29202   29217      21
   29187   29184   29190      22   29187   29184   29193      23   29187   29196
   29208       5   29187   29199   29190      20   29187   29199   29214       5
   29184   29187   29196      24   29184   29187   29199      24   29184   29190
   29193      25   29184   29190   29199      26   29184   29190   29202      27
   29184   29193   29190      28   29184   29193   29205      29   29538   29541
   29553       3   29520   29538   29541       3   29502   29520   29538       3
   29490   29511   29496       5   29481   29502   29520       3   29478   29496
   29511       5   29475   29463   29478       6   29475   29490   29511       5
   29466   29481   29502       3   29463   29475   29490       7   29463   29478
   29496       7   29454   29466   29481       3   29445   29463   29475       9
   29445   29463   29478       9   29436   29454   29466       3   29427   29445
   29463       9   29424   29445   29427       6   29424   29445   29463       9
   29418   29436   29454       3   29415   29400   29418      10   29412   29427
   29445       7   29409   29397   29412       5   29409   29424   29445       7
   29400   29415   29406       5   29400   29418   29436      11   29397   29409
   29424       5   29397   29412   29427       5   29394   29409   29397      13
   29394   29409   29424      13   29391   29382   29394      14   29391   29406
   29415       5   29388   29379   29391       5   29388   29400   29415       5
   29388   29400   29418      10   29385   29382   29391      15   29385   29382
   29394      16   29385   29397   29409      17   29385   29397   29412      17
   29382   29376   29385      18   29382   29385   29397      19   29382   29391
   29406      20   29382   29394   29409      21   29379   29376   29382      22
   29379   29376   29385      23   29379   29388   29400       5   29379   29391
   29382      20   29379   29391   29406       5   29376   29379   29388      24
   29376   29379   29391      24   29376   29382   29385      25   29376   29382
   29391      26   29376   29382   29394      27   29376   29385   29382      28
   29376   29385   29397      29   29730   29733   29745       3   29712   29730
   29733       3   29694   29712   29730       3   29682   29703   29688       5
   29673   29694   29712       3   29670   29688   29703       5   29667   29655
   29670       6   29667   29682   29703       5   29658   29673   29694       3
   29655   29667   29682       7   29655   29670   29688       7   29646   29658
   29673       3   29637   29655   29667       9   29637   29655   29670       9
   29628   29646   29658       3   29619   29637   29655       9   29616   29637
   29619       6   29616   29637   29655       9   29610   29628   29646       3
   29607   29592   29610      10   29604   29619   29637       7   29601   29589
   29604       5   29601   29616   29637       7   29592   29607   29598       5
   29592   29610   29628      11   29589   29601   29616       5   29589   29604
   29619       5   29586   29601   29589      13   29586   29601   29616      13
   29583   29574   29586      14   29583   29598   29607       5   29580   29571
   29583       5   29580   29592   29607       5   29580   29592   29610      10
   29577   29574   29583      15   29577   29574   29586      16   29577   29589
   29601      17   29577   29589   29604      17   29574   29568   29577      18
   29574   29577   29589      19   29574   29583   29598      20   29574   29586
   29601      21   29571   29568   29574      22   29571   29568   29577      23
   29571   29580   29592       5   29571   29583   29574      20   29571   29583
   29598       5   29568   29571   29580      24   29568   29571   29583      24
   29568   29574   29577      25   29568   29574   29583      26   29568   29574
   29586      27   29568   29577   29574      28   29568   29577   29589      29
   29922   29925   29937       3   29904   29922   29925       3   29886   29904
   29922       3   29874   29895   29880       5   29865   29886   29904       3
   29862   29880   29895       5   29859   29847   29862       6   29859   29874
   29895       5   29850   29865   29886       3   29847   29859   29874       7
   29847   29862   29880       7   29838   29850   29865       3   29829   29847
   29859       9   29829   29847   29862       9   29820   29838   29850       3
   29811   29829   29847       9   29808   29829   29811       6   29808   29829
   29847       9   29802   29820   29838       3   29799   29784   29802      10
   29796   29811   29829       7   29793   29781   29796       5   29793   29808
   29829       7   29784   29799   29790       5   29784   29802   29820      11
   29781   29793   29808       5   29781   29796   29811       5   29778   29793
   29781      13   29778   29793   29808      13   29775   29766   29778      14
   29775   29790   29799       5   29772   29763   29775       5   29772   29784
   29799       5   29772   29784   29802      10   29769   29766   29775      15
   29769   29766   29778      16   29769   29781   29793      17   29769   29781
   29796      17   29766   29760   29769      18   29766   29769   29781      19
   29766   29775   29790      20   29766   29778   29793      21   29763   29760
   29766      22   29763   29760   29769      23   29763   29772   29784       5
   29763   29775   29766      20   29763   29775   29790       5   29760   29763
   29772      24   29760   29763   29775      24   29760   29766   29769      25
   29760   29766   29775      26   29760   29766   29778      27   29760   29769
   29766      28   29760   29769   29781      29   30114   30117   30129       3
   30096   30114   30117       3   30078   30096   30114       3   30066   30087
   30072       5   30057   30078   30096       3   30054   30072   30087       5
   30051   30039   30054       6   30051   30066   30087       5   30042   30057
   30078       3   30039   30051   30066       7   30039   30054   30072       7
   30030   30042   30057       3   30021   30039   30051       9   30021   30039
   30054       9   30012   30030   30042       3   30003   30021   30039       9
   30000   30021   30003       6   30000   30021   30039       9   29994   30012
   30030       3   29991   29976   29994      10   29988   30003   30021       7
   29985   29973   29988       5   29985   30000   30021       7   29976   29991
   29982       5   29976   29994   30012      11   29973   29985   30000       5
   29973   29988   30003       5   29970   29985   29973      13   29970   29985
   30000      13   29967   29958   29970      14   29967   29982   29991       5
   29964   29955   29967       5   29964   29976   29991       5   29964   29976
   29994      10   29961   29958   29967      15   29961   29958   29970      16
   29961   29973   29985      17   29961   29973   29988      17   29958   29952
   29961      18   29958   29961   29973      19   29958   29967   29982      20
   29958   29970   29985      21   29955   29952   29958      22   29955   29952
   29961      23   29955   29964   29976       5   29955   29967   29958      20
   29955   29967   29982       5   29952   29955   29964      24   29952   29955
   29967      24   29952   29958   29961      25   29952   29958   29967      26
   29952   29958   29970      27   29952   29961   29958      28   29952   29961
   29973      29   30306   30309   30321       3   30288   30306   30309       3
   30270   30288   30306       3   30258   30279   30264       5   30249   30270
   30288       3   30246   30264   30279       5   30243   30231   30246       6
   30243   30258   30279       5   30234   30249   30270       3   30231   30243
   30258       7   30231   30246   30264       7   30222   30234   30249       3
   30213   30231   30243       9   30213   30231   30246       9   30204   30222
   30234       3   30195   30213   30231       9   30192   30213   30195       6
   30192   30213   30231       9   30186   30204   30222       3   30183   30168
   30186      10   30180   30195   30213       7   30177   30165   30180       5
   30177   30192   30213       7   30168   30183   30174       5   30168   30186
   30204      11   30165   30177   30192       5   30165   30180   30195       5
   30162   30177   30165      13   30162   30177   30192      13   30159   30150
   30162      14   30159   30174   30183       5   30156   30147   30159       5
   30156   30168   30183       5   30156   30168   30186      10   30153   30150
   30159      15   30153   30150   30162      16   30153   30165   30177      17
   30153   30165   30180      17   30150   30144   30153      18   30150   30153
   30165      19   30150   30159   30174      20   30150   30162   30177      21
   30147   30144   30150      22   30147   30144   30153      23   30147   30156
   30168       5   30147   30159   30150      20   30147   30159   30174       5
   30144   30147   30156      24   30144   30147   30159      24   30144   30150
   30153      25   30144   30150   30159      26   30144   30150   30162      27
   30144   30153   30150      28   30144   30153   30165      29   30498   30501
   30513       3   30480   30498   30501       3   30462   30480   30498       3
   30450   30471   30456       5   30441   30462   30480       3   30438   30456
   30471       5   30435   30423   30438       6   30435   30450   30471       5
   30426   30441   30462       3   30423   30435   30450       7   30423   30438
   30456       7   30414   30426   30441       3   30405   30423   30435       9
   30405   30423   30438       9   30396   30414   30426       3   30387   30405
   30423       9   30384   30405   30387       6   30384   30405   30423       9
   30378   30396   30414       3   30375   30360   30378      10   30372   30387
   30405       7   30369   30357   30372       5   30369   30384   30405       7
   30360   30375   30366       5   30360   30378   30396      11   30357   30369
   30384       5   30357   30372   30387       5   30354   30369   30357      13
   30354   30369   30384      13   30351   30342   30354      14   30351   30366
   30375       5   30348   30339   30351       5   30348   30360   30375       5
   30348   30360   30378      10   30345   30342   30351      15   30345   30342
   30354      16   30345   30357   30369      17   30345   30357   30372      17
   30342   30336   30345      18   30342   30345   30357      19   30342   30351
   30366      20   30342   30354   30369      21   30339   30336   30342      22
   30339   30336   30345      23   30339   30348   30360       5   30339   30351
   30342      20   30339   30351   30366       5   30336   30339   30348      24
   30336   30339   30351      24   30336   30342   30345      25   30336   30342
   30351      26   30336   30342   30354      27   30336   30345   30342      28
   30336   30345   30357      29   30690   30693   30705       3   30672   30690
   30693       3   30654   30672   30690       3   30642   30663   30648       5
   30633   30654   30672       3   30630   30648   30663       5   30627   30615
   30630       6   30627   30642   30663       5   30618   30633   30654       3
   30615   30627   30642       7   30615   30630   30648       7   30606   30618
   30633       3   30597   30615   30627       9   30597   30615   30630       9
   30588   30606   30618       3   30579   30597   30615       9   30576   30597
   30579       6   30576   30597   30615       9   30570   30588   30606       3
   30567   30552   30570      10   30564   30579   30597       7   30561   30549
   30564       5   30561   30576   30597       7   30552   30567   30558       5
   30552   30570   30588      11   30549   30561   30576       5   30549   30564
   30579       5   30546   30561   30549      13   30546   30561   30576      13
   30543   30534   30546      14   30543   30558   30567       5   30540   30531
   30543       5   30540   30552   30567       5   30540   30552   30570      10
   30537   30534   30543      15   30537   30534   30546      16   30537   30549
   30561      17   30537   30549   30564      17   30534   30528   30537      18
   30534   30537   30549      19   30534   30543   30558      20   30534   30546
   30561      21   30531   30528   30534      22   30531   30528   30537      23
   30531   30540   30552       5   30531   30543   30534      20   30531   30543
   30558       5   30528   30531   30540      24   30528   30531   30543      24
   30528   30534   30537      25   30528   30534   30543      26   30528   30534
   30546      27   30528   30537   30534      28   30528   30537   30549      29
   30882   30885   30897       3   30864   30882   30885       3   30846   30864
   30882       3   30834   30855   30840       5   30825   30846   30864       3
   30822   30840   30855       5   30819   30807   30822       6   30819   30834
   30855       5   30810   30825   30846       3   30807   30819   30834       7
   30807   30822   30840       7   30798   30810   30825       3   30789   30807
   30819       9   30789   30807   30822       9   30780   30798   30810       3
   30771   30789   30807       9   30768   30789   30771       6   30768   30789
   30807       9   30762   30780   30798       3   30759   30744   30762      10
   30756   30771   30789       7   30753   30741   30756       5   30753   30768
   30789       7   30744   30759   30750       5   30744   30762   30780      11
   30741   30753   30768       5   30741   30756   30771       5   30738   30753
   30741      13   30738   30753   30768      13   30735   30726   30738      14
   30735   30750   30759       5   30732   30723   30735       5   30732   30744
   30759       5   30732   30744   30762      10   30729   30726   30735      15
   30729   30726   30738      16   30729   30741   30753      17   30729   30741
   30756      17   30726   30720   30729      18   30726   30729   30741      19
   30726   30735   30750      20   30726   30738   30753      21   30723   30720
   30726      22   30723   30720   30729      23   30723   30732   30744       5
   30723   30735   30726      20   30723   30735   30750       5   30720   30723
   30732      24   30720   30723   30735      24   30720   30726   30729      25
   30720   30726   30735      26   30720   30726   30738      27   30720   30729
   30726      28   30720   30729   30741      29   31074   31077   31089       3
   31056   31074   31077       3   31038   31056   31074       3   31026   31047
   31032       5   31017   31038   31056       3   31014   31032   31047       5
   31011   30999   31014       6   31011   31026   31047       5   31002   31017
   31038       3   30999   31011   31026       7   30999   31014   31032       7
   30990   31002   31017       3   30981   30999   31011       9   30981   30999
   31014       9   30972   30990   31002       3   30963   30981   30999       9
   30960   30981   30963       6   30960   30981   30999       9   30954   30972
   30990       3   30951   30936   30954      10   30948   30963   30981       7
   30945   30933   30948       5   30945   30960   30981       7   30936   30951
   30942       5   30936   30954   30972      11   30933   30945   30960       5
   30933   30948   30963       5   30930   30945   30933      13   30930   30945
   30960      13   30927   30918   30930      14   30927   30942   30951       5
   30924   30915   30927       5   30924   30936   30951       5   30924   30936
   30954      10   30921   30918   30927      15   30921   30918   30930      16
   30921   30933   30945      17   30921   30933   30948      17   30918   30912
   30921      18   30918   30921   30933      19   30918   30927   30942      20
   30918   30930   30945      21   30915   30912   30918      22   30915   30912
   30921      23   30915   30924   30936       5   30915   30927   30918      20
   30915   30927   30942       5   30912   30915   30924      24   30912   30915
   30927      24   30912   30918   30921      25   30912   30918   30927      26
   30912   30918   30930      27   30912   30921   30918      28   30912   30921
   30933      29   31266   31269   31281       3   31248   31266   31269       3
   31230   31248   31266       3   31218   31239   31224       5   31209   31230
   31248       3   31206   31224   31239       5   31203   31191   31206       6
   31203   31218   31239       5   31194   31209   31230       3   31191   31203
   31218       7   31191   31206   31224       7   31182   31194   31209       3
   31173   31191   31203       9   31173   31191   31206       9   31164   31182
   31194       3   31155   31173   31191       9   31152   31173   31155       6
   31152   31173   31191       9   31146   31164   31182       3   31143   31128
   31146      10   31140   31155   31173       7   31137   31125   31140       5
   31137   31152   31173       7   31128   31143   31134       5   31128   31146
   31164      11   31125   31137   31152       5   31125   31140   31155       5
   31122   31137   31125      13   31122   31137   31152      13   31119   31110
   31122      14   31119   31134   31143       5   31116   31107   31119       5
   31116   31128   31143       5   31116   31128   31146      10   31113   31110
   31119      15   31113   31110   31122      16   31113   31125   31137      17
   31113   31125   31140      17   31110   31104   31113      18   31110   31113
   31125      19   31110   31119   31134      20   31110   31122   31137      21
   31107   31104   31110      22   31107   31104   31113      23   31107   31116
   31128       5   31107   31119   31110      20   31107   31119   31134       5
   31104   31107   31116      24   31104   31107   31119      24   31104   31110
   31113      25   31104   31110   31119      26   31104   31110   31122      27
   31104   31113   31110      28   31104   31113   31125      29   31458   31461
   31473       3   31440   31458   31461       3   31422   31440   31458       3
   31410   31431   31416       5   31401   31422   31440       3   31398   31416
   31431       5   31395   31383   31398       6   31395   31410   31431       5
   31386   31401   31422       3   31383   31395   31410       7   31383   31398
   31416       7   31374   31386   31401       3   31365   31383   31395       9
   31365   31383   31398       9   31356   31374   31386       3   31347   31365
   31383       9   31344   31365   31347       6   31344   31365   31383       9
   31338   31356   31374       3   31335   31320   31338      10   31332   31347
   31365       7   31329   31317   31332       5   31329   31344   31365       7
   31320   31335   31326       5   31320   31338   31356      11   31317   31329
   31344       5   31317   31332   31347       5   31314   31329   31317      13
   31314   31329   31344      13   31311   31302   31314      14   31311   31326
   31335       5   31308   31299   31311       5   31308   31320   31335       5
   31308   31320   31338      10   31305   31302   31311      15   31305   31302
   31314      16   31305   31317   31329      17   31305   31317   31332      17
   31302   31296   31305      18   31302   31305   31317      19   31302   31311
   31326      20   31302   31314   31329      21   31299   31296   31302      22
   31299   31296   31305      23   31299   31308   31320       5   31299   31311
   31302      20   31299   31311   31326       5   31296   31299   31308      24
   31296   31299   31311      24   31296   31302   31305      25   31296   31302
   31311      26   31296   31302   31314      27   31296   31305   31302      28
   31296   31305   31317      29   31650   31653   31665       3   31632   31650
   31653       3   31614   31632   31650       3   31602   31623   31608       5
   31593   31614   31632       3   31590   31608   31623       5   31587   31575
   31590       6   31587   31602   31623       5   31578   31593   31614       3
   31575   31587   31602       7   31575   31590   31608       7   31566   31578
   31593       3   31557   31575   31587       9   31557   31575   31590       9
   31548   31566   31578       3   31539   31557   31575       9   31536   31557
   31539       6   31536   31557   31575       9   31530   31548   31566       3
   31527   31512   31530      10   31524   31539   31557       7   31521   31509
   31524       5   31521   31536   31557       7   31512   31527   31518       5
   31512   31530   31548      11   31509   31521   31536       5   31509   31524
   31539       5   31506   31521   31509      13   31506   31521   31536      13
   31503   31494   31506      14   31503   31518   31527       5   31500   31491
   31503       5   31500   31512   31527       5   31500   31512   31530      10
   31497   31494   31503      15   31497   31494   31506      16   31497   31509
   31521      17   31497   31509   31524      17   31494   31488   31497      18
   31494   31497   31509      19   31494   31503   31518      20   31494   31506
   31521      21   31491   31488   31494      22   31491   31488   31497      23
   31491   31500   31512       5   31491   31503   31494      20   31491   31503
   31518       5   31488   31491   31500      24   31488   31491   31503      24
   31488   31494   31497      25   31488   31494   31503      26   31488   31494
   31506      27   31488   31497   31494      28   31488   31497   31509      29
   31842   31845   31857       3   31824   31842   31845       3   31806   31824
   31842       3   31794   31815   31800       5   31785   31806   31824       3
   31782   31800   31815       5   31779   31767   31782       6   31779   31794
   31815       5   31770   31785   31806       3   31767   31779   31794       7
   31767   31782   31800       7   31758   31770   31785       3   31749   31767
   31779       9   31749   31767   31782       9   31740   31758   31770       3
   31731   31749   31767       9   31728   31749   31731       6   31728   31749
   31767       9   31722   31740   31758       3   31719   31704   31722      10
   31716   31731   31749       7   31713   31701   31716       5   31713   31728
   31749       7   31704   31719   31710       5   31704   31722   31740      11
   31701   31713   31728       5   31701   31716   31731       5   31698   31713
   31701      13   31698   31713   31728      13   31695   31686   31698      14
   31695   31710   31719       5   31692   31683   31695       5   31692   31704
   31719       5   31692   31704   31722      10   31689   31686   31695      15
   31689   31686   31698      16   31689   31701   31713      17   31689   31701
   31716      17   31686   31680   31689      18   31686   31689   31701      19
   31686   31695   31710      20   31686   31698   31713      21   31683   31680
   31686      22   31683   31680   31689      23   31683   31692   31704       5
   31683   31695   31686      20   31683   31695   31710       5   31680   31683
   31692      24   31680   31683   31695      24   31680   31686   31689      25
   31680   31686   31695      26   31680   31686   31698      27   31680   31689
   31686      28   31680   31689   31701      29   32034   32037   32049       3
   32016   32034   32037       3   31998   32016   32034       3   31986   32007
   31992       5   31977   31998   32016       3   31974   31992   32007       5
   31971   31959   31974       6   31971   31986   32007       5   31962   31977
   31998       3   31959   31971   31986       7   31959   31974   31992       7
   31950   31962   31977       3   31941   31959   31971       9   31941   31959
   31974       9   31932   31950   31962       3   31923   31941   31959       9
   31920   31941   31923       6   31920   31941   31959       9   31914   31932
   31950       3   31911   31896   31914      10   31908   31923   31941       7
   31905   31893   31908       5   31905   31920   31941       7   31896   31911
   31902       5   31896   31914   31932      11   31893   31905   31920       5
   31893   31908   31923       5   31890   31905   31893      13   31890   31905
   31920      13   31887   31878   31890      14   31887   31902   31911       5
   31884   31875   31887       5   31884   31896   31911       5   31884   31896
   31914      10   31881   31878   31887      15   31881   31878   31890      16
   31881   31893   31905      17   31881   31893   31908      17   31878   31872
   31881      18   31878   31881   31893      19   31878   31887   31902      20
   31878   31890   31905      21   31875   31872   31878      22   31875   31872
   31881      23   31875   31884   31896       5   31875   31887   31878      20
   31875   31887   31902       5   31872   31875   31884      24   31872   31875
   31887      24   31872   31878   31881      25   31872   31878   31887      26
   31872   31878   31890      27   31872   31881   31878      28   31872   31881
   31893      29   32226   32229   32241       3   32208   32226   32229       3
   32190   32208   32226       3   32178   32199   32184       5   32169   32190
   32208       3   32166   32184   32199       5   32163   32151   32166       6
   32163   32178   32199       5   32154   32169   32190       3   32151   32163
   32178       7   32151   32166   32184       7   32142   32154   32169       3
   32133   32151   32163       9   32133   32151   32166       9   32124   32142
   32154       3   32115   32133   32151       9   32112   32133   32115       6
   32112   32133   32151       9   32106   32124   32142       3   32103   32088
   32106      10   32100   32115   32133       7   32097   32085   32100       5
   32097   32112   32133       7   32088   32103   32094       5   32088   32106
   32124      11   32085   32097   32112       5   32085   32100   32115       5
   32082   32097   32085      13   32082   32097   32112      13   32079   32070
   32082      14   32079   32094   32103       5   32076   32067   32079       5
   32076   32088   32103       5   32076   32088   32106      10   32073   32070
   32079      15   32073   32070   32082      16   32073   32085   32097      17
   32073   32085   32100      17   32070   32064   32073      18   32070   32073
   32085      19   32070   32079   32094      20   32070   32082   32097      21
   32067   32064   32070      22   32067   32064   32073      23   32067   32076
   32088       5   32067   32079   32070      20   32067   32079   32094       5
   32064   32067   32076      24   32064   32067   32079      24   32064   32070
   32073      25   32064   32070   32079      26   32064   32070   32082      27
   32064   32073   32070      28   32064   32073   32085      29   32418   32421
   32433       3   32400   32418   32421       3   32382   32400   32418       3
   32370   32391   32376       5   32361   32382   32400       3   32358   32376
   32391       5   32355   32343   32358       6   32355   32370   32391       5
   32346   32361   32382       3   32343   32355   32370       7   32343   32358
   32376       7   32334   32346   32361       3   32325   32343   32355       9
   32325   32343   32358       9   32316   32334   32346       3   32307   32325
   32343       9   32304   32325   32307       6   32304   32325   32343       9
   32298   32316   32334       3   32295   32280   32298      10   32292   32307
   32325       7   32289   32277   32292       5   32289   32304   32325       7
   32280   32295   32286       5   32280   32298   32316      11   32277   32289
   32304       5   32277   32292   32307       5   32274   32289   32277      13
   32274   32289   32304      13   32271   32262   32274      14   32271   32286
   32295       5   32268   32259   32271       5   32268   32280   32295       5
   32268   32280   32298      10   32265   32262   32271      15   32265   32262
   32274      16   32265   32277   32289      17   32265   32277   32292      17
   32262   32256   32265      18   32262   32265   32277      19   32262   32271
   32286      20   32262   32274   32289      21   32259   32256   32262      22
   32259   32256   32265      23   32259   32268   32280       5   32259   32271
   32262      20   32259   32271   32286       5   32256   32259   32268      24
   32256   32259   32271      24   32256   32262   32265      25   32256   32262
   32271      26   32256   32262   32274      27   32256   32265   32262      28
   32256   32265   32277      29   32610   32613   32625       3   32592   32610
   32613       3   32574   32592   32610       3   32562   32583   32568       5
   32553   32574   32592       3   32550   32568   32583       5   32547   32535
   32550       6   32547   32562   32583       5   32538   32553   32574       3
   32535   32547   32562       7   32535   32550   32568       7   32526   32538
   32553       3   32517   32535   32547       9   32517   32535   32550       9
   32508   32526   32538       3   32499   32517   32535       9   32496   32517
   32499       6   32496   32517   32535       9   32490   32508   32526       3
   32487   32472   32490      10   32484   32499   32517       7   32481   32469
   32484       5   32481   32496   32517       7   32472   32487   32478       5
   32472   32490   32508      11   32469   32481   32496       5   32469   32484
   32499       5   32466   32481   32469      13   32466   32481   32496      13
   32463   32454   32466      14   32463   32478   32487       5   32460   32451
   32463       5   32460   32472   32487       5   32460   32472   32490      10
   32457   32454   32463      15   32457   32454   32466      16   32457   32469
   32481      17   32457   32469   32484      17   32454   32448   32457      18
   32454   32457   32469      19   32454   32463   32478      20   32454   32466
   32481      21   32451   32448   32454      22   32451   32448   32457      23
   32451   32460   32472       5   32451   32463   32454      20   32451   32463
   32478       5   32448   32451   32460      24   32448   32451   32463      24
   32448   32454   32457      25   32448   32454   32463      26   32448   32454
   32466      27   32448   32457   32454      28   32448   32457   32469      29
   32802   32805   32817       3   32784   32802   32805       3   32766   32784
   32802       3   32754   32775   32760       5   32745   32766   32784       3
   32742   32760   32775       5   32739   32727   32742       6   32739   32754
   32775       5   32730   32745   32766       3   32727   32739   32754       7
   32727   32742   32760       7   32718   32730   32745       3   32709   32727
   32739       9   32709   32727   32742       9   32700   32718   32730       3
   32691   32709   32727       9   32688   32709   32691       6   32688   32709
   32727       9   32682   32700   32718       3   32679   32664   32682      10
   32676   32691   32709       7   32673   32661   32676       5   32673   32688
   32709       7   32664   32679   32670       5   32664   32682   32700      11
   32661   32673   32688       5   32661   32676   32691       5   32658   32673
   32661      13   32658   32673   32688      13   32655   32646   32658      14
   32655   32670   32679       5   32652   32643   32655       5   32652   32664
   32679       5   32652   32664   32682      10   32649   32646   32655      15
   32649   32646   32658      16   32649   32661   32673      17   32649   32661
   32676      17   32646   32640   32649      18   32646   32649   32661      19
   32646   32655   32670      20   32646   32658   32673      21   32643   32640
   32646      22   32643   32640   32649      23   32643   32652   32664       5
   32643   32655   32646      20   32643   32655   32670       5   32640   32643
   32652      24   32640   32643   32655      24   32640   32646   32649      25
   32640   32646   32655      26   32640   32646   32658      27   32640   32649
   32646      28   32640   32649   32661      29   32994   32997   33009       3
   32976   32994   32997       3   32958   32976   32994       3   32946   32967
   32952       5   32937   32958   32976       3   32934   32952   32967       5
   32931   32919   32934       6   32931   32946   32967       5   32922   32937
   32958       3   32919   32931   32946       7   32919   32934   32952       7
   32910   32922   32937       3   32901   32919   32931       9   32901   32919
   32934       9   32892   32910   32922       3   32883   32901   32919       9
   32880   32901   32883       6   32880   32901   32919       9   32874   32892
   32910       3   32871   32856   32874      10   32868   32883   32901       7
   32865   32853   32868       5   32865   32880   32901       7   32856   32871
   32862       5   32856   32874   32892      11   32853   32865   32880       5
   32853   32868   32883       5   32850   32865   32853      13   32850   32865
   32880      13   32847   32838   32850      14   32847   32862   32871       5
   32844   32835   32847       5   32844   32856   32871       5   32844   32856
   32874      10   32841   32838   32847      15   32841   32838   32850      16
   32841   32853   32865      17   32841   32853   32868      17   32838   32832
   32841      18   32838   32841   32853      19   32838   32847   32862      20
   32838   32850   32865      21   32835   32832   32838      22   32835   32832
   32841      23   32835   32844   32856       5   32835   32847   32838      20
   32835   32847   32862       5   32832   32835   32844      24   32832   32835
   32847      24   32832   32838   32841      25   32832   32838   32847      26
   32832   32838   32850      27   32832   32841   32838      28   32832   32841
   32853      29   33186   33189   33201       3   33168   33186   33189       3
   33150   33168   33186       3   33138   33159   33144       5   33129   33150
   33168       3   33126   33144   33159       5   33123   33111   33126       6
   33123   33138   33159       5   33114   33129   33150       3   33111   33123
   33138       7   33111   33126   33144       7   33102   33114   33129       3
   33093   33111   33123       9   33093   33111   33126       9   33084   33102
   33114       3   33075   33093   33111       9   33072   33093   33075       6
   33072   33093   33111       9   33066   33084   33102       3   33063   33048
   33066      10   33060   33075   33093       7   33057   33045   33060       5
   33057   33072   33093       7   33048   33063   33054       5   33048   33066
   33084      11   33045   33057   33072       5   33045   33060   33075       5
   33042   33057   33045      13   33042   33057   33072      13   33039   33030
   33042      14   33039   33054   33063       5   33036   33027   33039       5
   33036   33048   33063       5   33036   33048   33066      10   33033   33030
   33039      15   33033   33030   33042      16   33033   33045   33057      17
   33033   33045   33060      17   33030   33024   33033      18   33030   33033
   33045      19   33030   33039   33054      20   33030   33042   33057      21
   33027   33024   33030      22   33027   33024   33033      23   33027   33036
   33048       5   33027   33039   33030      20   33027   33039   33054       5
   33024   33027   33036      24   33024   33027   33039      24   33024   33030
   33033      25   33024   33030   33039      26   33024   33030   33042      27
   33024   33033   33030      28   33024   33033   33045      29   33378   33381
   33393       3   33360   33378   33381       3   33342   33360   33378       3
   33330   33351   33336       5   33321   33342   33360       3   33318   33336
   33351       5   33315   33303   33318       6   33315   33330   33351       5
   33306   33321   33342       3   33303   33315   33330       7   33303   33318
   33336       7   33294   33306   33321       3   33285   33303   33315       9
   33285   33303   33318       9   33276   33294   33306       3   33267   33285
   33303       9   33264   33285   33267       6   33264   33285   33303       9
   33258   33276   33294       3   33255   33240   33258      10   33252   33267
   33285       7   33249   33237   33252       5   33249   33264   33285       7
   33240   33255   33246       5   33240   33258   33276      11   33237   33249
   33264       5   33237   33252   33267       5   33234   33249   33237      13
   33234   33249   33264      13   33231   33222   33234      14   33231   33246
   33255       5   33228   33219   33231       5   33228   33240   33255       5
   33228   33240   33258      10   33225   33222   33231      15   33225   33222
   33234      16   33225   33237   33249      17   33225   33237   33252      17
   33222   33216   33225      18   33222   33225   33237      19   33222   33231
   33246      20   33222   33234   33249      21   33219   33216   33222      22
   33219   33216   33225      23   33219   33228   33240       5   33219   33231
   33222      20   33219   33231   33246       5   33216   33219   33228      24
   33216   33219   33231      24   33216   33222   33225      25   33216   33222
   33231      26   33216   33222   33234      27   33216   33225   33222      28
   33216   33225   33237      29   33570   33573   33585       3   33552   33570
   33573       3   33534   33552   33570       3   33522   33543   33528       5
   33513   33534   33552       3   33510   33528   33543       5   33507   33495
   33510       6   33507   33522   33543       5   33498   33513   33534       3
   33495   33507   33522       7   33495   33510   33528       7   33486   33498
   33513       3   33477   33495   33507       9   33477   33495   33510       9
   33468   33486   33498       3   33459   33477   33495       9   33456   33477
   33459       6   33456   33477   33495       9   33450   33468   33486       3
   33447   33432   33450      10   33444   33459   33477       7   33441   33429
   33444       5   33441   33456   33477       7   33432   33447   33438       5
   33432   33450   33468      11   33429   33441   33456       5   33429   33444
   33459       5   33426   33441   33429      13   33426   33441   33456      13
   33423   33414   33426      14   33423   33438   33447       5   33420   33411
   33423       5   33420   33432   33447       5   33420   33432   33450      10
   33417   33414   33423      15   33417   33414   33426      16   33417   33429
   33441      17   33417   33429   33444      17   33414   33408   33417      18
   33414   33417   33429      19   33414   33423   33438      20   33414   33426
   33441      21   33411   33408   33414      22   33411   33408   33417      23
   33411   33420   33432       5   33411   33423   33414      20   33411   33423
   33438       5   33408   33411   33420      24   33408   33411   33423      24
   33408   33414   33417      25   33408   33414   33423      26   33408   33414
   33426      27   33408   33417   33414      28   33408   33417   33429      29
   33762   33765   33777       3   33744   33762   33765       3   33726   33744
   33762       3   33714   33735   33720       5   33705   33726   33744       3
   33702   33720   33735       5   33699   33687   33702       6   33699   33714
   33735       5   33690   33705   33726       3   33687   33699   33714       7
   33687   33702   33720       7   33678   33690   33705       3   33669   33687
   33699       9   33669   33687   33702       9   33660   33678   33690       3
   33651   33669   33687       9   33648   33669   33651       6   33648   33669
   33687       9   33642   33660   33678       3   33639   33624   33642      10
   33636   33651   33669       7   33633   33621   33636       5   33633   33648
   33669       7   33624   33639   33630       5   33624   33642   33660      11
   33621   33633   33648       5   33621   33636   33651       5   33618   33633
   33621      13   33618   33633   33648      13   33615   33606   33618      14
   33615   33630   33639       5   33612   33603   33615       5   33612   33624
   33639       5   33612   33624   33642      10   33609   33606   33615      15
   33609   33606   33618      16   33609   33621   33633      17   33609   33621
   33636      17   33606   33600   33609      18   33606   33609   33621      19
   33606   33615   33630      20   33606   33618   33633      21   33603   33600
   33606      22   33603   33600   33609      23   33603   33612   33624       5
   33603   33615   33606      20   33603   33615   33630       5   33600   33603
   33612      24   33600   33603   33615      24   33600   33606   33609      25
   33600   33606   33615      26   33600   33606   33618      27   33600   33609
   33606      28   33600   33609   33621      29   33954   33957   33969       3
   33936   33954   33957       3   33918   33936   33954       3   33906   33927
   33912       5   33897   33918   33936       3   33894   33912   33927       5
   33891   33879   33894       6   33891   33906   33927       5   33882   33897
   33918       3   33879   33891   33906       7   33879   33894   33912       7
   33870   33882   33897       3   33861   33879   33891       9   33861   33879
   33894       9   33852   33870   33882       3   33843   33861   33879       9
   33840   33861   33843       6   33840   33861   33879       9   33834   33852
   33870       3   33831   33816   33834      10   33828   33843   33861       7
   33825   33813   33828       5   33825   33840   33861       7   33816   33831
   33822       5   33816   33834   33852      11   33813   33825   33840       5
   33813   33828   33843       5   33810   33825   33813      13   33810   33825
   33840      13   33807   33798   33810      14   33807   33822   33831       5
   33804   33795   33807       5   33804   33816   33831       5   33804   33816
   33834      10   33801   33798   33807      15   33801   33798   33810      16
   33801   33813   33825      17   33801   33813   33828      17   33798   33792
   33801      18   33798   33801   33813      19   33798   33807   33822      20
   33798   33810   33825      21   33795   33792   33798      22   33795   33792
   33801      23   33795   33804   33816       5   33795   33807   33798      20
   33795   33807   33822       5   33792   33795   33804      24   33792   33795
   33807      24   33792   33798   33801      25   33792   33798   33807      26
   33792   33798   33810      27   33792   33801   33798      28   33792   33801
   33813      29   34146   34149   34161       3   34128   34146   34149       3
   34110   34128   34146       3   34098   34119   34104       5   34089   34110
   34128       3   34086   34104   34119       5   34083   34071   34086       6
   34083   34098   34119       5   34074   34089   34110       3   34071   34083
   34098       7   34071   34086   34104       7   34062   34074   34089       3
   34053   34071   34083       9   34053   34071   34086       9   34044   34062
   34074       3   34035   34053   34071       9   34032   34053   34035       6
   34032   34053   34071       9   34026   34044   34062       3   34023   34008
   34026      10   34020   34035   34053       7   34017   34005   34020       5
   34017   34032   34053       7   34008   34023   34014       5   34008   34026
   34044      11   34005   34017   34032       5   34005   34020   34035       5
   34002   34017   34005      13   34002   34017   34032      13   33999   33990
   34002      14   33999   34014   34023       5   33996   33987   33999       5
   33996   34008   34023       5   33996   34008   34026      10   33993   33990
   33999      15   33993   33990   34002      16   33993   34005   34017      17
   33993   34005   34020      17   33990   33984   33993      18   33990   33993
   34005      19   33990   33999   34014      20   33990   34002   34017      21
   33987   33984   33990      22   33987   33984   33993      23   33987   33996
   34008       5   33987   33999   33990      20   33987   33999   34014       5
   33984   33987   33996      24   33984   33987   33999      24   33984   33990
   33993      25   33984   33990   33999      26   33984   33990   34002      27
   33984   33993   33990      28   33984   33993   34005      29   34338   34341
   34353       3   34320   34338   34341       3   34302   34320   34338       3
   34290   34311   34296       5   34281   34302   34320       3   34278   34296
   34311       5   34275   34263   34278       6   34275   34290   34311       5
   34266   34281   34302       3   34263   34275   34290       7   34263   34278
   34296       7   34254   34266   34281       3   34245   34263   34275       9
   34245   34263   34278       9   34236   34254   34266       3   34227   34245
   34263       9   34224   34245   34227       6   34224   34245   34263       9
   34218   34236   34254       3   34215   34200   34218      10   34212   34227
   34245       7   34209   34197   34212       5   34209   34224   34245       7
   34200   34215   34206       5   34200   34218   34236      11   34197   34209
   34224       5   34197   34212   34227       5   34194   34209   34197      13
   34194   34209   34224      13   34191   34182   34194      14   34191   34206
   34215       5   34188   34179   34191       5   34188   34200   34215       5
   34188   34200   34218      10   34185   34182   34191      15   34185   34182
   34194      16   34185   34197   34209      17   34185   34197   34212      17
   34182   34176   34185      18   34182   34185   34197      19   34182   34191
   34206      20   34182   34194   34209      21   34179   34176   34182      22
   34179   34176   34185      23   34179   34188   34200       5   34179   34191
   34182      20   34179   34191   34206       5   34176   34179   34188      24
   34176   34179   34191      24   34176   34182   34185      25   34176   34182
   34191      26   34176   34182   34194      27   34176   34185   34182      28
   34176   34185   34197      29   34530   34533   34545       3   34512   34530
   34533       3   34494   34512   34530       3   34482   34503   34488       5
   34473   34494   34512       3   34470   34488   34503       5   34467   34455
   34470       6   34467   34482   34503       5   34458   34473   34494       3
   34455   34467   34482       7   34455   34470   34488       7   34446   34458
   34473       3   34437   34455   34467       9   34437   34455   34470       9
   34428   34446   34458       3   34419   34437   34455       9   34416   34437
   34419       6   34416   34437   34455       9   34410   34428   34446       3
   34407   34392   34410      10   34404   34419   34437       7   34401   34389
   34404       5   34401   34416   34437       7   34392   34407   34398       5
   34392   34410   34428      11   34389   34401   34416       5   34389   34404
   34419       5   34386   34401   34389      13   34386   34401   34416      13
   34383   34374   34386      14   34383   34398   34407       5   34380   34371
   34383       5   34380   34392   34407       5   34380   34392   34410      10
   34377   34374   34383      15   34377   34374   34386      16   34377   34389
   34401      17   34377   34389   34404      17   34374   34368   34377      18
   34374   34377   34389      19   34374   34383   34398      20   34374   34386
   34401      21   34371   34368   34374      22   34371   34368   34377      23
   34371   34380   34392       5   34371   34383   34374      20   34371   34383
   34398       5   34368   34371   34380      24   34368   34371   34383      24
   34368   34374   34377      25   34368   34374   34383      26   34368   34374
   34386      27   34368   34377   34374      28   34368   34377   34389      29
   34722   34725   34737       3   34704   34722   34725       3   34686   34704
   34722       3   34674   34695   34680       5   34665   34686   34704       3
   34662   34680   34695       5   34659   34647   34662       6   34659   34674
   34695       5   34650   34665   34686       3   34647   34659   34674       7
   34647   34662   34680       7   34638   34650   34665       3   34629   34647
   34659       9   34629   34647   34662       9   34620   34638   34650       3
   34611   34629   34647       9   34608   34629   34611       6   34608   34629
   34647       9   34602   34620   34638       3   34599   34584   34602      10
   34596   34611   34629       7   34593   34581   34596       5   34593   34608
   34629       7   34584   34599   34590       5   34584   34602   34620      11
   34581   34593   34608       5   34581   34596   34611       5   34578   34593
   34581      13   34578   34593   34608      13   34575   34566   34578      14
   34575   34590   34599       5   34572   34563   34575       5   34572   34584
   34599       5   34572   34584   34602      10   34569   34566   34575      15
   34569   34566   34578      16   34569   34581   34593      17   34569   34581
   34596      17   34566   34560   34569      18   34566   34569   34581      19
   34566   34575   34590      20   34566   34578   34593      21   34563   34560
   34566      22   34563   34560   34569      23   34563   34572   34584       5
   34563   34575   34566      20   34563   34575   34590       5   34560   34563
   34572      24   34560   34563   34575      24   34560   34566   34569      25
   34560   34566   34575      26   34560   34566   34578      27   34560   34569
   34566      28   34560   34569   34581      29   34914   34917   34929       3
   34896   34914   34917       3   34878   34896   34914       3   34866   34887
   34872       5   34857   34878   34896       3   34854   34872   34887       5
   34851   34839   34854       6   34851   34866   34887       5   34842   34857
   34878       3   34839   34851   34866       7   34839   34854   34872       7
   34830   34842   34857       3   34821   34839   34851       9   34821   34839
   34854       9   34812   34830   34842       3   34803   34821   34839       9
   34800   34821   34803       6   34800   34821   34839       9   34794   34812
   34830       3   34791   34776   34794      10   34788   34803   34821       7
   34785   34773   34788       5   34785   34800   34821       7   34776   34791
   34782       5   34776   34794   34812      11   34773   34785   34800       5
   34773   34788   34803       5   34770   34785   34773      13   34770   34785
   34800      13   34767   34758   34770      14   34767   34782   34791       5
   34764   34755   34767       5   34764   34776   34791       5   34764   34776
   34794      10   34761   34758   34767      15   34761   34758   34770      16
   34761   34773   34785      17   34761   34773   34788      17   34758   34752
   34761      18   34758   34761   34773      19   34758   34767   34782      20
   34758   34770   34785      21   34755   34752   34758      22   34755   34752
   34761      23   34755   34764   34776       5   34755   34767   34758      20
   34755   34767   34782       5   34752   34755   34764      24   34752   34755
   34767      24   34752   34758   34761      25   34752   34758   34767      26
   34752   34758   34770      27   34752   34761   34758      28   34752   34761
   34773      29   35106   35109   35121       3   35088   35106   35109       3
   35070   35088   35106       3   35058   35079   35064       5   35049   35070
   35088       3   35046   35064   35079       5   35043   35031   35046       6
   35043   35058   35079       5   35034   35049   35070       3   35031   35043
   35058       7   35031   35046   35064       7   35022   35034   35049       3
   35013   35031   35043       9   35013   35031   35046       9   35004   35022
   35034       3   34995   35013   35031       9   34992   35013   34995       6
   34992   35013   35031       9   34986   35004   35022       3   34983   34968
   34986      10   34980   34995   35013       7   34977   34965   34980       5
   34977   34992   35013       7   34968   34983   34974       5   34968   34986
   35004      11   34965   34977   34992       5   34965   34980   34995       5
   34962   34977   34965      13   34962   34977   34992      13   34959   34950
   34962      14   34959   34974   34983       5   34956   34947   34959       5
   34956   34968   34983       5   34956   34968   34986      10   34953   34950
   34959      15   34953   34950   34962      16   34953   34965   34977      17
   34953   34965   34980      17   34950   34944   34953      18   34950   34953
   34965      19   34950   34959   34974      20   34950   34962   34977      21
   34947   34944   34950      22   34947   34944   34953      23   34947   34956
   34968       5   34947   34959   34950      20   34947   34959   34974       5
   34944   34947   34956      24   34944   34947   34959      24   34944   34950
   34953      25   34944   34950   34959      26   34944   34950   34962      27
   34944   34953   34950      28   34944   34953   34965      29   35298   35301
   35313       3   35280   35298   35301       3   35262   35280   35298       3
   35250   35271   35256       5   35241   35262   35280       3   35238   35256
   35271       5   35235   35223   35238       6   35235   35250   35271       5
   35226   35241   35262       3   35223   35235   35250       7   35223   35238
   35256       7   35214   35226   35241       3   35205   35223   35235       9
   35205   35223   35238       9   35196   35214   35226       3   35187   35205
   35223       9   35184   35205   35187       6   35184   35205   35223       9
   35178   35196   35214       3   35175   35160   35178      10   35172   35187
   35205       7   35169   35157   35172       5   35169   35184   35205       7
   35160   35175   35166       5   35160   35178   35196      11   35157   35169
   35184       5   35157   35172   35187       5   35154   35169   35157      13
   35154   35169   35184      13   35151   35142   35154      14   35151   35166
   35175       5   35148   35139   35151       5   35148   35160   35175       5
   35148   35160   35178      10   35145   35142   35151      15   35145   35142
   35154      16   35145   35157   35169      17   35145   35157   35172      17
   35142   35136   35145      18   35142   35145   35157      19   35142   35151
   35166      20   35142   35154   35169      21   35139   35136   35142      22
   35139   35136   35145      23   35139   35148   35160       5   35139   35151
   35142      20   35139   35151   35166       5   35136   35139   35148      24
   35136   35139   35151      24   35136   35142   35145      25   35136   35142
   35151      26   35136   35142   35154      27   35136   35145   35142      28
   35136   35145   35157      29   35490   35493   35505       3   35472   35490
   35493       3   35454   35472   35490       3   35442   35463   35448       5
   35433   35454   35472       3   35430   35448   35463       5   35427   35415
   35430       6   35427   35442   35463       5   35418   35433   35454       3
   35415   35427   35442       7   35415   35430   35448       7   35406   35418
   35433       3   35397   35415   35427       9   35397   35415   35430       9
   35388   35406   35418       3   35379   35397   35415       9   35376   35397
   35379       6   35376   35397   35415       9   35370   35388   35406       3
   35367   35352   35370      10   35364   35379   35397       7   35361   35349
   35364       5   35361   35376   35397       7   35352   35367   35358       5
   35352   35370   35388      11   35349   35361   35376       5   35349   35364
   35379       5   35346   35361   35349      13   35346   35361   35376      13
   35343   35334   35346      14   35343   35358   35367       5   35340   35331
   35343       5   35340   35352   35367       5   35340   35352   35370      10
   35337   35334   35343      15   35337   35334   35346      16   35337   35349
   35361      17   35337   35349   35364      17   35334   35328   35337      18
   35334   35337   35349      19   35334   35343   35358      20   35334   35346
   35361      21   35331   35328   35334      22   35331   35328   35337      23
   35331   35340   35352       5   35331   35343   35334      20   35331   35343
   35358       5   35328   35331   35340      24   35328   35331   35343      24
   35328   35334   35337      25   35328   35334   35343      26   35328   35334
   35346      27   35328   35337   35334      28   35328   35337   35349      29
   35682   35685   35697       3   35664   35682   35685       3   35646   35664
   35682       3   35634   35655   35640       5   35625   35646   35664       3
   35622   35640   35655       5   35619   35607   35622       6   35619   35634
   35655       5   35610   35625   35646       3   35607   35619   35634       7
   35607   35622   35640       7   35598   35610   35625       3   35589   35607
   35619       9   35589   35607   35622       9   35580   35598   35610       3
   35571   35589   35607       9   35568   35589   35571       6   35568   35589
   35607       9   35562   35580   35598       3   35559   35544   35562      10
   35556   35571   35589       7   35553   35541   35556       5   35553   35568
   35589       7   35544   35559   35550       5   35544   35562   35580      11
   35541   35553   35568       5   35541   35556   35571       5   35538   35553
   35541      13   35538   35553   35568      13   35535   35526   35538      14
   35535   35550   35559       5   35532   35523   35535       5   35532   35544
   35559       5   35532   35544   35562      10   35529   35526   35535      15
   35529   35526   35538      16   35529   35541   35553      17   35529   35541
   35556      17   35526   35520   35529      18   35526   35529   35541      19
   35526   35535   35550      20   35526   35538   35553      21   35523   35520
   35526      22   35523   35520   35529      23   35523   35532   35544       5
   35523   35535   35526      20   35523   35535   35550       5   35520   35523
   35532      24   35520   35523   35535      24   35520   35526   35529      25
   35520   35526   35535      26   35520   35526   35538      27   35520   35529
   35526      28   35520   35529   35541      29   35874   35877   35889       3
   35856   35874   35877       3   35838   35856   35874       3   35826   35847
   35832       5   35817   35838   35856       3   35814   35832   35847       5
   35811   35799   35814       6   35811   35826   35847       5   35802   35817
   35838       3   35799   35811   35826       7   35799   35814   35832       7
   35790   35802   35817       3   35781   35799   35811       9   35781   35799
   35814       9   35772   35790   35802       3   35763   35781   35799       9
   35760   35781   35763       6   35760   35781   35799       9   35754   35772
   35790       3   35751   35736   35754      10   35748   35763   35781       7
   35745   35733   35748       5   35745   35760   35781       7   35736   35751
   35742       5   35736   35754   35772      11   35733   35745   35760       5
   35733   35748   35763       5   35730   35745   35733      13   35730   35745
   35760      13   35727   35718   35730      14   35727   35742   35751       5
   35724   35715   35727       5   35724   35736   35751       5   35724   35736
   35754      10   35721   35718   35727      15   35721   35718   35730      16
   35721   35733   35745      17   35721   35733   35748      17   35718   35712
   35721      18   35718   35721   35733      19   35718   35727   35742      20
   35718   35730   35745      21   35715   35712   35718      22   35715   35712
   35721      23   35715   35724   35736       5   35715   35727   35718      20
   35715   35727   35742       5   35712   35715   35724      24   35712   35715
   35727      24   35712   35718   35721      25   35712   35718   35727      26
   35712   35718   35730      27   35712   35721   35718      28   35712   35721
   35733      29   36066   36069   36081       3   36048   36066   36069       3
   36030   36048   36066       3   36018   36039   36024       5   36009   36030
   36048       3   36006   36024   36039       5   36003   35991   36006       6
   36003   36018   36039       5   35994   36009   36030       3   35991   36003
   36018       7   35991   36006   36024       7   35982   35994   36009       3
   35973   35991   36003       9   35973   35991   36006       9   35964   35982
   35994       3   35955   35973   35991       9   35952   35973   35955       6
   35952   35973   35991       9   35946   35964   35982       3   35943   35928
   35946      10   35940   35955   35973       7   35937   35925   35940       5
   35937   35952   35973       7   35928   35943   35934       5   35928   35946
   35964      11   35925   35937   35952       5   35925   35940   35955       5
   35922   35937   35925      13   35922   35937   35952      13   35919   35910
   35922      14   35919   35934   35943       5   35916   35907   35919       5
   35916   35928   35943       5   35916   35928   35946      10   35913   35910
   35919      15   35913   35910   35922      16   35913   35925   35937      17
   35913   35925   35940      17   35910   35904   35913      18   35910   35913
   35925      19   35910   35919   35934      20   35910   35922   35937      21
   35907   35904   35910      22   35907   35904   35913      23   35907   35916
   35928       5   35907   35919   35910      20   35907   35919   35934       5
   35904   35907   35916      24   35904   35907   35919      24   35904   35910
   35913      25   35904   35910   35919      26   35904   35910   35922      27
   35904   35913   35910      28   35904   35913   35925      29   36258   36261
   36273       3   36240   36258   36261       3   36222   36240   36258       3
   36210   36231   36216       5   36201   36222   36240       3   36198   36216
   36231       5   36195   36183   36198       6   36195   36210   36231       5
   36186   36201   36222       3   36183   36195   36210       7   36183   36198
   36216       7   36174   36186   36201       3   36165   36183   36195       9
   36165   36183   36198       9   36156   36174   36186       3   36147   36165
   36183       9   36144   36165   36147       6   36144   36165   36183       9
   36138   36156   36174       3   36135   36120   36138      10   36132   36147
   36165       7   36129   36117   36132       5   36129   36144   36165       7
   36120   36135   36126       5   36120   36138   36156      11   36117   36129
   36144       5   36117   36132   36147       5   36114   36129   36117      13
   36114   36129   36144      13   36111   36102   36114      14   36111   36126
   36135       5   36108   36099   36111       5   36108   36120   36135       5
   36108   36120   36138      10   36105   36102   36111      15   36105   36102
   36114      16   36105   36117   36129      17   36105   36117   36132      17
   36102   36096   36105      18   36102   36105   36117      19   36102   36111
   36126      20   36102   36114   36129      21   36099   36096   36102      22
   36099   36096   36105      23   36099   36108   36120       5   36099   36111
   36102      20   36099   36111   36126       5   36096   36099   36108      24
   36096   36099   36111      24   36096   36102   36105      25   36096   36102
   36111      26   36096   36102   36114      27   36096   36105   36102      28
   36096   36105   36117      29   36450   36453   36465       3   36432   36450
   36453       3   36414   36432   36450       3   36402   36423   36408       5
   36393   36414   36432       3   36390   36408   36423       5   36387   36375
   36390       6   36387   36402   36423       5   36378   36393   36414       3
   36375   36387   36402       7   36375   36390   36408       7   36366   36378
   36393       3   36357   36375   36387       9   36357   36375   36390       9
   36348   36366   36378       3   36339   36357   36375       9   36336   36357
   36339       6   36336   36357   36375       9   36330   36348   36366       3
   36327   36312   36330      10   36324   36339   36357       7   36321   36309
   36324       5   36321   36336   36357       7   36312   36327   36318       5
   36312   36330   36348      11   36309   36321   36336       5   36309   36324
   36339       5   36306   36321   36309      13   36306   36321   36336      13
   36303   36294   36306      14   36303   36318   36327       5   36300   36291
   36303       5   36300   36312   36327       5   36300   36312   36330      10
   36297   36294   36303      15   36297   36294   36306      16   36297   36309
   36321      17   36297   36309   36324      17   36294   36288   36297      18
   36294   36297   36309      19   36294   36303   36318      20   36294   36306
   36321      21   36291   36288   36294      22   36291   36288   36297      23
   36291   36300   36312       5   36291   36303   36294      20   36291   36303
   36318       5   36288   36291   36300      24   36288   36291   36303      24
   36288   36294   36297      25   36288   36294   36303      26   36288   36294
   36306      27   36288   36297   36294      28   36288   36297   36309      29
   36642   36645   36657       3   36624   36642   36645       3   36606   36624
   36642       3   36594   36615   36600       5   36585   36606   36624       3
   36582   36600   36615       5   36579   36567   36582       6   36579   36594
   36615       5   36570   36585   36606       3   36567   36579   36594       7
   36567   36582   36600       7   36558   36570   36585       3   36549   36567
   36579       9   36549   36567   36582       9   36540   36558   36570       3
   36531   36549   36567       9   36528   36549   36531       6   36528   36549
   36567       9   36522   36540   36558       3   36519   36504   36522      10
   36516   36531   36549       7   36513   36501   36516       5   36513   36528
   36549       7   36504   36519   36510       5   36504   36522   36540      11
   36501   36513   36528       5   36501   36516   36531       5   36498   36513
   36501      13   36498   36513   36528      13   36495   36486   36498      14
   36495   36510   36519       5   36492   36483   36495       5   36492   36504
   36519       5   36492   36504   36522      10   36489   36486   36495      15
   36489   36486   36498      16   36489   36501   36513      17   36489   36501
   36516      17   36486   36480   36489      18   36486   36489   36501      19
   36486   36495   36510      20   36486   36498   36513      21   36483   36480
   36486      22   36483   36480   36489      23   36483   36492   36504       5
   36483   36495   36486      20   36483   36495   36510       5   36480   36483
   36492      24   36480   36483   36495      24   36480   36486   36489      25
   36480   36486   36495      26   36480   36486   36498      27   36480   36489
   36486      28   36480   36489   36501      29   36834   36837   36849       3
   36816   36834   36837       3   36798   36816   36834       3   36786   36807
   36792       5   36777   36798   36816       3   36774   36792   36807       5
   36771   36759   36774       6   36771   36786   36807       5   36762   36777
   36798       3   36759   36771   36786       7   36759   36774   36792       7
   36750   36762   36777       3   36741   36759   36771       9   36741   36759
   36774       9   36732   36750   36762       3   36723   36741   36759       9
   36720   36741   36723       6   36720   36741   36759       9   36714   36732
   36750       3   36711   36696   36714      10   36708   36723   36741       7
   36705   36693   36708       5   36705   36720   36741       7   36696   36711
   36702       5   36696   36714   36732      11   36693   36705   36720       5
   36693   36708   36723       5   36690   36705   36693      13   36690   36705
   36720      13   36687   36678   36690      14   36687   36702   36711       5
   36684   36675   36687       5   36684   36696   36711       5   36684   36696
   36714      10   36681   36678   36687      15   36681   36678   36690      16
   36681   36693   36705      17   36681   36693   36708      17   36678   36672
   36681      18   36678   36681   36693      19   36678   36687   36702      20
   36678   36690   36705      21   36675   36672   36678      22   36675   36672
   36681      23   36675   36684   36696       5   36675   36687   36678      20
   36675   36687   36702       5   36672   36675   36684      24   36672   36675
   36687      24   36672   36678   36681      25   36672   36678   36687      26
   36672   36678   36690      27   36672   36681   36678      28   36672   36681
   36693      29   37026   37029   37041       3   37008   37026   37029       3
   36990   37008   37026       3   36978   36999   36984       5   36969   36990
   37008       3   36966   36984   36999       5   36963   36951   36966       6
   36963   36978   36999       5   36954   36969   36990       3   36951   36963
   36978       7   36951   36966   36984       7   36942   36954   36969       3
   36933   36951   36963       9   36933   36951   36966       9   36924   36942
   36954       3   36915   36933   36951       9   36912   36933   36915       6
   36912   36933   36951       9   36906   36924   36942       3   36903   36888
   36906      10   36900   36915   36933       7   36897   36885   36900       5
   36897   36912   36933       7   36888   36903   36894       5   36888   36906
   36924      11   36885   36897   36912       5   36885   36900   36915       5
   36882   36897   36885      13   36882   36897   36912      13   36879   36870
   36882      14   36879   36894   36903       5   36876   36867   36879       5
   36876   36888   36903       5   36876   36888   36906      10   36873   36870
   36879      15   36873   36870   36882      16   36873   36885   36897      17
   36873   36885   36900      17   36870   36864   36873      18   36870   36873
   36885      19   36870   36879   36894      20   36870   36882   36897      21
   36867   36864   36870      22   36867   36864   36873      23   36867   36876
   36888       5   36867   36879   36870      20   36867   36879   36894       5
   36864   36867   36876      24   36864   36867   36879      24   36864   36870
   36873      25   36864   36870   36879      26   36864   36870   36882      27
   36864   36873   36870      28   36864   36873   36885      29   37218   37221
   37233       3   37200   37218   37221       3   37182   37200   37218       3
   37170   37191   37176       5   37161   37182   37200       3   37158   37176
   37191       5   37155   37143   37158       6   37155   37170   37191       5
   37146   37161   37182       3   37143   37155   37170       7   37143   37158
   37176       7   37134   37146   37161       3   37125   37143   37155       9
   37125   37143   37158       9   37116   37134   37146       3   37107   37125
   37143       9   37104   37125   37107       6   37104   37125   37143       9
   37098   37116   37134       3   37095   37080   37098      10   37092   37107
   37125       7   37089   37077   37092       5   37089   37104   37125       7
   37080   37095   37086       5   37080   37098   37116      11   37077   37089
   37104       5   37077   37092   37107       5   37074   37089   37077      13
   37074   37089   37104      13   37071   37062   37074      14   37071   37086
   37095       5   37068   37059   37071       5   37068   37080   37095       5
   37068   37080   37098      10   37065   37062   37071      15   37065   37062
   37074      16   37065   37077   37089      17   37065   37077   37092      17
   37062   37056   37065      18   37062   37065   37077      19   37062   37071
   37086      20   37062   37074   37089      21   37059   37056   37062      22
   37059   37056   37065      23   37059   37068   37080       5   37059   37071
   37062      20   37059   37071   37086       5   37056   37059   37068      24
   37056   37059   37071      24   37056   37062   37065      25   37056   37062
   37071      26   37056   37062   37074      27   37056   37065   37062      28
   37056   37065   37077      29   37410   37413   37425       3   37392   37410
   37413       3   37374   37392   37410       3   37362   37383   37368       5
   37353   37374   37392       3   37350   37368   37383       5   37347   37335
   37350       6   37347   37362   37383       5   37338   37353   37374       3
   37335   37347   37362       7   37335   37350   37368       7   37326   37338
   37353       3   37317   37335   37347       9   37317   37335   37350       9
   37308   37326   37338       3   37299   37317   37335       9   37296   37317
   37299       6   37296   37317   37335       9   37290   37308   37326       3
   37287   37272   37290      10   37284   37299   37317       7   37281   37269
   37284       5   37281   37296   37317       7   37272   37287   37278       5
   37272   37290   37308      11   37269   37281   37296       5   37269   37284
   37299       5   37266   37281   37269      13   37266   37281   37296      13
   37263   37254   37266      14   37263   37278   37287       5   37260   37251
   37263       5   37260   37272   37287       5   37260   37272   37290      10
   37257   37254   37263      15   37257   37254   37266      16   37257   37269
   37281      17   37257   37269   37284      17   37254   37248   37257      18
   37254   37257   37269      19   37254   37263   37278      20   37254   37266
   37281      21   37251   37248   37254      22   37251   37248   37257      23
   37251   37260   37272       5   37251   37263   37254      20   37251   37263
   37278       5   37248   37251   37260      24   37248   37251   37263      24
   37248   37254   37257      25   37248   37254   37263      26   37248   37254
   37266      27   37248   37257   37254      28   37248   37257   37269      29
   37602   37605   37617       3   37584   37602   37605       3   37566   37584
   37602       3   37554   37575   37560       5   37545   37566   37584       3
   37542   37560   37575       5   37539   37527   37542       6   37539   37554
   37575       5   37530   37545   37566       3   37527   37539   37554       7
   37527   37542   37560       7   37518   37530   37545       3   37509   37527
   37539       9   37509   37527   37542       9   37500   37518   37530       3
   37491   37509   37527       9   37488   37509   37491       6   37488   37509
   37527       9   37482   37500   37518       3   37479   37464   37482      10
   37476   37491   37509       7   37473   37461   37476       5   37473   37488
   37509       7   37464   37479   37470       5   37464   37482   37500      11
   37461   37473   37488       5   37461   37476   37491       5   37458   37473
   37461      13   37458   37473   37488      13   37455   37446   37458      14
   37455   37470   37479       5   37452   37443   37455       5   37452   37464
   37479       5   37452   37464   37482      10   37449   37446   37455      15
   37449   37446   37458      16   37449   37461   37473      17   37449   37461
   37476      17   37446   37440   37449      18   37446   37449   37461      19
   37446   37455   37470      20   37446   37458   37473      21   37443   37440
   37446      22   37443   37440   37449      23   37443   37452   37464       5
   37443   37455   37446      20   37443   37455   37470       5   37440   37443
   37452      24   37440   37443   37455      24   37440   37446   37449      25
   37440   37446   37455      26   37440   37446   37458      27   37440   37449
   37446      28   37440   37449   37461      29   37794   37797   37809       3
   37776   37794   37797       3   37758   37776   37794       3   37746   37767
   37752       5   37737   37758   37776       3   37734   37752   37767       5
   37731   37719   37734       6   37731   37746   37767       5   37722   37737
   37758       3   37719   37731   37746       7   37719   37734   37752       7
   37710   37722   37737       3   37701   37719   37731       9   37701   37719
   37734       9   37692   37710   37722       3   37683   37701   37719       9
   37680   37701   37683       6   37680   37701   37719       9   37674   37692
   37710       3   37671   37656   37674      10   37668   37683   37701       7
   37665   37653   37668       5   37665   37680   37701       7   37656   37671
   37662       5   37656   37674   37692      11   37653   37665   37680       5
   37653   37668   37683       5   37650   37665   37653      13   37650   37665
   37680      13   37647   37638   37650      14   37647   37662   37671       5
   37644   37635   37647       5   37644   37656   37671       5   37644   37656
   37674      10   37641   37638   37647      15   37641   37638   37650      16
   37641   37653   37665      17   37641   37653   37668      17   37638   37632
   37641      18   37638   37641   37653      19   37638   37647   37662      20
   37638   37650   37665      21   37635   37632   37638      22   37635   37632
   37641      23   37635   37644   37656       5   37635   37647   37638      20
   37635   37647   37662       5   37632   37635   37644      24   37632   37635
   37647      24   37632   37638   37641      25   37632   37638   37647      26
   37632   37638   37650      27   37632   37641   37638      28   37632   37641
   37653      29   37986   37989   38001       3   37968   37986   37989       3
   37950   37968   37986       3   37938   37959   37944       5   37929   37950
   37968       3   37926   37944   37959       5   37923   37911   37926       6
   37923   37938   37959       5   37914   37929   37950       3   37911   37923
   37938       7   37911   37926   37944       7   37902   37914   37929       3
   37893   37911   37923       9   37893   37911   37926       9   37884   37902
   37914       3   37875   37893   37911       9   37872   37893   37875       6
   37872   37893   37911       9   37866   37884   37902       3   37863   37848
   37866      10   37860   37875   37893       7   37857   37845   37860       5
   37857   37872   37893       7   37848   37863   37854       5   37848   37866
   37884      11   37845   37857   37872       5   37845   37860   37875       5
   37842   37857   37845      13   37842   37857   37872      13   37839   37830
   37842      14   37839   37854   37863       5   37836   37827   37839       5
   37836   37848   37863       5   37836   37848   37866      10   37833   37830
   37839      15   37833   37830   37842      16   37833   37845   37857      17
   37833   37845   37860      17   37830   37824   37833      18   37830   37833
   37845      19   37830   37839   37854      20   37830   37842   37857      21
   37827   37824   37830      22   37827   37824   37833      23   37827   37836
   37848       5   37827   37839   37830      20   37827   37839   37854       5
   37824   37827   37836      24   37824   37827   37839      24   37824   37830
   37833      25   37824   37830   37839      26   37824   37830   37842      27
   37824   37833   37830      28   37824   37833   37845      29   38178   38181
   38193       3   38160   38178   38181       3   38142   38160   38178       3
   38130   38151   38136       5   38121   38142   38160       3   38118   38136
   38151       5   38115   38103   38118       6   38115   38130   38151       5
   38106   38121   38142       3   38103   38115   38130       7   38103   38118
   38136       7   38094   38106   38121       3   38085   38103   38115       9
   38085   38103   38118       9   38076   38094   38106       3   38067   38085
   38103       9   38064   38085   38067       6   38064   38085   38103       9
   38058   38076   38094       3   38055   38040   38058      10   38052   38067
   38085       7   38049   38037   38052       5   38049   38064   38085       7
   38040   38055   38046       5   38040   38058   38076      11   38037   38049
   38064       5   38037   38052   38067       5   38034   38049   38037      13
   38034   38049   38064      13   38031   38022   38034      14   38031   38046
   38055       5   38028   38019   38031       5   38028   38040   38055       5
   38028   38040   38058      10   38025   38022   38031      15   38025   38022
   38034      16   38025   38037   38049      17   38025   38037   38052      17
   38022   38016   38025      18   38022   38025   38037      19   38022   38031
   38046      20   38022   38034   38049      21   38019   38016   38022      22
   38019   38016   38025      23   38019   38028   38040       5   38019   38031
   38022      20   38019   38031   38046       5   38016   38019   38028      24
   38016   38019   38031      24   38016   38022   38025      25   38016   38022
   38031      26   38016   38022   38034      27   38016   38025   38022      28
   38016   38025   38037      29   38370   38373   38385       3   38352   38370
   38373       3   38334   38352   38370       3   38322   38343   38328       5
   38313   38334   38352       3   38310   38328   38343       5   38307   38295
   38310       6   38307   38322   38343       5   38298   38313   38334       3
   38295   38307   38322       7   38295   38310   38328       7   38286   38298
   38313       3   38277   38295   38307       9   38277   38295   38310       9
   38268   38286   38298       3   38259   38277   38295       9   38256   38277
   38259       6   38256   38277   38295       9   38250   38268   38286       3
   38247   38232   38250      10   38244   38259   38277       7   38241   38229
   38244       5   38241   38256   38277       7   38232   38247   38238       5
   38232   38250   38268      11   38229   38241   38256       5   38229   38244
   38259       5   38226   38241   38229      13   38226   38241   38256      13
   38223   38214   38226      14   38223   38238   38247       5   38220   38211
   38223       5   38220   38232   38247       5   38220   38232   38250      10
   38217   38214   38223      15   38217   38214   38226      16   38217   38229
   38241      17   38217   38229   38244      17   38214   38208   38217      18
   38214   38217   38229      19   38214   38223   38238      20   38214   38226
   38241      21   38211   38208   38214      22   38211   38208   38217      23
   38211   38220   38232       5   38211   38223   38214      20   38211   38223
   38238       5   38208   38211   38220      24   38208   38211   38223      24
   38208   38214   38217      25   38208   38214   38223      26   38208   38214
   38226      27   38208   38217   38214      28   38208   38217   38229      29
   38562   38565   38577       3   38544   38562   38565       3   38526   38544
   38562       3   38514   38535   38520       5   38505   38526   38544       3
   38502   38520   38535       5   38499   38487   38502       6   38499   38514
   38535       5   38490   38505   38526       3   38487   38499   38514       7
   38487   38502   38520       7   38478   38490   38505       3   38469   38487
   38499       9   38469   38487   38502       9   38460   38478   38490       3
   38451   38469   38487       9   38448   38469   38451       6   38448   38469
   38487       9   38442   38460   38478       3   38439   38424   38442      10
   38436   38451   38469       7   38433   38421   38436       5   38433   38448
   38469       7   38424   38439   38430       5   38424   38442   38460      11
   38421   38433   38448       5   38421   38436   38451       5   38418   38433
   38421      13   38418   38433   38448      13   38415   38406   38418      14
   38415   38430   38439       5   38412   38403   38415       5   38412   38424
   38439       5   38412   38424   38442      10   38409   38406   38415      15
   38409   38406   38418      16   38409   38421   38433      17   38409   38421
   38436      17   38406   38400   38409      18   38406   38409   38421      19
   38406   38415   38430      20   38406   38418   38433      21   38403   38400
   38406      22   38403   38400   38409      23   38403   38412   38424       5
   38403   38415   38406      20   38403   38415   38430       5   38400   38403
   38412      24   38400   38403   38415      24   38400   38406   38409      25
   38400   38406   38415      26   38400   38406   38418      27   38400   38409
   38406      28   38400   38409   38421      29   38754   38757   38769       3
   38736   38754   38757       3   38718   38736   38754       3   38706   38727
   38712       5   38697   38718   38736       3   38694   38712   38727       5
   38691   38679   38694       6   38691   38706   38727       5   38682   38697
   38718       3   38679   38691   38706       7   38679   38694   38712       7
   38670   38682   38697       3   38661   38679   38691       9   38661   38679
   38694       9   38652   38670   38682       3   38643   38661   38679       9
   38640   38661   38643       6   38640   38661   38679       9   38634   38652
   38670       3   38631   38616   38634      10   38628   38643   38661       7
   38625   38613   38628       5   38625   38640   38661       7   38616   38631
   38622       5   38616   38634   38652      11   38613   38625   38640       5
   38613   38628   38643       5   38610   38625   38613      13   38610   38625
   38640      13   38607   38598   38610      14   38607   38622   38631       5
   38604   38595   38607       5   38604   38616   38631       5   38604   38616
   38634      10   38601   38598   38607      15   38601   38598   38610      16
   38601   38613   38625      17   38601   38613   38628      17   38598   38592
   38601      18   38598   38601   38613      19   38598   38607   38622      20
   38598   38610   38625      21   38595   38592   38598      22   38595   38592
   38601      23   38595   38604   38616       5   38595   38607   38598      20
   38595   38607   38622       5   38592   38595   38604      24   38592   38595
   38607      24   38592   38598   38601      25   38592   38598   38607      26
   38592   38598   38610      27   38592   38601   38598      28   38592   38601
   38613      29   38946   38949   38961       3   38928   38946   38949       3
   38910   38928   38946       3   38898   38919   38904       5   38889   38910
   38928       3   38886   38904   38919       5   38883   38871   38886       6
   38883   38898   38919       5   38874   38889   38910       3   38871   38883
   38898       7   38871   38886   38904       7   38862   38874   38889       3
   38853   38871   38883       9   38853   38871   38886       9   38844   38862
   38874       3   38835   38853   38871       9   38832   38853   38835       6
   38832   38853   38871       9   38826   38844   38862       3   38823   38808
   38826      10   38820   38835   38853       7   38817   38805   38820       5
   38817   38832   38853       7   38808   38823   38814       5   38808   38826
   38844      11   38805   38817   38832       5   38805   38820   38835       5
   38802   38817   38805      13   38802   38817   38832      13   38799   38790
   38802      14   38799   38814   38823       5   38796   38787   38799       5
   38796   38808   38823       5   38796   38808   38826      10   38793   38790
   38799      15   38793   38790   38802      16   38793   38805   38817      17
   38793   38805   38820      17   38790   38784   38793      18   38790   38793
   38805      19   38790   38799   38814      20   38790   38802   38817      21
   38787   38784   38790      22   38787   38784   38793      23   38787   38796
   38808       5   38787   38799   38790      20   38787   38799   38814       5
   38784   38787   38796      24   38784   38787   38799      24   38784   38790
   38793      25   38784   38790   38799      26   38784   38790   38802      27
   38784   38793   38790      28   38784   38793   38805      29   39138   39141
   39153       3   39120   39138   39141       3   39102   39120   39138       3
   39090   39111   39096       5   39081   39102   39120       3   39078   39096
   39111       5   39075   39063   39078       6   39075   39090   39111       5
   39066   39081   39102       3   39063   39075   39090       7   39063   39078
   39096       7   39054   39066   39081       3   39045   39063   39075       9
   39045   39063   39078       9   39036   39054   39066       3   39027   39045
   39063       9   39024   39045   39027       6   39024   39045   39063       9
   39018   39036   39054       3   39015   39000   39018      10   39012   39027
   39045       7   39009   38997   39012       5   39009   39024   39045       7
   39000   39015   39006       5   39000   39018   39036      11   38997   39009
   39024       5   38997   39012   39027       5   38994   39009   38997      13
   38994   39009   39024      13   38991   38982   38994      14   38991   39006
   39015       5   38988   38979   38991       5   38988   39000   39015       5
   38988   39000   39018      10   38985   38982   38991      15   38985   38982
   38994      16   38985   38997   39009      17   38985   38997   39012      17
   38982   38976   38985      18   38982   38985   38997      19   38982   38991
   39006      20   38982   38994   39009      21   38979   38976   38982      22
   38979   38976   38985      23   38979   38988   39000       5   38979   38991
   38982      20   38979   38991   39006       5   38976   38979   38988      24
   38976   38979   38991      24   38976   38982   38985      25   38976   38982
   38991      26   38976   38982   38994      27   38976   38985   38982      28
   38976   38985   38997      29   39330   39333   39345       3   39312   39330
   39333       3   39294   39312   39330       3   39282   39303   39288       5
   39273   39294   39312       3   39270   39288   39303       5   39267   39255
   39270       6   39267   39282   39303       5   39258   39273   39294       3
   39255   39267   39282       7   39255   39270   39288       7   39246   39258
   39273       3   39237   39255   39267       9   39237   39255   39270       9
   39228   39246   39258       3   39219   39237   39255       9   39216   39237
   39219       6   39216   39237   39255       9   39210   39228   39246       3
   39207   39192   39210      10   39204   39219   39237       7   39201   39189
   39204       5   39201   39216   39237       7   39192   39207   39198       5
   39192   39210   39228      11   39189   39201   39216       5   39189   39204
   39219       5   39186   39201   39189      13   39186   39201   39216      13
   39183   39174   39186      14   39183   39198   39207       5   39180   39171
   39183       5   39180   39192   39207       5   39180   39192   39210      10
   39177   39174   39183      15   39177   39174   39186      16   39177   39189
   39201      17   39177   39189   39204      17   39174   39168   39177      18
   39174   39177   39189      19   39174   39183   39198      20   39174   39186
   39201      21   39171   39168   39174      22   39171   39168   39177      23
   39171   39180   39192       5   39171   39183   39174      20   39171   39183
   39198       5   39168   39171   39180      24   39168   39171   39183      24
   39168   39174   39177      25   39168   39174   39183      26   39168   39174
   39186      27   39168   39177   39174      28   39168   39177   39189      29
   39522   39525   39537       3   39504   39522   39525       3   39486   39504
   39522       3   39474   39495   39480       5   39465   39486   39504       3
   39462   39480   39495       5   39459   39447   39462       6   39459   39474
   39495       5   39450   39465   39486       3   39447   39459   39474       7
   39447   39462   39480       7   39438   39450   39465       3   39429   39447
   39459       9   39429   39447   39462       9   39420   39438   39450       3
   39411   39429   39447       9   39408   39429   39411       6   39408   39429
   39447       9   39402   39420   39438       3   39399   39384   39402      10
   39396   39411   39429       7   39393   39381   39396       5   39393   39408
   39429       7   39384   39399   39390       5   39384   39402   39420      11
   39381   39393   39408       5   39381   39396   39411       5   39378   39393
   39381      13   39378   39393   39408      13   39375   39366   39378      14
   39375   39390   39399       5   39372   39363   39375       5   39372   39384
   39399       5   39372   39384   39402      10   39369   39366   39375      15
   39369   39366   39378      16   39369   39381   39393      17   39369   39381
   39396      17   39366   39360   39369      18   39366   39369   39381      19
   39366   39375   39390      20   39366   39378   39393      21   39363   39360
   39366      22   39363   39360   39369      23   39363   39372   39384       5
   39363   39375   39366      20   39363   39375   39390       5   39360   39363
   39372      24   39360   39363   39375      24   39360   39366   39369      25
   39360   39366   39375      26   39360   39366   39378      27   39360   39369
   39366      28   39360   39369   39381      29   39714   39717   39729       3
   39696   39714   39717       3   39678   39696   39714       3   39666   39687
   39672       5   39657   39678   39696       3   39654   39672   39687       5
   39651   39639   39654       6   39651   39666   39687       5   39642   39657
   39678       3   39639   39651   39666       7   39639   39654   39672       7
   39630   39642   39657       3   39621   39639   39651       9   39621   39639
   39654       9   39612   39630   39642       3   39603   39621   39639       9
   39600   39621   39603       6   39600   39621   39639       9   39594   39612
   39630       3   39591   39576   39594      10   39588   39603   39621       7
   39585   39573   39588       5   39585   39600   39621       7   39576   39591
   39582       5   39576   39594   39612      11   39573   39585   39600       5
   39573   39588   39603       5   39570   39585   39573      13   39570   39585
   39600      13   39567   39558   39570      14   39567   39582   39591       5
   39564   39555   39567       5   39564   39576   39591       5   39564   39576
   39594      10   39561   39558   39567      15   39561   39558   39570      16
   39561   39573   39585      17   39561   39573   39588      17   39558   39552
   39561      18   39558   39561   39573      19   39558   39567   39582      20
   39558   39570   39585      21   39555   39552   39558      22   39555   39552
   39561      23   39555   39564   39576       5   39555   39567   39558      20
   39555   39567   39582       5   39552   39555   39564      24   39552   39555
   39567      24   39552   39558   39561      25   39552   39558   39567      26
   39552   39558   39570      27   39552   39561   39558      28   39552   39561
   39573      29   39906   39909   39921       3   39888   39906   39909       3
   39870   39888   39906       3   39858   39879   39864       5   39849   39870
   39888       3   39846   39864   39879       5   39843   39831   39846       6
   39843   39858   39879       5   39834   39849   39870       3   39831   39843
   39858       7   39831   39846   39864       7   39822   39834   39849       3
   39813   39831   39843       9   39813   39831   39846       9   39804   39822
   39834       3   39795   39813   39831       9   39792   39813   39795       6
   39792   39813   39831       9   39786   39804   39822       3   39783   39768
   39786      10   39780   39795   39813       7   39777   39765   39780       5
   39777   39792   39813       7   39768   39783   39774       5   39768   39786
   39804      11   39765   39777   39792       5   39765   39780   39795       5
   39762   39777   39765      13   39762   39777   39792      13   39759   39750
   39762      14   39759   39774   39783       5   39756   39747   39759       5
   39756   39768   39783       5   39756   39768   39786      10   39753   39750
   39759      15   39753   39750   39762      16   39753   39765   39777      17
   39753   39765   39780      17   39750   39744   39753      18   39750   39753
   39765      19   39750   39759   39774      20   39750   39762   39777      21
   39747   39744   39750      22   39747   39744   39753      23   39747   39756
   39768       5   39747   39759   39750      20   39747   39759   39774       5
   39744   39747   39756      24   39744   39747   39759      24   39744   39750
   39753      25   39744   39750   39759      26   39744   39750   39762      27
   39744   39753   39750      28   39744   39753   39765      29   40098   40101
   40113       3   40080   40098   40101       3   40062   40080   40098       3
   40050   40071   40056       5   40041   40062   40080       3   40038   40056
   40071       5   40035   40023   40038       6   40035   40050   40071       5
   40026   40041   40062       3   40023   40035   40050       7   40023   40038
   40056       7   40014   40026   40041       3   40005   40023   40035       9
   40005   40023   40038       9   39996   40014   40026       3   39987   40005
   40023       9   39984   40005   39987       6   39984   40005   40023       9
   39978   39996   40014       3   39975   39960   39978      10   39972   39987
   40005       7   39969   39957   39972       5   39969   39984   40005       7
   39960   39975   39966       5   39960   39978   39996      11   39957   39969
   39984       5   39957   39972   39987       5   39954   39969   39957      13
   39954   39969   39984      13   39951   39942   39954      14   39951   39966
   39975       5   39948   39939   39951       5   39948   39960   39975       5
   39948   39960   39978      10   39945   39942   39951      15   39945   39942
   39954      16   39945   39957   39969      17   39945   39957   39972      17
   39942   39936   39945      18   39942   39945   39957      19   39942   39951
   39966      20   39942   39954   39969      21   39939   39936   39942      22
   39939   39936   39945      23   39939   39948   39960       5   39939   39951
   39942      20   39939   39951   39966       5   39936   39939   39948      24
   39936   39939   39951      24   39936   39942   39945      25   39936   39942
   39951      26   39936   39942   39954      27   39936   39945   39942      28
   39936   39945   39957      29   40290   40293   40305       3   40272   40290
   40293       3   40254   40272   40290       3   40242   40263   40248       5
   40233   40254   40272       3   40230   40248   40263       5   40227   40215
   40230       6   40227   40242   40263       5   40218   40233   40254       3
   40215   40227   40242       7   40215   40230   40248       7   40206   40218
   40233       3   40197   40215   40227       9   40197   40215   40230       9
   40188   40206   40218       3   40179   40197   40215       9   40176   40197
   40179       6   40176   40197   40215       9   40170   40188   40206       3
   40167   40152   40170      10   40164   40179   40197       7   40161   40149
   40164       5   40161   40176   40197       7   40152   40167   40158       5
   40152   40170   40188      11   40149   40161   40176       5   40149   40164
   40179       5   40146   40161   40149      13   40146   40161   40176      13
   40143   40134   40146      14   40143   40158   40167       5   40140   40131
   40143       5   40140   40152   40167       5   40140   40152   40170      10
   40137   40134   40143      15   40137   40134   40146      16   40137   40149
   40161      17   40137   40149   40164      17   40134   40128   40137      18
   40134   40137   40149      19   40134   40143   40158      20   40134   40146
   40161      21   40131   40128   40134      22   40131   40128   40137      23
   40131   40140   40152       5   40131   40143   40134      20   40131   40143
   40158       5   40128   40131   40140      24   40128   40131   40143      24
   40128   40134   40137      25   40128   40134   40143      26   40128   40134
   40146      27   40128   40137   40134      28   40128   40137   40149      29
   40482   40485   40497       3   40464   40482   40485       3   40446   40464
   40482       3   40434   40455   40440       5   40425   40446   40464       3
   40422   40440   40455       5   40419   40407   40422       6   40419   40434
   40455       5   40410   40425   40446       3   40407   40419   40434       7
   40407   40422   40440       7   40398   40410   40425       3   40389   40407
   40419       9   40389   40407   40422       9   40380   40398   40410       3
   40371   40389   40407       9   40368   40389   40371       6   40368   40389
   40407       9   40362   40380   40398       3   40359   40344   40362      10
   40356   40371   40389       7   40353   40341   40356       5   40353   40368
   40389       7   40344   40359   40350       5   40344   40362   40380      11
   40341   40353   40368       5   40341   40356   40371       5   40338   40353
   40341      13   40338   40353   40368      13   40335   40326   40338      14
   40335   40350   40359       5   40332   40323   40335       5   40332   40344
   40359       5   40332   40344   40362      10   40329   40326   40335      15
   40329   40326   40338      16   40329   40341   40353      17   40329   40341
   40356      17   40326   40320   40329      18   40326   40329   40341      19
   40326   40335   40350      20   40326   40338   40353      21   40323   40320
   40326      22   40323   40320   40329      23   40323   40332   40344       5
   40323   40335   40326      20   40323   40335   40350       5   40320   40323
   40332      24   40320   40323   40335      24   40320   40326   40329      25
   40320   40326   40335      26   40320   40326   40338      27   40320   40329
   40326      28   40320   40329   40341      29   40674   40677   40689       3
   40656   40674   40677       3   40638   40656   40674       3   40626   40647
   40632       5   40617   40638   40656       3   40614   40632   40647       5
   40611   40599   40614       6   40611   40626   40647       5   40602   40617
   40638       3   40599   40611   40626       7   40599   40614   40632       7
   40590   40602   40617       3   40581   40599   40611       9   40581   40599
   40614       9   40572   40590   40602       3   40563   40581   40599       9
   40560   40581   40563       6   40560   40581   40599       9   40554   40572
   40590       3   40551   40536   40554      10   40548   40563   40581       7
   40545   40533   40548       5   40545   40560   40581       7   40536   40551
   40542       5   40536   40554   40572      11   40533   40545   40560       5
   40533   40548   40563       5   40530   40545   40533      13   40530   40545
   40560      13   40527   40518   40530      14   40527   40542   40551       5
   40524   40515   40527       5   40524   40536   40551       5   40524   40536
   40554      10   40521   40518   40527      15   40521   40518   40530      16
   40521   40533   40545      17   40521   40533   40548      17   40518   40512
   40521      18   40518   40521   40533      19   40518   40527   40542      20
   40518   40530   40545      21   40515   40512   40518      22   40515   40512
   40521      23   40515   40524   40536       5   40515   40527   40518      20
   40515   40527   40542       5   40512   40515   40524      24   40512   40515
   40527      24   40512   40518   40521      25   40512   40518   40527      26
   40512   40518   40530      27   40512   40521   40518      28   40512   40521
   40533      29   40866   40869   40881       3   40848   40866   40869       3
   40830   40848   40866       3   40818   40839   40824       5   40809   40830
   40848       3   40806   40824   40839       5   40803   40791   40806       6
   40803   40818   40839       5   40794   40809   40830       3   40791   40803
   40818       7   40791   40806   40824       7   40782   40794   40809       3
   40773   40791   40803       9   40773   40791   40806       9   40764   40782
   40794       3   40755   40773   40791       9   40752   40773   40755       6
   40752   40773   40791       9   40746   40764   40782       3   40743   40728
   40746      10   40740   40755   40773       7   40737   40725   40740       5
   40737   40752   40773       7   40728   40743   40734       5   40728   40746
   40764      11   40725   40737   40752       5   40725   40740   40755       5
   40722   40737   40725      13   40722   40737   40752      13   40719   40710
   40722      14   40719   40734   40743       5   40716   40707   40719       5
   40716   40728   40743       5   40716   40728   40746      10   40713   40710
   40719      15   40713   40710   40722      16   40713   40725   40737      17
   40713   40725   40740      17   40710   40704   40713      18   40710   40713
   40725      19   40710   40719   40734      20   40710   40722   40737      21
   40707   40704   40710      22   40707   40704   40713      23   40707   40716
   40728       5   40707   40719   40710      20   40707   40719   40734       5
   40704   40707   40716      24   40704   40707   40719      24   40704   40710
   40713      25   40704   40710   40719      26   40704   40710   40722      27
   40704   40713   40710      28   40704   40713   40725      29   41058   41061
   41073       3   41040   41058   41061       3   41022   41040   41058       3
   41010   41031   41016       5   41001   41022   41040       3   40998   41016
   41031       5   40995   40983   40998       6   40995   41010   41031       5
   40986   41001   41022       3   40983   40995   41010       7   40983   40998
   41016       7   40974   40986   41001       3   40965   40983   40995       9
   40965   40983   40998       9   40956   40974   40986       3   40947   40965
   40983       9   40944   40965   40947       6   40944   40965   40983       9
   40938   40956   40974       3   40935   40920   40938      10   40932   40947
   40965       7   40929   40917   40932       5   40929   40944   40965       7
   40920   40935   40926       5   40920   40938   40956      11   40917   40929
   40944       5   40917   40932   40947       5   40914   40929   40917      13
   40914   40929   40944      13   40911   40902   40914      14   40911   40926
   40935       5   40908   40899   40911       5   40908   40920   40935       5
   40908   40920   40938      10   40905   40902   40911      15   40905   40902
   40914      16   40905   40917   40929      17   40905   40917   40932      17
   40902   40896   40905      18   40902   40905   40917      19   40902   40911
   40926      20   40902   40914   40929      21   40899   40896   40902      22
   40899   40896   40905      23   40899   40908   40920       5   40899   40911
   40902      20   40899   40911   40926       5   40896   40899   40908      24
   40896   40899   40911      24   40896   40902   40905      25   40896   40902
   40911      26   40896   40902   40914      27   40896   40905   40902      28
   40896   40905   40917      29   41250   41253   41265       3   41232   41250
   41253       3   41214   41232   41250       3   41202   41223   41208       5
   41193   41214   41232       3   41190   41208   41223       5   41187   41175
   41190       6   41187   41202   41223       5   41178   41193   41214       3
   41175   41187   41202       7   41175   41190   41208       7   41166   41178
   41193       3   41157   41175   41187       9   41157   41175   41190       9
   41148   41166   41178       3   41139   41157   41175       9   41136   41157
   41139       6   41136   41157   41175       9   41130   41148   41166       3
   41127   41112   41130      10   41124   41139   41157       7   41121   41109
   41124       5   41121   41136   41157       7   41112   41127   41118       5
   41112   41130   41148      11   41109   41121   41136       5   41109   41124
   41139       5   41106   41121   41109      13   41106   41121   41136      13
   41103   41094   41106      14   41103   41118   41127       5   41100   41091
   41103       5   41100   41112   41127       5   41100   41112   41130      10
   41097   41094   41103      15   41097   41094   41106      16   41097   41109
   41121      17   41097   41109   41124      17   41094   41088   41097      18
   41094   41097   41109      19   41094   41103   41118      20   41094   41106
   41121      21   41091   41088   41094      22   41091   41088   41097      23
   41091   41100   41112       5   41091   41103   41094      20   41091   41103
   41118       5   41088   41091   41100      24   41088   41091   41103      24
   41088   41094   41097      25   41088   41094   41103      26   41088   41094
   41106      27   41088   41097   41094      28   41088   41097   41109      29
   41442   41445   41457       3   41424   41442   41445       3   41406   41424
   41442       3   41394   41415   41400       5   41385   41406   41424       3
   41382   41400   41415       5   41379   41367   41382       6   41379   41394
   41415       5   41370   41385   41406       3   41367   41379   41394       7
   41367   41382   41400       7   41358   41370   41385       3   41349   41367
   41379       9   41349   41367   41382       9   41340   41358   41370       3
   41331   41349   41367       9   41328   41349   41331       6   41328   41349
   41367       9   41322   41340   41358       3   41319   41304   41322      10
   41316   41331   41349       7   41313   41301   41316       5   41313   41328
   41349       7   41304   41319   41310       5   41304   41322   41340      11
   41301   41313   41328       5   41301   41316   41331       5   41298   41313
   41301      13   41298   41313   41328      13   41295   41286   41298      14
   41295   41310   41319       5   41292   41283   41295       5   41292   41304
   41319       5   41292   41304   41322      10   41289   41286   41295      15
   41289   41286   41298      16   41289   41301   41313      17   41289   41301
   41316      17   41286   41280   41289      18   41286   41289   41301      19
   41286   41295   41310      20   41286   41298   41313      21   41283   41280
   41286      22   41283   41280   41289      23   41283   41292   41304       5
   41283   41295   41286      20   41283   41295   41310       5   41280   41283
   41292      24   41280   41283   41295      24   41280   41286   41289      25
   41280   41286   41295      26   41280   41286   41298      27   41280   41289
   41286      28   41280   41289   41301      29   41634   41637   41649       3
   41616   41634   41637       3   41598   41616   41634       3   41586   41607
   41592       5   41577   41598   41616       3   41574   41592   41607       5
   41571   41559   41574       6   41571   41586   41607       5   41562   41577
   41598       3   41559   41571   41586       7   41559   41574   41592       7
   41550   41562   41577       3   41541   41559   41571       9   41541   41559
   41574       9   41532   41550   41562       3   41523   41541   41559       9
   41520   41541   41523       6   41520   41541   41559       9   41514   41532
   41550       3   41511   41496   41514      10   41508   41523   41541       7
   41505   41493   41508       5   41505   41520   41541       7   41496   41511
   41502       5   41496   41514   41532      11   41493   41505   41520       5
   41493   41508   41523       5   41490   41505   41493      13   41490   41505
   41520      13   41487   41478   41490      14   41487   41502   41511       5
   41484   41475   41487       5   41484   41496   41511       5   41484   41496
   41514      10   41481   41478   41487      15   41481   41478   41490      16
   41481   41493   41505      17   41481   41493   41508      17   41478   41472
   41481      18   41478   41481   41493      19   41478   41487   41502      20
   41478   41490   41505      21   41475   41472   41478      22   41475   41472
   41481      23   41475   41484   41496       5   41475   41487   41478      20
   41475   41487   41502       5   41472   41475   41484      24   41472   41475
   41487      24   41472   41478   41481      25   41472   41478   41487      26
   41472   41478   41490      27   41472   41481   41478      28   41472   41481
   41493      29   41826   41829   41841       3   41808   41826   41829       3
   41790   41808   41826       3   41778   41799   41784       5   41769   41790
   41808       3   41766   41784   41799       5   41763   41751   41766       6
   41763   41778   41799       5   41754   41769   41790       3   41751   41763
   41778       7   41751   41766   41784       7   41742   41754   41769       3
   41733   41751   41763       9   41733   41751   41766       9   41724   41742
   41754       3   41715   41733   41751       9   41712   41733   41715       6
   41712   41733   41751       9   41706   41724   41742       3   41703   41688
   41706      10   41700   41715   41733       7   41697   41685   41700       5
   41697   41712   41733       7   41688   41703   41694       5   41688   41706
   41724      11   41685   41697   41712       5   41685   41700   41715       5
   41682   41697   41685      13   41682   41697   41712      13   41679   41670
   41682      14   41679   41694   41703       5   41676   41667   41679       5
   41676   41688   41703       5   41676   41688   41706      10   41673   41670
   41679      15   41673   41670   41682      16   41673   41685   41697      17
   41673   41685   41700      17   41670   41664   41673      18   41670   41673
   41685      19   41670   41679   41694      20   41670   41682   41697      21
   41667   41664   41670      22   41667   41664   41673      23   41667   41676
   41688       5   41667   41679   41670      20   41667   41679   41694       5
   41664   41667   41676      24   41664   41667   41679      24   41664   41670
   41673      25   41664   41670   41679      26   41664   41670   41682      27
   41664   41673   41670      28   41664   41673   41685      29   42018   42021
   42033       3   42000   42018   42021       3   41982   42000   42018       3
   41970   41991   41976       5   41961   41982   42000       3   41958   41976
   41991       5   41955   41943   41958       6   41955   41970   41991       5
   41946   41961   41982       3   41943   41955   41970       7   41943   41958
   41976       7   41934   41946   41961       3   41925   41943   41955       9
   41925   41943   41958       9   41916   41934   41946       3   41907   41925
   41943       9   41904   41925   41907       6   41904   41925   41943       9
   41898   41916   41934       3   41895   41880   41898      10   41892   41907
   41925       7   41889   41877   41892       5   41889   41904   41925       7
   41880   41895   41886       5   41880   41898   41916      11   41877   41889
   41904       5   41877   41892   41907       5   41874   41889   41877      13
   41874   41889   41904      13   41871   41862   41874      14   41871   41886
   41895       5   41868   41859   41871       5   41868   41880   41895       5
   41868   41880   41898      10   41865   41862   41871      15   41865   41862
   41874      16   41865   41877   41889      17   41865   41877   41892      17
   41862   41856   41865      18   41862   41865   41877      19   41862   41871
   41886      20   41862   41874   41889      21   41859   41856   41862      22
   41859   41856   41865      23   41859   41868   41880       5   41859   41871
   41862      20   41859   41871   41886       5   41856   41859   41868      24
   41856   41859   41871      24   41856   41862   41865      25   41856   41862
   41871      26   41856   41862   41874      27   41856   41865   41862      28
   41856   41865   41877      29   42210   42213   42225       3   42192   42210
   42213       3   42174   42192   42210       3   42162   42183   42168       5
   42153   42174   42192       3   42150   42168   42183       5   42147   42135
   42150       6   42147   42162   42183       5   42138   42153   42174       3
   42135   42147   42162       7   42135   42150   42168       7   42126   42138
   42153       3   42117   42135   42147       9   42117   42135   42150       9
   42108   42126   42138       3   42099   42117   42135       9   42096   42117
   42099       6   42096   42117   42135       9   42090   42108   42126       3
   42087   42072   42090      10   42084   42099   42117       7   42081   42069
   42084       5   42081   42096   42117       7   42072   42087   42078       5
   42072   42090   42108      11   42069   42081   42096       5   42069   42084
   42099       5   42066   42081   42069      13   42066   42081   42096      13
   42063   42054   42066      14   42063   42078   42087       5   42060   42051
   42063       5   42060   42072   42087       5   42060   42072   42090      10
   42057   42054   42063      15   42057   42054   42066      16   42057   42069
   42081      17   42057   42069   42084      17   42054   42048   42057      18
   42054   42057   42069      19   42054   42063   42078      20   42054   42066
   42081      21   42051   42048   42054      22   42051   42048   42057      23
   42051   42060   42072       5   42051   42063   42054      20   42051   42063
   42078       5   42048   42051   42060      24   42048   42051   42063      24
   42048   42054   42057      25   42048   42054   42063      26   42048   42054
   42066      27   42048   42057   42054      28   42048   42057   42069      29
   42402   42405   42417       3   42384   42402   42405       3   42366   42384
   42402       3   42354   42375   42360       5   42345   42366   42384       3
   42342   42360   42375       5   42339   42327   42342       6   42339   42354
   42375       5   42330   42345   42366       3   42327   42339   42354       7
   42327   42342   42360       7   42318   42330   42345       3   42309   42327
   42339       9   42309   42327   42342       9   42300   42318   42330       3
   42291   42309   42327       9   42288   42309   42291       6   42288   42309
   42327       9   42282   42300   42318       3   42279   42264   42282      10
   42276   42291   42309       7   42273   42261   42276       5   42273   42288
   42309       7   42264   42279   42270       5   42264   42282   42300      11
   42261   42273   42288       5   42261   42276   42291       5   42258   42273
   42261      13   42258   42273   42288      13   42255   42246   42258      14
   42255   42270   42279       5   42252   42243   42255       5   42252   42264
   42279       5   42252   42264   42282      10   42249   42246   42255      15
   42249   42246   42258      16   42249   42261   42273      17   42249   42261
   42276      17   42246   42240   42249      18   42246   42249   42261      19
   42246   42255   42270      20   42246   42258   42273      21   42243   42240
   42246      22   42243   42240   42249      23   42243   42252   42264       5
   42243   42255   42246      20   42243   42255   42270       5   42240   42243
   42252      24   42240   42243   42255      24   42240   42246   42249      25
   42240   42246   42255      26   42240   42246   42258      27   42240   42249
   42246      28   42240   42249   42261      29   42594   42597   42609       3
   42576   42594   42597       3   42558   42576   42594       3   42546   42567
   42552       5   42537   42558   42576       3   42534   42552   42567       5
   42531   42519   42534       6   42531   42546   42567       5   42522   42537
   42558       3   42519   42531   42546       7   42519   42534   42552       7
   42510   42522   42537       3   42501   42519   42531       9   42501   42519
   42534       9   42492   42510   42522       3   42483   42501   42519       9
   42480   42501   42483       6   42480   42501   42519       9   42474   42492
   42510       3   42471   42456   42474      10   42468   42483   42501       7
   42465   42453   42468       5   42465   42480   42501       7   42456   42471
   42462       5   42456   42474   42492      11   42453   42465   42480       5
   42453   42468   42483       5   42450   42465   42453      13   42450   42465
   42480      13   42447   42438   42450      14   42447   42462   42471       5
   42444   42435   42447       5   42444   42456   42471       5   42444   42456
   42474      10   42441   42438   42447      15   42441   42438   42450      16
   42441   42453   42465      17   42441   42453   42468      17   42438   42432
   42441      18   42438   42441   42453      19   42438   42447   42462      20
   42438   42450   42465      21   42435   42432   42438      22   42435   42432
   42441      23   42435   42444   42456       5   42435   42447   42438      20
   42435   42447   42462       5   42432   42435   42444      24   42432   42435
   42447      24   42432   42438   42441      25   42432   42438   42447      26
   42432   42438   42450      27   42432   42441   42438      28   42432   42441
   42453      29   42786   42789   42801       3   42768   42786   42789       3
   42750   42768   42786       3   42738   42759   42744       5   42729   42750
   42768       3   42726   42744   42759       5   42723   42711   42726       6
   42723   42738   42759       5   42714   42729   42750       3   42711   42723
   42738       7   42711   42726   42744       7   42702   42714   42729       3
   42693   42711   42723       9   42693   42711   42726       9   42684   42702
   42714       3   42675   42693   42711       9   42672   42693   42675       6
   42672   42693   42711       9   42666   42684   42702       3   42663   42648
   42666      10   42660   42675   42693       7   42657   42645   42660       5
   42657   42672   42693       7   42648   42663   42654       5   42648   42666
   42684      11   42645   42657   42672       5   42645   42660   42675       5
   42642   42657   42645      13   42642   42657   42672      13   42639   42630
   42642      14   42639   42654   42663       5   42636   42627   42639       5
   42636   42648   42663       5   42636   42648   42666      10   42633   42630
   42639      15   42633   42630   42642      16   42633   42645   42657      17
   42633   42645   42660      17   42630   42624   42633      18   42630   42633
   42645      19   42630   42639   42654      20   42630   42642   42657      21
   42627   42624   42630      22   42627   42624   42633      23   42627   42636
   42648       5   42627   42639   42630      20   42627   42639   42654       5
   42624   42627   42636      24   42624   42627   42639      24   42624   42630
   42633      25   42624   42630   42639      26   42624   42630   42642      27
   42624   42633   42630      28   42624   42633   42645      29   42978   42981
   42993       3   42960   42978   42981       3   42942   42960   42978       3
   42930   42951   42936       5   42921   42942   42960       3   42918   42936
   42951       5   42915   42903   42918       6   42915   42930   42951       5
   42906   42921   42942       3   42903   42915   42930       7   42903   42918
   42936       7   42894   42906   42921       3   42885   42903   42915       9
   42885   42903   42918       9   42876   42894   42906       3   42867   42885
   42903       9   42864   42885   42867       6   42864   42885   42903       9
   42858   42876   42894       3   42855   42840   42858      10   42852   42867
   42885       7   42849   42837   42852       5   42849   42864   42885       7
   42840   42855   42846       5   42840   42858   42876      11   42837   42849
   42864       5   42837   42852   42867       5   42834   42849   42837      13
   42834   42849   42864      13   42831   42822   42834      14   42831   42846
   42855       5   42828   42819   42831       5   42828   42840   42855       5
   42828   42840   42858      10   42825   42822   42831      15   42825   42822
   42834      16   42825   42837   42849      17   42825   42837   42852      17
   42822   42816   42825      18   42822   42825   42837      19   42822   42831
   42846      20   42822   42834   42849      21   42819   42816   42822      22
   42819   42816   42825      23   42819   42828   42840       5   42819   42831
   42822      20   42819   42831   42846       5   42816   42819   42828      24
   42816   42819   42831      24   42816   42822   42825      25   42816   42822
   42831      26   42816   42822   42834      27   42816   42825   42822      28
   42816   42825   42837      29   43170   43173   43185       3   43152   43170
   43173       3   43134   43152   43170       3   43122   43143   43128       5
   43113   43134   43152       3   43110   43128   43143       5   43107   43095
   43110       6   43107   43122   43143       5   43098   43113   43134       3
   43095   43107   43122       7   43095   43110   43128       7   43086   43098
   43113       3   43077   43095   43107       9   43077   43095   43110       9
   43068   43086   43098       3   43059   43077   43095       9   43056   43077
   43059       6   43056   43077   43095       9   43050   43068   43086       3
   43047   43032   43050      10   43044   43059   43077       7   43041   43029
   43044       5   43041   43056   43077       7   43032   43047   43038       5
   43032   43050   43068      11   43029   43041   43056       5   43029   43044
   43059       5   43026   43041   43029      13   43026   43041   43056      13
   43023   43014   43026      14   43023   43038   43047       5   43020   43011
   43023       5   43020   43032   43047       5   43020   43032   43050      10
   43017   43014   43023      15   43017   43014   43026      16   43017   43029
   43041      17   43017   43029   43044      17   43014   43008   43017      18
   43014   43017   43029      19   43014   43023   43038      20   43014   43026
   43041      21   43011   43008   43014      22   43011   43008   43017      23
   43011   43020   43032       5   43011   43023   43014      20   43011   43023
   43038       5   43008   43011   43020      24   43008   43011   43023      24
   43008   43014   43017      25   43008   43014   43023      26   43008   43014
   43026      27   43008   43017   43014      28   43008   43017   43029      29
   43362   43365   43377       3   43344   43362   43365       3   43326   43344
   43362       3   43314   43335   43320       5   43305   43326   43344       3
   43302   43320   43335       5   43299   43287   43302       6   43299   43314
   43335       5   43290   43305   43326       3   43287   43299   43314       7
   43287   43302   43320       7   43278   43290   43305       3   43269   43287
   43299       9   43269   43287   43302       9   43260   43278   43290       3
   43251   43269   43287       9   43248   43269   43251       6   43248   43269
   43287       9   43242   43260   43278       3   43239   43224   43242      10
   43236   43251   43269       7   43233   43221   43236       5   43233   43248
   43269       7   43224   43239   43230       5   43224   43242   43260      11
   43221   43233   43248       5   43221   43236   43251       5   43218   43233
   43221      13   43218   43233   43248      13   43215   43206   43218      14
   43215   43230   43239       5   43212   43203   43215       5   43212   43224
   43239       5   43212   43224   43242      10   43209   43206   43215      15
   43209   43206   43218      16   43209   43221   43233      17   43209   43221
   43236      17   43206   43200   43209      18   43206   43209   43221      19
   43206   43215   43230      20   43206   43218   43233      21   43203   43200
   43206      22   43203   43200   43209      23   43203   43212   43224       5
   43203   43215   43206      20   43203   43215   43230       5   43200   43203
   43212      24   43200   43203   43215      24   43200   43206   43209      25
   43200   43206   43215      26   43200   43206   43218      27   43200   43209
   43206      28   43200   43209   43221      29   43554   43557   43569       3
   43536   43554   43557       3   43518   43536   43554       3   43506   43527
   43512       5   43497   43518   43536       3   43494   43512   43527       5
   43491   43479   43494       6   43491   43506   43527       5   43482   43497
   43518       3   43479   43491   43506       7   43479   43494   43512       7
   43470   43482   43497       3   43461   43479   43491       9   43461   43479
   43494       9   43452   43470   43482       3   43443   43461   43479       9
   43440   43461   43443       6   43440   43461   43479       9   43434   43452
   43470       3   43431   43416   43434      10   43428   43443   43461       7
   43425   43413   43428       5   43425   43440   43461       7   43416   43431
   43422       5   43416   43434   43452      11   43413   43425   43440       5
   43413   43428   43443       5   43410   43425   43413      13   43410   43425
   43440      13   43407   43398   43410      14   43407   43422   43431       5
   43404   43395   43407       5   43404   43416   43431       5   43404   43416
   43434      10   43401   43398   43407      15   43401   43398   43410      16
   43401   43413   43425      17   43401   43413   43428      17   43398   43392
   43401      18   43398   43401   43413      19   43398   43407   43422      20
   43398   43410   43425      21   43395   43392   43398      22   43395   43392
   43401      23   43395   43404   43416       5   43395   43407   43398      20
   43395   43407   43422       5   43392   43395   43404      24   43392   43395
   43407      24   43392   43398   43401      25   43392   43398   43407      26
   43392   43398   43410      27   43392   43401   43398      28   43392   43401
   43413      29   43746   43749   43761       3   43728   43746   43749       3
   43710   43728   43746       3   43698   43719   43704       5   43689   43710
   43728       3   43686   43704   43719       5   43683   43671   43686       6
   43683   43698   43719       5   43674   43689   43710       3   43671   43683
   43698       7   43671   43686   43704       7   43662   43674   43689       3
   43653   43671   43683       9   43653   43671   43686       9   43644   43662
   43674       3   43635   43653   43671       9   43632   43653   43635       6
   43632   43653   43671       9   43626   43644   43662       3   43623   43608
   43626      10   43620   43635   43653       7   43617   43605   43620       5
   43617   43632   43653       7   43608   43623   43614       5   43608   43626
   43644      11   43605   43617   43632       5   43605   43620   43635       5
   43602   43617   43605      13   43602   43617   43632      13   43599   43590
   43602      14   43599   43614   43623       5   43596   43587   43599       5
   43596   43608   43623       5   43596   43608   43626      10   43593   43590
   43599      15   43593   43590   43602      16   43593   43605   43617      17
   43593   43605   43620      17   43590   43584   43593      18   43590   43593
   43605      19   43590   43599   43614      20   43590   43602   43617      21
   43587   43584   43590      22   43587   43584   43593      23   43587   43596
   43608       5   43587   43599   43590      20   43587   43599   43614       5
   43584   43587   43596      24   43584   43587   43599      24   43584   43590
   43593      25   43584   43590   43599      26   43584   43590   43602      27
   43584   43593   43590      28   43584   43593   43605      29   43938   43941
   43953       3   43920   43938   43941       3   43902   43920   43938       3
   43890   43911   43896       5   43881   43902   43920       3   43878   43896
   43911       5   43875   43863   43878       6   43875   43890   43911       5
   43866   43881   43902       3   43863   43875   43890       7   43863   43878
   43896       7   43854   43866   43881       3   43845   43863   43875       9
   43845   43863   43878       9   43836   43854   43866       3   43827   43845
   43863       9   43824   43845   43827       6   43824   43845   43863       9
   43818   43836   43854       3   43815   43800   43818      10   43812   43827
   43845       7   43809   43797   43812       5   43809   43824   43845       7
   43800   43815   43806       5   43800   43818   43836      11   43797   43809
   43824       5   43797   43812   43827       5   43794   43809   43797      13
   43794   43809   43824      13   43791   43782   43794      14   43791   43806
   43815       5   43788   43779   43791       5   43788   43800   43815       5
   43788   43800   43818      10   43785   43782   43791      15   43785   43782
   43794      16   43785   43797   43809      17   43785   43797   43812      17
   43782   43776   43785      18   43782   43785   43797      19   43782   43791
   43806      20   43782   43794   43809      21   43779   43776   43782      22
   43779   43776   43785      23   43779   43788   43800       5   43779   43791
   43782      20   43779   43791   43806       5   43776   43779   43788      24
   43776   43779   43791      24   43776   43782   43785      25   43776   43782
   43791      26   43776   43782   43794      27   43776   43785   43782      28
   43776   43785   43797      29   44130   44133   44145       3   44112   44130
   44133       3   44094   44112   44130       3   44082   44103   44088       5
   44073   44094   44112       3   44070   44088   44103       5   44067   44055
   44070       6   44067   44082   44103       5   44058   44073   44094       3
   44055   44067   44082       7   44055   44070   44088       7   44046   44058
   44073       3   44037   44055   44067       9   44037   44055   44070       9
   44028   44046   44058       3   44019   44037   44055       9   44016   44037
   44019       6   44016   44037   44055       9   44010   44028   44046       3
   44007   43992   44010      10   44004   44019   44037       7   44001   43989
   44004       5   44001   44016   44037       7   43992   44007   43998       5
   43992   44010   44028      11   43989   44001   44016       5   43989   44004
   44019       5   43986   44001   43989      13   43986   44001   44016      13
   43983   43974   43986      14   43983   43998   44007       5   43980   43971
   43983       5   43980   43992   44007       5   43980   43992   44010      10
   43977   43974   43983      15   43977   43974   43986      16   43977   43989
   44001      17   43977   43989   44004      17   43974   43968   43977      18
   43974   43977   43989      19   43974   43983   43998      20   43974   43986
   44001      21   43971   43968   43974      22   43971   43968   43977      23
   43971   43980   43992       5   43971   43983   43974      20   43971   43983
   43998       5   43968   43971   43980      24   43968   43971   43983      24
   43968   43974   43977      25   43968   43974   43983      26   43968   43974
   43986      27   43968   43977   43974      28   43968   43977   43989      29
   44322   44325   44337       3   44304   44322   44325       3   44286   44304
   44322       3   44274   44295   44280       5   44265   44286   44304       3
   44262   44280   44295       5   44259   44247   44262       6   44259   44274
   44295       5   44250   44265   44286       3   44247   44259   44274       7
   44247   44262   44280       7   44238   44250   44265       3   44229   44247
   44259       9   44229   44247   44262       9   44220   44238   44250       3
   44211   44229   44247       9   44208   44229   44211       6   44208   44229
   44247       9   44202   44220   44238       3   44199   44184   44202      10
   44196   44211   44229       7   44193   44181   44196       5   44193   44208
   44229       7   44184   44199   44190       5   44184   44202   44220      11
   44181   44193   44208       5   44181   44196   44211       5   44178   44193
   44181      13   44178   44193   44208      13   44175   44166   44178      14
   44175   44190   44199       5   44172   44163   44175       5   44172   44184
   44199       5   44172   44184   44202      10   44169   44166   44175      15
   44169   44166   44178      16   44169   44181   44193      17   44169   44181
   44196      17   44166   44160   44169      18   44166   44169   44181      19
   44166   44175   44190      20   44166   44178   44193      21   44163   44160
   44166      22   44163   44160   44169      23   44163   44172   44184       5
   44163   44175   44166      20   44163   44175   44190       5   44160   44163
   44172      24   44160   44163   44175      24   44160   44166   44169      25
   44160   44166   44175      26   44160   44166   44178      27   44160   44169
   44166      28   44160   44169   44181      29   44514   44517   44529       3
   44496   44514   44517       3   44478   44496   44514       3   44466   44487
   44472       5   44457   44478   44496       3   44454   44472   44487       5
   44451   44439   44454       6   44451   44466   44487       5   44442   44457
   44478       3   44439   44451   44466       7   44439   44454   44472       7
   44430   44442   44457       3   44421   44439   44451       9   44421   44439
   44454       9   44412   44430   44442       3   44403   44421   44439       9
   44400   44421   44403       6   44400   44421   44439       9   44394   44412
   44430       3   44391   44376   44394      10   44388   44403   44421       7
   44385   44373   44388       5   44385   44400   44421       7   44376   44391
   44382       5   44376   44394   44412      11   44373   44385   44400       5
   44373   44388   44403       5   44370   44385   44373      13   44370   44385
   44400      13   44367   44358   44370      14   44367   44382   44391       5
   44364   44355   44367       5   44364   44376   44391       5   44364   44376
   44394      10   44361   44358   44367      15   44361   44358   44370      16
   44361   44373   44385      17   44361   44373   44388      17   44358   44352
   44361      18   44358   44361   44373      19   44358   44367   44382      20
   44358   44370   44385      21   44355   44352   44358      22   44355   44352
   44361      23   44355   44364   44376       5   44355   44367   44358      20
   44355   44367   44382       5   44352   44355   44364      24   44352   44355
   44367      24   44352   44358   44361      25   44352   44358   44367      26
   44352   44358   44370      27   44352   44361   44358      28   44352   44361
   44373      29   44706   44709   44721       3   44688   44706   44709       3
   44670   44688   44706       3   44658   44679   44664       5   44649   44670
   44688       3   44646   44664   44679       5   44643   44631   44646       6
   44643   44658   44679       5   44634   44649   44670       3   44631   44643
   44658       7   44631   44646   44664       7   44622   44634   44649       3
   44613   44631   44643       9   44613   44631   44646       9   44604   44622
   44634       3   44595   44613   44631       9   44592   44613   44595       6
   44592   44613   44631       9   44586   44604   44622       3   44583   44568
   44586      10   44580   44595   44613       7   44577   44565   44580       5
   44577   44592   44613       7   44568   44583   44574       5   44568   44586
   44604      11   44565   44577   44592       5   44565   44580   44595       5
   44562   44577   44565      13   44562   44577   44592      13   44559   44550
   44562      14   44559   44574   44583       5   44556   44547   44559       5
   44556   44568   44583       5   44556   44568   44586      10   44553   44550
   44559      15   44553   44550   44562      16   44553   44565   44577      17
   44553   44565   44580      17   44550   44544   44553      18   44550   44553
   44565      19   44550   44559   44574      20   44550   44562   44577      21
   44547   44544   44550      22   44547   44544   44553      23   44547   44556
   44568       5   44547   44559   44550      20   44547   44559   44574       5
   44544   44547   44556      24   44544   44547   44559      24   44544   44550
   44553      25   44544   44550   44559      26   44544   44550   44562      27
   44544   44553   44550      28   44544   44553   44565      29   44898   44901
   44913       3   44880   44898   44901       3   44862   44880   44898       3
   44850   44871   44856       5   44841   44862   44880       3   44838   44856
   44871       5   44835   44823   44838       6   44835   44850   44871       5
   44826   44841   44862       3   44823   44835   44850       7   44823   44838
   44856       7   44814   44826   44841       3   44805   44823   44835       9
   44805   44823   44838       9   44796   44814   44826       3   44787   44805
   44823       9   44784   44805   44787       6   44784   44805   44823       9
   44778   44796   44814       3   44775   44760   44778      10   44772   44787
   44805       7   44769   44757   44772       5   44769   44784   44805       7
   44760   44775   44766       5   44760   44778   44796      11   44757   44769
   44784       5   44757   44772   44787       5   44754   44769   44757      13
   44754   44769   44784      13   44751   44742   44754      14   44751   44766
   44775       5   44748   44739   44751       5   44748   44760   44775       5
   44748   44760   44778      10   44745   44742   44751      15   44745   44742
   44754      16   44745   44757   44769      17   44745   44757   44772      17
   44742   44736   44745      18   44742   44745   44757      19   44742   44751
   44766      20   44742   44754   44769      21   44739   44736   44742      22
   44739   44736   44745      23   44739   44748   44760       5   44739   44751
   44742      20   44739   44751   44766       5   44736   44739   44748      24
   44736   44739   44751      24   44736   44742   44745      25   44736   44742
   44751      26   44736   44742   44754      27   44736   44745   44742      28
   44736   44745   44757      29   45090   45093   45105       3   45072   45090
   45093       3   45054   45072   45090       3   45042   45063   45048       5
   45033   45054   45072       3   45030   45048   45063       5   45027   45015
   45030       6   45027   45042   45063       5   45018   45033   45054       3
   45015   45027   45042       7   45015   45030   45048       7   45006   45018
   45033       3   44997   45015   45027       9   44997   45015   45030       9
   44988   45006   45018       3   44979   44997   45015       9   44976   44997
   44979       6   44976   44997   45015       9   44970   44988   45006       3
   44967   44952   44970      10   44964   44979   44997       7   44961   44949
   44964       5   44961   44976   44997       7   44952   44967   44958       5
   44952   44970   44988      11   44949   44961   44976       5   44949   44964
   44979       5   44946   44961   44949      13   44946   44961   44976      13
   44943   44934   44946      14   44943   44958   44967       5   44940   44931
   44943       5   44940   44952   44967       5   44940   44952   44970      10
   44937   44934   44943      15   44937   44934   44946      16   44937   44949
   44961      17   44937   44949   44964      17   44934   44928   44937      18
   44934   44937   44949      19   44934   44943   44958      20   44934   44946
   44961      21   44931   44928   44934      22   44931   44928   44937      23
   44931   44940   44952       5   44931   44943   44934      20   44931   44943
   44958       5   44928   44931   44940      24   44928   44931   44943      24
   44928   44934   44937      25   44928   44934   44943      26   44928   44934
   44946      27   44928   44937   44934      28   44928   44937   44949      29
   45282   45285   45297       3   45264   45282   45285       3   45246   45264
   45282       3   45234   45255   45240       5   45225   45246   45264       3
   45222   45240   45255       5   45219   45207   45222       6   45219   45234
   45255       5   45210   45225   45246       3   45207   45219   45234       7
   45207   45222   45240       7   45198   45210   45225       3   45189   45207
   45219       9   45189   45207   45222       9   45180   45198   45210       3
   45171   45189   45207       9   45168   45189   45171       6   45168   45189
   45207       9   45162   45180   45198       3   45159   45144   45162      10
   45156   45171   45189       7   45153   45141   45156       5   45153   45168
   45189       7   45144   45159   45150       5   45144   45162   45180      11
   45141   45153   45168       5   45141   45156   45171       5   45138   45153
   45141      13   45138   45153   45168      13   45135   45126   45138      14
   45135   45150   45159       5   45132   45123   45135       5   45132   45144
   45159       5   45132   45144   45162      10   45129   45126   45135      15
   45129   45126   45138      16   45129   45141   45153      17   45129   45141
   45156      17   45126   45120   45129      18   45126   45129   45141      19
   45126   45135   45150      20   45126   45138   45153      21   45123   45120
   45126      22   45123   45120   45129      23   45123   45132   45144       5
   45123   45135   45126      20   45123   45135   45150       5   45120   45123
   45132      24   45120   45123   45135      24   45120   45126   45129      25
   45120   45126   45135      26   45120   45126   45138      27   45120   45129
   45126      28   45120   45129   45141      29   45474   45477   45489       3
   45456   45474   45477       3   45438   45456   45474       3   45426   45447
   45432       5   45417   45438   45456       3   45414   45432   45447       5
   45411   45399   45414       6   45411   45426   45447       5   45402   45417
   45438       3   45399   45411   45426       7   45399   45414   45432       7
   45390   45402   45417       3   45381   45399   45411       9   45381   45399
   45414       9   45372   45390   45402       3   45363   45381   45399       9
   45360   45381   45363       6   45360   45381   45399       9   45354   45372
   45390       3   45351   45336   45354      10   45348   45363   45381       7
   45345   45333   45348       5   45345   45360   45381       7   45336   45351
   45342       5   45336   45354   45372      11   45333   45345   45360       5
   45333   45348   45363       5   45330   45345   45333      13   45330   45345
   45360      13   45327   45318   45330      14   45327   45342   45351       5
   45324   45315   45327       5   45324   45336   45351       5   45324   45336
   45354      10   45321   45318   45327      15   45321   45318   45330      16
   45321   45333   45345      17   45321   45333   45348      17   45318   45312
   45321      18   45318   45321   45333      19   45318   45327   45342      20
   45318   45330   45345      21   45315   45312   45318      22   45315   45312
   45321      23   45315   45324   45336       5   45315   45327   45318      20
   45315   45327   45342       5   45312   45315   45324      24   45312   45315
   45327      24   45312   45318   45321      25   45312   45318   45327      26
   45312   45318   45330      27   45312   45321   45318      28   45312   45321
   45333      29   45666   45669   45681       3   45648   45666   45669       3
   45630   45648   45666       3   45618   45639   45624       5   45609   45630
   45648       3   45606   45624   45639       5   45603   45591   45606       6
   45603   45618   45639       5   45594   45609   45630       3   45591   45603
   45618       7   45591   45606   45624       7   45582   45594   45609       3
   45573   45591   45603       9   45573   45591   45606       9   45564   45582
   45594       3   45555   45573   45591       9   45552   45573   45555       6
   45552   45573   45591       9   45546   45564   45582       3   45543   45528
   45546      10   45540   45555   45573       7   45537   45525   45540       5
   45537   45552   45573       7   45528   45543   45534       5   45528   45546
   45564      11   45525   45537   45552       5   45525   45540   45555       5
   45522   45537   45525      13   45522   45537   45552      13   45519   45510
   45522      14   45519   45534   45543       5   45516   45507   45519       5
   45516   45528   45543       5   45516   45528   45546      10   45513   45510
   45519      15   45513   45510   45522      16   45513   45525   45537      17
   45513   45525   45540      17   45510   45504   45513      18   45510   45513
   45525      19   45510   45519   45534      20   45510   45522   45537      21
   45507   45504   45510      22   45507   45504   45513      23   45507   45516
   45528       5   45507   45519   45510      20   45507   45519   45534       5
   45504   45507   45516      24   45504   45507   45519      24   45504   45510
   45513      25   45504   45510   45519      26   45504   45510   45522      27
   45504   45513   45510      28   45504   45513   45525      29   45858   45861
   45873       3   45840   45858   45861       3   45822   45840   45858       3
   45810   45831   45816       5   45801   45822   45840       3   45798   45816
   45831       5   45795   45783   45798       6   45795   45810   45831       5
   45786   45801   45822       3   45783   45795   45810       7   45783   45798
   45816       7   45774   45786   45801       3   45765   45783   45795       9
   45765   45783   45798       9   45756   45774   45786       3   45747   45765
   45783       9   45744   45765   45747       6   45744   45765   45783       9
   45738   45756   45774       3   45735   45720   45738      10   45732   45747
   45765       7   45729   45717   45732       5   45729   45744   45765       7
   45720   45735   45726       5   45720   45738   45756      11   45717   45729
   45744       5   45717   45732   45747       5   45714   45729   45717      13
   45714   45729   45744      13   45711   45702   45714      14   45711   45726
   45735       5   45708   45699   45711       5   45708   45720   45735       5
   45708   45720   45738      10   45705   45702   45711      15   45705   45702
   45714      16   45705   45717   45729      17   45705   45717   45732      17
   45702   45696   45705      18   45702   45705   45717      19   45702   45711
   45726      20   45702   45714   45729      21   45699   45696   45702      22
   45699   45696   45705      23   45699   45708   45720       5   45699   45711
   45702      20   45699   45711   45726       5   45696   45699   45708      24
   45696   45699   45711      24   45696   45702   45705      25   45696   45702
   45711      26   45696   45702   45714      27   45696   45705   45702      28
   45696   45705   45717      29   46050   46053   46065       3   46032   46050
   46053       3   46014   46032   46050       3   46002   46023   46008       5
   45993   46014   46032       3   45990   46008   46023       5   45987   45975
   45990       6   45987   46002   46023       5   45978   45993   46014       3
   45975   45987   46002       7   45975   45990   46008       7   45966   45978
   45993       3   45957   45975   45987       9   45957   45975   45990       9
   45948   45966   45978       3   45939   45957   45975       9   45936   45957
   45939       6   45936   45957   45975       9   45930   45948   45966       3
   45927   45912   45930      10   45924   45939   45957       7   45921   45909
   45924       5   45921   45936   45957       7   45912   45927   45918       5
   45912   45930   45948      11   45909   45921   45936       5   45909   45924
   45939       5   45906   45921   45909      13   45906   45921   45936      13
   45903   45894   45906      14   45903   45918   45927       5   45900   45891
   45903       5   45900   45912   45927       5   45900   45912   45930      10
   45897   45894   45903      15   45897   45894   45906      16   45897   45909
   45921      17   45897   45909   45924      17   45894   45888   45897      18
   45894   45897   45909      19   45894   45903   45918      20   45894   45906
   45921      21   45891   45888   45894      22   45891   45888   45897      23
   45891   45900   45912       5   45891   45903   45894      20   45891   45903
   45918       5   45888   45891   45900      24   45888   45891   45903      24
   45888   45894   45897      25   45888   45894   45903      26   45888   45894
   45906      27   45888   45897   45894      28   45888   45897   45909      29
   46242   46245   46257       3   46224   46242   46245       3   46206   46224
   46242       3   46194   46215   46200       5   46185   46206   46224       3
   46182   46200   46215       5   46179   46167   46182       6   46179   46194
   46215       5   46170   46185   46206       3   46167   46179   46194       7
   46167   46182   46200       7   46158   46170   46185       3   46149   46167
   46179       9   46149   46167   46182       9   46140   46158   46170       3
   46131   46149   46167       9   46128   46149   46131       6   46128   46149
   46167       9   46122   46140   46158       3   46119   46104   46122      10
   46116   46131   46149       7   46113   46101   46116       5   46113   46128
   46149       7   46104   46119   46110       5   46104   46122   46140      11
   46101   46113   46128       5   46101   46116   46131       5   46098   46113
   46101      13   46098   46113   46128      13   46095   46086   46098      14
   46095   46110   46119       5   46092   46083   46095       5   46092   46104
   46119       5   46092   46104   46122      10   46089   46086   46095      15
   46089   46086   46098      16   46089   46101   46113      17   46089   46101
   46116      17   46086   46080   46089      18   46086   46089   46101      19
   46086   46095   46110      20   46086   46098   46113      21   46083   46080
   46086      22   46083   46080   46089      23   46083   46092   46104       5
   46083   46095   46086      20   46083   46095   46110       5   46080   46083
   46092      24   46080   46083   46095      24   46080   46086   46089      25
   46080   46086   46095      26   46080   46086   46098      27   46080   46089
   46086      28   46080   46089   46101      29   46434   46437   46449       3
   46416   46434   46437       3   46398   46416   46434       3   46386   46407
   46392       5   46377   46398   46416       3   46374   46392   46407       5
   46371   46359   46374       6   46371   46386   46407       5   46362   46377
   46398       3   46359   46371   46386       7   46359   46374   46392       7
   46350   46362   46377       3   46341   46359   46371       9   46341   46359
   46374       9   46332   46350   46362       3   46323   46341   46359       9
   46320   46341   46323       6   46320   46341   46359       9   46314   46332
   46350       3   46311   46296   46314      10   46308   46323   46341       7
   46305   46293   46308       5   46305   46320   46341       7   46296   46311
   46302       5   46296   46314   46332      11   46293   46305   46320       5
   46293   46308   46323       5   46290   46305   46293      13   46290   46305
   46320      13   46287   46278   46290      14   46287   46302   46311       5
   46284   46275   46287       5   46284   46296   46311       5   46284   46296
   46314      10   46281   46278   46287      15   46281   46278   46290      16
   46281   46293   46305      17   46281   46293   46308      17   46278   46272
   46281      18   46278   46281   46293      19   46278   46287   46302      20
   46278   46290   46305      21   46275   46272   46278      22   46275   46272
   46281      23   46275   46284   46296       5   46275   46287   46278      20
   46275   46287   46302       5   46272   46275   46284      24   46272   46275
   46287      24   46272   46278   46281      25   46272   46278   46287      26
   46272   46278   46290      27   46272   46281   46278      28   46272   46281
   46293      29   46626   46629   46641       3   46608   46626   46629       3
   46590   46608   46626       3   46578   46599   46584       5   46569   46590
   46608       3   46566   46584   46599       5   46563   46551   46566       6
   46563   46578   46599       5   46554   46569   46590       3   46551   46563
   46578       7   46551   46566   46584       7   46542   46554   46569       3
   46533   46551   46563       9   46533   46551   46566       9   46524   46542
   46554       3   46515   46533   46551       9   46512   46533   46515       6
   46512   46533   46551       9   46506   46524   46542       3   46503   46488
   46506      10   46500   46515   46533       7   46497   46485   46500       5
   46497   46512   46533       7   46488   46503   46494       5   46488   46506
   46524      11   46485   46497   46512       5   46485   46500   46515       5
   46482   46497   46485      13   46482   46497   46512      13   46479   46470
   46482      14   46479   46494   46503       5   46476   46467   46479       5
   46476   46488   46503       5   46476   46488   46506      10   46473   46470
   46479      15   46473   46470   46482      16   46473   46485   46497      17
   46473   46485   46500      17   46470   46464   46473      18   46470   46473
   46485      19   46470   46479   46494      20   46470   46482   46497      21
   46467   46464   46470      22   46467   46464   46473      23   46467   46476
   46488       5   46467   46479   46470      20   46467   46479   46494       5
   46464   46467   46476      24   46464   46467   46479      24   46464   46470
   46473      25   46464   46470   46479      26   46464   46470   46482      27
   46464   46473   46470      28   46464   46473   46485      29   46818   46821
   46833       3   46800   46818   46821       3   46782   46800   46818       3
   46770   46791   46776       5   46761   46782   46800       3   46758   46776
   46791       5   46755   46743   46758       6   46755   46770   46791       5
   46746   46761   46782       3   46743   46755   46770       7   46743   46758
   46776       7   46734   46746   46761       3   46725   46743   46755       9
   46725   46743   46758       9   46716   46734   46746       3   46707   46725
   46743       9   46704   46725   46707       6   46704   46725   46743       9
   46698   46716   46734       3   46695   46680   46698      10   46692   46707
   46725       7   46689   46677   46692       5   46689   46704   46725       7
   46680   46695   46686       5   46680   46698   46716      11   46677   46689
   46704       5   46677   46692   46707       5   46674   46689   46677      13
   46674   46689   46704      13   46671   46662   46674      14   46671   46686
   46695       5   46668   46659   46671       5   46668   46680   46695       5
   46668   46680   46698      10   46665   46662   46671      15   46665   46662
   46674      16   46665   46677   46689      17   46665   46677   46692      17
   46662   46656   46665      18   46662   46665   46677      19   46662   46671
   46686      20   46662   46674   46689      21   46659   46656   46662      22
   46659   46656   46665      23   46659   46668   46680       5   46659   46671
   46662      20   46659   46671   46686       5   46656   46659   46668      24
   46656   46659   46671      24   46656   46662   46665      25   46656   46662
   46671      26   46656   46662   46674      27   46656   46665   46662      28
   46656   46665   46677      29   47010   47013   47025       3   46992   47010
   47013       3   46974   46992   47010       3   46962   46983   46968       5
   46953   46974   46992       3   46950   46968   46983       5   46947   46935
   46950       6   46947   46962   46983       5   46938   46953   46974       3
   46935   46947   46962       7   46935   46950   46968       7   46926   46938
   46953       3   46917   46935   46947       9   46917   46935   46950       9
   46908   46926   46938       3   46899   46917   46935       9   46896   46917
   46899       6   46896   46917   46935       9   46890   46908   46926       3
   46887   46872   46890      10   46884   46899   46917       7   46881   46869
   46884       5   46881   46896   46917       7   46872   46887   46878       5
   46872   46890   46908      11   46869   46881   46896       5   46869   46884
   46899       5   46866   46881   46869      13   46866   46881   46896      13
   46863   46854   46866      14   46863   46878   46887       5   46860   46851
   46863       5   46860   46872   46887       5   46860   46872   46890      10
   46857   46854   46863      15   46857   46854   46866      16   46857   46869
   46881      17   46857   46869   46884      17   46854   46848   46857      18
   46854   46857   46869      19   46854   46863   46878      20   46854   46866
   46881      21   46851   46848   46854      22   46851   46848   46857      23
   46851   46860   46872       5   46851   46863   46854      20   46851   46863
   46878       5   46848   46851   46860      24   46848   46851   46863      24
   46848   46854   46857      25   46848   46854   46863      26   46848   46854
   46866      27   46848   46857   46854      28   46848   46857   46869      29
   47202   47205   47217       3   47184   47202   47205       3   47166   47184
   47202       3   47154   47175   47160       5   47145   47166   47184       3
   47142   47160   47175       5   47139   47127   47142       6   47139   47154
   47175       5   47130   47145   47166       3   47127   47139   47154       7
   47127   47142   47160       7   47118   47130   47145       3   47109   47127
   47139       9   47109   47127   47142       9   47100   47118   47130       3
   47091   47109   47127       9   47088   47109   47091       6   47088   47109
   47127       9   47082   47100   47118       3   47079   47064   47082      10
   47076   47091   47109       7   47073   47061   47076       5   47073   47088
   47109       7   47064   47079   47070       5   47064   47082   47100      11
   47061   47073   47088       5   47061   47076   47091       5   47058   47073
   47061      13   47058   47073   47088      13   47055   47046   47058      14
   47055   47070   47079       5   47052   47043   47055       5   47052   47064
   47079       5   47052   47064   47082      10   47049   47046   47055      15
   47049   47046   47058      16   47049   47061   47073      17   47049   47061
   47076      17   47046   47040   47049      18   47046   47049   47061      19
   47046   47055   47070      20   47046   47058   47073      21   47043   47040
   47046      22   47043   47040   47049      23   47043   47052   47064       5
   47043   47055   47046      20   47043   47055   47070       5   47040   47043
   47052      24   47040   47043   47055      24   47040   47046   47049      25
   47040   47046   47055      26   47040   47046   47058      27   47040   47049
   47046      28   47040   47049   47061      29   47394   47397   47409       3
   47376   47394   47397       3   47358   47376   47394       3   47346   47367
   47352       5   47337   47358   47376       3   47334   47352   47367       5
   47331   47319   47334       6   47331   47346   47367       5   47322   47337
   47358       3   47319   47331   47346       7   47319   47334   47352       7
   47310   47322   47337       3   47301   47319   47331       9   47301   47319
   47334       9   47292   47310   47322       3   47283   47301   47319       9
   47280   47301   47283       6   47280   47301   47319       9   47274   47292
   47310       3   47271   47256   47274      10   47268   47283   47301       7
   47265   47253   47268       5   47265   47280   47301       7   47256   47271
   47262       5   47256   47274   47292      11   47253   47265   47280       5
   47253   47268   47283       5   47250   47265   47253      13   47250   47265
   47280      13   47247   47238   47250      14   47247   47262   47271       5
   47244   47235   47247       5   47244   47256   47271       5   47244   47256
   47274      10   47241   47238   47247      15   47241   47238   47250      16
   47241   47253   47265      17   47241   47253   47268      17   47238   47232
   47241      18   47238   47241   47253      19   47238   47247   47262      20
   47238   47250   47265      21   47235   47232   47238      22   47235   47232
   47241      23   47235   47244   47256       5   47235   47247   47238      20
   47235   47247   47262       5   47232   47235   47244      24   47232   47235
   47247      24   47232   47238   47241      25   47232   47238   47247      26
   47232   47238   47250      27   47232   47241   47238      28   47232   47241
   47253      29   47586   47589   47601       3   47568   47586   47589       3
   47550   47568   47586       3   47538   47559   47544       5   47529   47550
   47568       3   47526   47544   47559       5   47523   47511   47526       6
   47523   47538   47559       5   47514   47529   47550       3   47511   47523
   47538       7   47511   47526   47544       7   47502   47514   47529       3
   47493   47511   47523       9   47493   47511   47526       9   47484   47502
   47514       3   47475   47493   47511       9   47472   47493   47475       6
   47472   47493   47511       9   47466   47484   47502       3   47463   47448
   47466      10   47460   47475   47493       7   47457   47445   47460       5
   47457   47472   47493       7   47448   47463   47454       5   47448   47466
   47484      11   47445   47457   47472       5   47445   47460   47475       5
   47442   47457   47445      13   47442   47457   47472      13   47439   47430
   47442      14   47439   47454   47463       5   47436   47427   47439       5
   47436   47448   47463       5   47436   47448   47466      10   47433   47430
   47439      15   47433   47430   47442      16   47433   47445   47457      17
   47433   47445   47460      17   47430   47424   47433      18   47430   47433
   47445      19   47430   47439   47454      20   47430   47442   47457      21
   47427   47424   47430      22   47427   47424   47433      23   47427   47436
   47448       5   47427   47439   47430      20   47427   47439   47454       5
   47424   47427   47436      24   47424   47427   47439      24   47424   47430
   47433      25   47424   47430   47439      26   47424   47430   47442      27
   47424   47433   47430      28   47424   47433   47445      29   47778   47781
   47793       3   47760   47778   47781       3   47742   47760   47778       3
   47730   47751   47736       5   47721   47742   47760       3   47718   47736
   47751       5   47715   47703   47718       6   47715   47730   47751       5
   47706   47721   47742       3   47703   47715   47730       7   47703   47718
   47736       7   47694   47706   47721       3   47685   47703   47715       9
   47685   47703   47718       9   47676   47694   47706       3   47667   47685
   47703       9   47664   47685   47667       6   47664   47685   47703       9
   47658   47676   47694       3   47655   47640   47658      10   47652   47667
   47685       7   47649   47637   47652       5   47649   47664   47685       7
   47640   47655   47646       5   47640   47658   47676      11   47637   47649
   47664       5   47637   47652   47667       5   47634   47649   47637      13
   47634   47649   47664      13   47631   47622   47634      14   47631   47646
   47655       5   47628   47619   47631       5   47628   47640   47655       5
   47628   47640   47658      10   47625   47622   47631      15   47625   47622
   47634      16   47625   47637   47649      17   47625   47637   47652      17
   47622   47616   47625      18   47622   47625   47637      19   47622   47631
   47646      20   47622   47634   47649      21   47619   47616   47622      22
   47619   47616   47625      23   47619   47628   47640       5   47619   47631
   47622      20   47619   47631   47646       5   47616   47619   47628      24
   47616   47619   47631      24   47616   47622   47625      25   47616   47622
   47631      26   47616   47622   47634      27   47616   47625   47622      28
   47616   47625   47637      29   47970   47973   47985       3   47952   47970
   47973       3   47934   47952   47970       3   47922   47943   47928       5
   47913   47934   47952       3   47910   47928   47943       5   47907   47895
   47910       6   47907   47922   47943       5   47898   47913   47934       3
   47895   47907   47922       7   47895   47910   47928       7   47886   47898
   47913       3   47877   47895   47907       9   47877   47895   47910       9
   47868   47886   47898       3   47859   47877   47895       9   47856   47877
   47859       6   47856   47877   47895       9   47850   47868   47886       3
   47847   47832   47850      10   47844   47859   47877       7   47841   47829
   47844       5   47841   47856   47877       7   47832   47847   47838       5
   47832   47850   47868      11   47829   47841   47856       5   47829   47844
   47859       5   47826   47841   47829      13   47826   47841   47856      13
   47823   47814   47826      14   47823   47838   47847       5   47820   47811
   47823       5   47820   47832   47847       5   47820   47832   47850      10
   47817   47814   47823      15   47817   47814   47826      16   47817   47829
   47841      17   47817   47829   47844      17   47814   47808   47817      18
   47814   47817   47829      19   47814   47823   47838      20   47814   47826
   47841      21   47811   47808   47814      22   47811   47808   47817      23
   47811   47820   47832       5   47811   47823   47814      20   47811   47823
   47838       5   47808   47811   47820      24   47808   47811   47823      24
   47808   47814   47817      25   47808   47814   47823      26   47808   47814
   47826      27   47808   47817   47814      28   47808   47817   47829      29
   48162   48165   48177       3   48144   48162   48165       3   48126   48144
   48162       3   48114   48135   48120       5   48105   48126   48144       3
   48102   48120   48135       5   48099   48087   48102       6   48099   48114
   48135       5   48090   48105   48126       3   48087   48099   48114       7
   48087   48102   48120       7   48078   48090   48105       3   48069   48087
   48099       9   48069   48087   48102       9   48060   48078   48090       3
   48051   48069   48087       9   48048   48069   48051       6   48048   48069
   48087       9   48042   48060   48078       3   48039   48024   48042      10
   48036   48051   48069       7   48033   48021   48036       5   48033   48048
   48069       7   48024   48039   48030       5   48024   48042   48060      11
   48021   48033   48048       5   48021   48036   48051       5   48018   48033
   48021      13   48018   48033   48048      13   48015   48006   48018      14
   48015   48030   48039       5   48012   48003   48015       5   48012   48024
   48039       5   48012   48024   48042      10   48009   48006   48015      15
   48009   48006   48018      16   48009   48021   48033      17   48009   48021
   48036      17   48006   48000   48009      18   48006   48009   48021      19
   48006   48015   48030      20   48006   48018   48033      21   48003   48000
   48006      22   48003   48000   48009      23   48003   48012   48024       5
   48003   48015   48006      20   48003   48015   48030       5   48000   48003
   48012      24   48000   48003   48015      24   48000   48006   48009      25
   48000   48006   48015      26   48000   48006   48018      27   48000   48009
   48006      28   48000   48009   48021      29   48354   48357   48369       3
   48336   48354   48357       3   48318   48336   48354       3   48306   48327
   48312       5   48297   48318   48336       3   48294   48312   48327       5
   48291   48279   48294       6   48291   48306   48327       5   48282   48297
   48318       3   48279   48291   48306       7   48279   48294   48312       7
   48270   48282   48297       3   48261   48279   48291       9   48261   48279
   48294       9   48252   48270   48282       3   48243   48261   48279       9
   48240   48261   48243       6   48240   48261   48279       9   48234   48252
   48270       3   48231   48216   48234      10   48228   48243   48261       7
   48225   48213   48228       5   48225   48240   48261       7   48216   48231
   48222       5   48216   48234   48252      11   48213   48225   48240       5
   48213   48228   48243       5   48210   48225   48213      13   48210   48225
   48240      13   48207   48198   48210      14   48207   48222   48231       5
   48204   48195   48207       5   48204   48216   48231       5   48204   48216
   48234      10   48201   48198   48207      15   48201   48198   48210      16
   48201   48213   48225      17   48201   48213   48228      17   48198   48192
   48201      18   48198   48201   48213      19   48198   48207   48222      20
   48198   48210   48225      21   48195   48192   48198      22   48195   48192
   48201      23   48195   48204   48216       5   48195   48207   48198      20
   48195   48207   48222       5   48192   48195   48204      24   48192   48195
   48207      24   48192   48198   48201      25   48192   48198   48207      26
   48192   48198   48210      27   48192   48201   48198      28   48192   48201
   48213      29   48546   48549   48561       3   48528   48546   48549       3
   48510   48528   48546       3   48498   48519   48504       5   48489   48510
   48528       3   48486   48504   48519       5   48483   48471   48486       6
   48483   48498   48519       5   48474   48489   48510       3   48471   48483
   48498       7   48471   48486   48504       7   48462   48474   48489       3
   48453   48471   48483       9   48453   48471   48486       9   48444   48462
   48474       3   48435   48453   48471       9   48432   48453   48435       6
   48432   48453   48471       9   48426   48444   48462       3   48423   48408
   48426      10   48420   48435   48453       7   48417   48405   48420       5
   48417   48432   48453       7   48408   48423   48414       5   48408   48426
   48444      11   48405   48417   48432       5   48405   48420   48435       5
   48402   48417   48405      13   48402   48417   48432      13   48399   48390
   48402      14   48399   48414   48423       5   48396   48387   48399       5
   48396   48408   48423       5   48396   48408   48426      10   48393   48390
   48399      15   48393   48390   48402      16   48393   48405   48417      17
   48393   48405   48420      17   48390   48384   48393      18   48390   48393
   48405      19   48390   48399   48414      20   48390   48402   48417      21
   48387   48384   48390      22   48387   48384   48393      23   48387   48396
   48408       5   48387   48399   48390      20   48387   48399   48414       5
   48384   48387   48396      24   48384   48387   48399      24   48384   48390
   48393      25   48384   48390   48399      26   48384   48390   48402      27
   48384   48393   48390      28   48384   48393   48405      29   48738   48741
   48753       3   48720   48738   48741       3   48702   48720   48738       3
   48690   48711   48696       5   48681   48702   48720       3   48678   48696
   48711       5   48675   48663   48678       6   48675   48690   48711       5
   48666   48681   48702       3   48663   48675   48690       7   48663   48678
   48696       7   48654   48666   48681       3   48645   48663   48675       9
   48645   48663   48678       9   48636   48654   48666       3   48627   48645
   48663       9   48624   48645   48627       6   48624   48645   48663       9
   48618   48636   48654       3   48615   48600   48618      10   48612   48627
   48645       7   48609   48597   48612       5   48609   48624   48645       7
   48600   48615   48606       5   48600   48618   48636      11   48597   48609
   48624       5   48597   48612   48627       5   48594   48609   48597      13
   48594   48609   48624      13   48591   48582   48594      14   48591   48606
   48615       5   48588   48579   48591       5   48588   48600   48615       5
   48588   48600   48618      10   48585   48582   48591      15   48585   48582
   48594      16   48585   48597   48609      17   48585   48597   48612      17
   48582   48576   48585      18   48582   48585   48597      19   48582   48591
   48606      20   48582   48594   48609      21   48579   48576   48582      22
   48579   48576   48585      23   48579   48588   48600       5   48579   48591
   48582      20   48579   48591   48606       5   48576   48579   48588      24
   48576   48579   48591      24   48576   48582   48585      25   48576   48582
   48591      26   48576   48582   48594      27   48576   48585   48582      28
   48576   48585   48597      29   48930   48933   48945       3   48912   48930
   48933       3   48894   48912   48930       3   48882   48903   48888       5
   48873   48894   48912       3   48870   48888   48903       5   48867   48855
   48870       6   48867   48882   48903       5   48858   48873   48894       3
   48855   48867   48882       7   48855   48870   48888       7   48846   48858
   48873       3   48837   48855   48867       9   48837   48855   48870       9
   48828   48846   48858       3   48819   48837   48855       9   48816   48837
   48819       6   48816   48837   48855       9   48810   48828   48846       3
   48807   48792   48810      10   48804   48819   48837       7   48801   48789
   48804       5   48801   48816   48837       7   48792   48807   48798       5
   48792   48810   48828      11   48789   48801   48816       5   48789   48804
   48819       5   48786   48801   48789      13   48786   48801   48816      13
   48783   48774   48786      14   48783   48798   48807       5   48780   48771
   48783       5   48780   48792   48807       5   48780   48792   48810      10
   48777   48774   48783      15   48777   48774   48786      16   48777   48789
   48801      17   48777   48789   48804      17   48774   48768   48777      18
   48774   48777   48789      19   48774   48783   48798      20   48774   48786
   48801      21   48771   48768   48774      22   48771   48768   48777      23
   48771   48780   48792       5   48771   48783   48774      20   48771   48783
   48798       5   48768   48771   48780      24   48768   48771   48783      24
   48768   48774   48777      25   48768   48774   48783      26   48768   48774
   48786      27   48768   48777   48774      28   48768   48777   48789      29
   49122   49125   49137       3   49104   49122   49125       3   49086   49104
   49122       3   49074   49095   49080       5   49065   49086   49104       3
   49062   49080   49095       5   49059   49047   49062       6   49059   49074
   49095       5   49050   49065   49086       3   49047   49059   49074       7
   49047   49062   49080       7   49038   49050   49065       3   49029   49047
   49059       9   49029   49047   49062       9   49020   49038   49050       3
   49011   49029   49047       9   49008   49029   49011       6   49008   49029
   49047       9   49002   49020   49038       3   48999   48984   49002      10
   48996   49011   49029       7   48993   48981   48996       5   48993   49008
   49029       7   48984   48999   48990       5   48984   49002   49020      11
   48981   48993   49008       5   48981   48996   49011       5   48978   48993
   48981      13   48978   48993   49008      13   48975   48966   48978      14
   48975   48990   48999       5   48972   48963   48975       5   48972   48984
   48999       5   48972   48984   49002      10   48969   48966   48975      15
   48969   48966   48978      16   48969   48981   48993      17   48969   48981
   48996      17   48966   48960   48969      18   48966   48969   48981      19
   48966   48975   48990      20   48966   48978   48993      21   48963   48960
   48966      22   48963   48960   48969      23   48963   48972   48984       5
   48963   48975   48966      20   48963   48975   48990       5   48960   48963
   48972      24   48960   48963   48975      24   48960   48966   48969      25
   48960   48966   48975      26   48960   48966   48978      27   48960   48969
   48966      28   48960   48969   48981      29   49314   49317   49329       3
   49296   49314   49317       3   49278   49296   49314       3   49266   49287
   49272       5   49257   49278   49296       3   49254   49272   49287       5
   49251   49239   49254       6   49251   49266   49287       5   49242   49257
   49278       3   49239   49251   49266       7   49239   49254   49272       7
   49230   49242   49257       3   49221   49239   49251       9   49221   49239
   49254       9   49212   49230   49242       3   49203   49221   49239       9
   49200   49221   49203       6   49200   49221   49239       9   49194   49212
   49230       3   49191   49176   49194      10   49188   49203   49221       7
   49185   49173   49188       5   49185   49200   49221       7   49176   49191
   49182       5   49176   49194   49212      11   49173   49185   49200       5
   49173   49188   49203       5   49170   49185   49173      13   49170   49185
   49200      13   49167   49158   49170      14   49167   49182   49191       5
   49164   49155   49167       5   49164   49176   49191       5   49164   49176
   49194      10   49161   49158   49167      15   49161   49158   49170      16
   49161   49173   49185      17   49161   49173   49188      17   49158   49152
   49161      18   49158   49161   49173      19   49158   49167   49182      20
   49158   49170   49185      21   49155   49152   49158      22   49155   49152
   49161      23   49155   49164   49176       5   49155   49167   49158      20
   49155   49167   49182       5   49152   49155   49164      24   49152   49155
   49167      24   49152   49158   49161      25   49152   49158   49167      26
   49152   49158   49170      27   49152   49161   49158      28   49152   49161
   49173      29   49506   49509   49521       3   49488   49506   49509       3
   49470   49488   49506       3   49458   49479   49464       5   49449   49470
   49488       3   49446   49464   49479       5   49443   49431   49446       6
   49443   49458   49479       5   49434   49449   49470       3   49431   49443
   49458       7   49431   49446   49464       7   49422   49434   49449       3
   49413   49431   49443       9   49413   49431   49446       9   49404   49422
   49434       3   49395   49413   49431       9   49392   49413   49395       6
   49392   49413   49431       9   49386   49404   49422       3   49383   49368
   49386      10   49380   49395   49413       7   49377   49365   49380       5
   49377   49392   49413       7   49368   49383   49374       5   49368   49386
   49404      11   49365   49377   49392       5   49365   49380   49395       5
   49362   49377   49365      13   49362   49377   49392      13   49359   49350
   49362      14   49359   49374   49383       5   49356   49347   49359       5
   49356   49368   49383       5   49356   49368   49386      10   49353   49350
   49359      15   49353   49350   49362      16   49353   49365   49377      17
   49353   49365   49380      17   49350   49344   49353      18   49350   49353
   49365      19   49350   49359   49374      20   49350   49362   49377      21
   49347   49344   49350      22   49347   49344   49353      23   49347   49356
   49368       5   49347   49359   49350      20   49347   49359   49374       5
   49344   49347   49356      24   49344   49347   49359      24   49344   49350
   49353      25   49344   49350   49359      26   49344   49350   49362      27
   49344   49353   49350      28   49344   49353   49365      29   49698   49701
   49713       3   49680   49698   49701       3   49662   49680   49698       3
   49650   49671   49656       5   49641   49662   49680       3   49638   49656
   49671       5   49635   49623   49638       6   49635   49650   49671       5
   49626   49641   49662       3   49623   49635   49650       7   49623   49638
   49656       7   49614   49626   49641       3   49605   49623   49635       9
   49605   49623   49638       9   49596   49614   49626       3   49587   49605
   49623       9   49584   49605   49587       6   49584   49605   49623       9
   49578   49596   49614       3   49575   49560   49578      10   49572   49587
   49605       7   49569   49557   49572       5   49569   49584   49605       7
   49560   49575   49566       5   49560   49578   49596      11   49557   49569
   49584       5   49557   49572   49587       5   49554   49569   49557      13
   49554   49569   49584      13   49551   49542   49554      14   49551   49566
   49575       5   49548   49539   49551       5   49548   49560   49575       5
   49548   49560   49578      10   49545   49542   49551      15   49545   49542
   49554      16   49545   49557   49569      17   49545   49557   49572      17
   49542   49536   49545      18   49542   49545   49557      19   49542   49551
   49566      20   49542   49554   49569      21   49539   49536   49542      22
   49539   49536   49545      23   49539   49548   49560       5   49539   49551
   49542      20   49539   49551   49566       5   49536   49539   49548      24
   49536   49539   49551      24   49536   49542   49545      25   49536   49542
   49551      26   49536   49542   49554      27   49536   49545   49542      28
   49536   49545   49557      29   49890   49893   49905       3   49872   49890
   49893       3   49854   49872   49890       3   49842   49863   49848       5
   49833   49854   49872       3   49830   49848   49863       5   49827   49815
   49830       6   49827   49842   49863       5   49818   49833   49854       3
   49815   49827   49842       7   49815   49830   49848       7   49806   49818
   49833       3   49797   49815   49827       9   49797   49815   49830       9
   49788   49806   49818       3   49779   49797   49815       9   49776   49797
   49779       6   49776   49797   49815       9   49770   49788   49806       3
   49767   49752   49770      10   49764   49779   49797       7   49761   49749
   49764       5   49761   49776   49797       7   49752   49767   49758       5
   49752   49770   49788      11   49749   49761   49776       5   49749   49764
   49779       5   49746   49761   49749      13   49746   49761   49776      13
   49743   49734   49746      14   49743   49758   49767       5   49740   49731
   49743       5   49740   49752   49767       5   49740   49752   49770      10
   49737   49734   49743      15   49737   49734   49746      16   49737   49749
   49761      17   49737   49749   49764      17   49734   49728   49737      18
   49734   49737   49749      19   49734   49743   49758      20   49734   49746
   49761      21   49731   49728   49734      22   49731   49728   49737      23
   49731   49740   49752       5   49731   49743   49734      20   49731   49743
   49758       5   49728   49731   49740      24   49728   49731   49743      24
   49728   49734   49737      25   49728   49734   49743      26   49728   49734
   49746      27   49728   49737   49734      28   49728   49737   49749      29
   50082   50085   50097       3   50064   50082   50085       3   50046   50064
   50082       3   50034   50055   50040       5   50025   50046   50064       3
   50022   50040   50055       5   50019   50007   50022       6   50019   50034
   50055       5   50010   50025   50046       3   50007   50019   50034       7
   50007   50022   50040       7   49998   50010   50025       3   49989   50007
   50019       9   49989   50007   50022       9   49980   49998   50010       3
   49971   49989   50007       9   49968   49989   49971       6   49968   49989
   50007       9   49962   49980   49998       3   49959   49944   49962      10
   49956   49971   49989       7   49953   49941   49956       5   49953   49968
   49989       7   49944   49959   49950       5   49944   49962   49980      11
   49941   49953   49968       5   49941   49956   49971       5   49938   49953
   49941      13   49938   49953   49968      13   49935   49926   49938      14
   49935   49950   49959       5   49932   49923   49935       5   49932   49944
   49959       5   49932   49944   49962      10   49929   49926   49935      15
   49929   49926   49938      16   49929   49941   49953      17   49929   49941
   49956      17   49926   49920   49929      18   49926   49929   49941      19
   49926   49935   49950      20   49926   49938   49953      21   49923   49920
   49926      22   49923   49920   49929      23   49923   49932   49944       5
   49923   49935   49926      20   49923   49935   49950       5   49920   49923
   49932      24   49920   49923   49935      24   49920   49926   49929      25
   49920   49926   49935      26   49920   49926   49938      27   49920   49929
   49926      28   49920   49929   49941      29   50274   50277   50289       3
   50256   50274   50277       3   50238   50256   50274       3   50226   50247
   50232       5   50217   50238   50256       3   50214   50232   50247       5
   50211   50199   50214       6   50211   50226   50247       5   50202   50217
   50238       3   50199   50211   50226       7   50199   50214   50232       7
   50190   50202   50217       3   50181   50199   50211       9   50181   50199
   50214       9   50172   50190   50202       3   50163   50181   50199       9
   50160   50181   50163       6   50160   50181   50199       9   50154   50172
   50190       3   50151   50136   50154      10   50148   50163   50181       7
   50145   50133   50148       5   50145   50160   50181       7   50136   50151
   50142       5   50136   50154   50172      11   50133   50145   50160       5
   50133   50148   50163       5   50130   50145   50133      13   50130   50145
   50160      13   50127   50118   50130      14   50127   50142   50151       5
   50124   50115   50127       5   50124   50136   50151       5   50124   50136
   50154      10   50121   50118   50127      15   50121   50118   50130      16
   50121   50133   50145      17   50121   50133   50148      17   50118   50112
   50121      18   50118   50121   50133      19   50118   50127   50142      20
   50118   50130   50145      21   50115   50112   50118      22   50115   50112
   50121      23   50115   50124   50136       5   50115   50127   50118      20
   50115   50127   50142       5   50112   50115   50124      24   50112   50115
   50127      24   50112   50118   50121      25   50112   50118   50127      26
   50112   50118   50130      27   50112   50121   50118      28   50112   50121
   50133      29   50466   50469   50481       3   50448   50466   50469       3
   50430   50448   50466       3   50418   50439   50424       5   50409   50430
   50448       3   50406   50424   50439       5   50403   50391   50406       6
   50403   50418   50439       5   50394   50409   50430       3   50391   50403
   50418       7   50391   50406   50424       7   50382   50394   50409       3
   50373   50391   50403       9   50373   50391   50406       9   50364   50382
   50394       3   50355   50373   50391       9   50352   50373   50355       6
   50352   50373   50391       9   50346   50364   50382       3   50343   50328
   50346      10   50340   50355   50373       7   50337   50325   50340       5
   50337   50352   50373       7   50328   50343   50334       5   50328   50346
   50364      11   50325   50337   50352       5   50325   50340   50355       5
   50322   50337   50325      13   50322   50337   50352      13   50319   50310
   50322      14   50319   50334   50343       5   50316   50307   50319       5
   50316   50328   50343       5   50316   50328   50346      10   50313   50310
   50319      15   50313   50310   50322      16   50313   50325   50337      17
   50313   50325   50340      17   50310   50304   50313      18   50310   50313
   50325      19   50310   50319   50334      20   50310   50322   50337      21
   50307   50304   50310      22   50307   50304   50313      23   50307   50316
   50328       5   50307   50319   50310      20   50307   50319   50334       5
   50304   50307   50316      24   50304   50307   50319      24   50304   50310
   50313      25   50304   50310   50319      26   50304   50310   50322      27
   50304   50313   50310      28   50304   50313   50325      29   50658   50661
   50673       3   50640   50658   50661       3   50622   50640   50658       3
   50610   50631   50616       5   50601   50622   50640       3   50598   50616
   50631       5   50595   50583   50598       6   50595   50610   50631       5
   50586   50601   50622       3   50583   50595   50610       7   50583   50598
   50616       7   50574   50586   50601       3   50565   50583   50595       9
   50565   50583   50598       9   50556   50574   50586       3   50547   50565
   50583       9   50544   50565   50547       6   50544   50565   50583       9
   50538   50556   50574       3   50535   50520   50538      10   50532   50547
   50565       7   50529   50517   50532       5   50529   50544   50565       7
   50520   50535   50526       5   50520   50538   50556      11   50517   50529
   50544       5   50517   50532   50547       5   50514   50529   50517      13
   50514   50529   50544      13   50511   50502   50514      14   50511   50526
   50535       5   50508   50499   50511       5   50508   50520   50535       5
   50508   50520   50538      10   50505   50502   50511      15   50505   50502
   50514      16   50505   50517   50529      17   50505   50517   50532      17
   50502   50496   50505      18   50502   50505   50517      19   50502   50511
   50526      20   50502   50514   50529      21   50499   50496   50502      22
   50499   50496   50505      23   50499   50508   50520       5   50499   50511
   50502      20   50499   50511   50526       5   50496   50499   50508      24
   50496   50499   50511      24   50496   50502   50505      25   50496   50502
   50511      26   50496   50502   50514      27   50496   50505   50502      28
   50496   50505   50517      29   50850   50853   50865       3   50832   50850
   50853       3   50814   50832   50850       3   50802   50823   50808       5
   50793   50814   50832       3   50790   50808   50823       5   50787   50775
   50790       6   50787   50802   50823       5   50778   50793   50814       3
   50775   50787   50802       7   50775   50790   50808       7   50766   50778
   50793       3   50757   50775   50787       9   50757   50775   50790       9
   50748   50766   50778       3   50739   50757   50775       9   50736   50757
   50739       6   50736   50757   50775       9   50730   50748   50766       3
   50727   50712   50730      10   50724   50739   50757       7   50721   50709
   50724       5   50721   50736   50757       7   50712   50727   50718       5
   50712   50730   50748      11   50709   50721   50736       5   50709   50724
   50739       5   50706   50721   50709      13   50706   50721   50736      13
   50703   50694   50706      14   50703   50718   50727       5   50700   50691
   50703       5   50700   50712   50727       5   50700   50712   50730      10
   50697   50694   50703      15   50697   50694   50706      16   50697   50709
   50721      17   50697   50709   50724      17   50694   50688   50697      18
   50694   50697   50709      19   50694   50703   50718      20   50694   50706
   50721      21   50691   50688   50694      22   50691   50688   50697      23
   50691   50700   50712       5   50691   50703   50694      20   50691   50703
   50718       5   50688   50691   50700      24   50688   50691   50703      24
   50688   50694   50697      25   50688   50694   50703      26   50688   50694
   50706      27   50688   50697   50694      28   50688   50697   50709      29
   51042   51045   51057       3   51024   51042   51045       3   51006   51024
   51042       3   50994   51015   51000       5   50985   51006   51024       3
   50982   51000   51015       5   50979   50967   50982       6   50979   50994
   51015       5   50970   50985   51006       3   50967   50979   50994       7
   50967   50982   51000       7   50958   50970   50985       3   50949   50967
   50979       9   50949   50967   50982       9   50940   50958   50970       3
   50931   50949   50967       9   50928   50949   50931       6   50928   50949
   50967       9   50922   50940   50958       3   50919   50904   50922      10
   50916   50931   50949       7   50913   50901   50916       5   50913   50928
   50949       7   50904   50919   50910       5   50904   50922   50940      11
   50901   50913   50928       5   50901   50916   50931       5   50898   50913
   50901      13   50898   50913   50928      13   50895   50886   50898      14
   50895   50910   50919       5   50892   50883   50895       5   50892   50904
   50919       5   50892   50904   50922      10   50889   50886   50895      15
   50889   50886   50898      16   50889   50901   50913      17   50889   50901
   50916      17   50886   50880   50889      18   50886   50889   50901      19
   50886   50895   50910      20   50886   50898   50913      21   50883   50880
   50886      22   50883   50880   50889      23   50883   50892   50904       5
   50883   50895   50886      20   50883   50895   50910       5   50880   50883
   50892      24   50880   50883   50895      24   50880   50886   50889      25
   50880   50886   50895      26   50880   50886   50898      27   50880   50889
   50886      28   50880   50889   50901      29   51234   51237   51249       3
   51216   51234   51237       3   51198   51216   51234       3   51186   51207
   51192       5   51177   51198   51216       3   51174   51192   51207       5
   51171   51159   51174       6   51171   51186   51207       5   51162   51177
   51198       3   51159   51171   51186       7   51159   51174   51192       7
   51150   51162   51177       3   51141   51159   51171       9   51141   51159
   51174       9   51132   51150   51162       3   51123   51141   51159       9
   51120   51141   51123       6   51120   51141   51159       9   51114   51132
   51150       3   51111   51096   51114      10   51108   51123   51141       7
   51105   51093   51108       5   51105   51120   51141       7   51096   51111
   51102       5   51096   51114   51132      11   51093   51105   51120       5
   51093   51108   51123       5   51090   51105   51093      13   51090   51105
   51120      13   51087   51078   51090      14   51087   51102   51111       5
   51084   51075   51087       5   51084   51096   51111       5   51084   51096
   51114      10   51081   51078   51087      15   51081   51078   51090      16
   51081   51093   51105      17   51081   51093   51108      17   51078   51072
   51081      18   51078   51081   51093      19   51078   51087   51102      20
   51078   51090   51105      21   51075   51072   51078      22   51075   51072
   51081      23   51075   51084   51096       5   51075   51087   51078      20
   51075   51087   51102       5   51072   51075   51084      24   51072   51075
   51087      24   51072   51078   51081      25   51072   51078   51087      26
   51072   51078   51090      27   51072   51081   51078      28   51072   51081
   51093      29   51426   51429   51441       3   51408   51426   51429       3
   51390   51408   51426       3   51378   51399   51384       5   51369   51390
   51408       3   51366   51384   51399       5   51363   51351   51366       6
   51363   51378   51399       5   51354   51369   51390       3   51351   51363
   51378       7   51351   51366   51384       7   51342   51354   51369       3
   51333   51351   51363       9   51333   51351   51366       9   51324   51342
   51354       3   51315   51333   51351       9   51312   51333   51315       6
   51312   51333   51351       9   51306   51324   51342       3   51303   51288
   51306      10   51300   51315   51333       7   51297   51285   51300       5
   51297   51312   51333       7   51288   51303   51294       5   51288   51306
   51324      11   51285   51297   51312       5   51285   51300   51315       5
   51282   51297   51285      13   51282   51297   51312      13   51279   51270
   51282      14   51279   51294   51303       5   51276   51267   51279       5
   51276   51288   51303       5   51276   51288   51306      10   51273   51270
   51279      15   51273   51270   51282      16   51273   51285   51297      17
   51273   51285   51300      17   51270   51264   51273      18   51270   51273
   51285      19   51270   51279   51294      20   51270   51282   51297      21
   51267   51264   51270      22   51267   51264   51273      23   51267   51276
   51288       5   51267   51279   51270      20   51267   51279   51294       5
   51264   51267   51276      24   51264   51267   51279      24   51264   51270
   51273      25   51264   51270   51279      26   51264   51270   51282      27
   51264   51273   51270      28   51264   51273   51285      29   51618   51621
   51633       3   51600   51618   51621       3   51582   51600   51618       3
   51570   51591   51576       5   51561   51582   51600       3   51558   51576
   51591       5   51555   51543   51558       6   51555   51570   51591       5
   51546   51561   51582       3   51543   51555   51570       7   51543   51558
   51576       7   51534   51546   51561       3   51525   51543   51555       9
   51525   51543   51558       9   51516   51534   51546       3   51507   51525
   51543       9   51504   51525   51507       6   51504   51525   51543       9
   51498   51516   51534       3   51495   51480   51498      10   51492   51507
   51525       7   51489   51477   51492       5   51489   51504   51525       7
   51480   51495   51486       5   51480   51498   51516      11   51477   51489
   51504       5   51477   51492   51507       5   51474   51489   51477      13
   51474   51489   51504      13   51471   51462   51474      14   51471   51486
   51495       5   51468   51459   51471       5   51468   51480   51495       5
   51468   51480   51498      10   51465   51462   51471      15   51465   51462
   51474      16   51465   51477   51489      17   51465   51477   51492      17
   51462   51456   51465      18   51462   51465   51477      19   51462   51471
   51486      20   51462   51474   51489      21   51459   51456   51462      22
   51459   51456   51465      23   51459   51468   51480       5   51459   51471
   51462      20   51459   51471   51486       5   51456   51459   51468      24
   51456   51459   51471      24   51456   51462   51465      25   51456   51462
   51471      26   51456   51462   51474      27   51456   51465   51462      28
   51456   51465   51477      29   51810   51813   51825       3   51792   51810
   51813       3   51774   51792   51810       3   51762   51783   51768       5
   51753   51774   51792       3   51750   51768   51783       5   51747   51735
   51750       6   51747   51762   51783       5   51738   51753   51774       3
   51735   51747   51762       7   51735   51750   51768       7   51726   51738
   51753       3   51717   51735   51747       9   51717   51735   51750       9
   51708   51726   51738       3   51699   51717   51735       9   51696   51717
   51699       6   51696   51717   51735       9   51690   51708   51726       3
   51687   51672   51690      10   51684   51699   51717       7   51681   51669
   51684       5   51681   51696   51717       7   51672   51687   51678       5
   51672   51690   51708      11   51669   51681   51696       5   51669   51684
   51699       5   51666   51681   51669      13   51666   51681   51696      13
   51663   51654   51666      14   51663   51678   51687       5   51660   51651
   51663       5   51660   51672   51687       5   51660   51672   51690      10
   51657   51654   51663      15   51657   51654   51666      16   51657   51669
   51681      17   51657   51669   51684      17   51654   51648   51657      18
   51654   51657   51669      19   51654   51663   51678      20   51654   51666
   51681      21   51651   51648   51654      22   51651   51648   51657      23
   51651   51660   51672       5   51651   51663   51654      20   51651   51663
   51678       5   51648   51651   51660      24   51648   51651   51663      24
   51648   51654   51657      25   51648   51654   51663      26   51648   51654
   51666      27   51648   51657   51654      28   51648   51657   51669      29
   52002   52005   52017       3   51984   52002   52005       3   51966   51984
   52002       3   51954   51975   51960       5   51945   51966   51984       3
   51942   51960   51975       5   51939   51927   51942       6   51939   51954
   51975       5   51930   51945   51966       3   51927   51939   51954       7
   51927   51942   51960       7   51918   51930   51945       3   51909   51927
   51939       9   51909   51927   51942       9   51900   51918   51930       3
   51891   51909   51927       9   51888   51909   51891       6   51888   51909
   51927       9   51882   51900   51918       3   51879   51864   51882      10
   51876   51891   51909       7   51873   51861   51876       5   51873   51888
   51909       7   51864   51879   51870       5   51864   51882   51900      11
   51861   51873   51888       5   51861   51876   51891       5   51858   51873
   51861      13   51858   51873   51888      13   51855   51846   51858      14
   51855   51870   51879       5   51852   51843   51855       5   51852   51864
   51879       5   51852   51864   51882      10   51849   51846   51855      15
   51849   51846   51858      16   51849   51861   51873      17   51849   51861
   51876      17   51846   51840   51849      18   51846   51849   51861      19
   51846   51855   51870      20   51846   51858   51873      21   51843   51840
   51846      22   51843   51840   51849      23   51843   51852   51864       5
   51843   51855   51846      20   51843   51855   51870       5   51840   51843
   51852      24   51840   51843   51855      24   51840   51846   51849      25
   51840   51846   51855      26   51840   51846   51858      27   51840   51849
   51846      28   51840   51849   51861      29   52194   52197   52209       3
   52176   52194   52197       3   52158   52176   52194       3   52146   52167
   52152       5   52137   52158   52176       3   52134   52152   52167       5
   52131   52119   52134       6   52131   52146   52167       5   52122   52137
   52158       3   52119   52131   52146       7   52119   52134   52152       7
   52110   52122   52137       3   52101   52119   52131       9   52101   52119
   52134       9   52092   52110   52122       3   52083   52101   52119       9
   52080   52101   52083       6   52080   52101   52119       9   52074   52092
   52110       3   52071   52056   52074      10   52068   52083   52101       7
   52065   52053   52068       5   52065   52080   52101       7   52056   52071
   52062       5   52056   52074   52092      11   52053   52065   52080       5
   52053   52068   52083       5   52050   52065   52053      13   52050   52065
   52080      13   52047   52038   52050      14   52047   52062   52071       5
   52044   52035   52047       5   52044   52056   52071       5   52044   52056
   52074      10   52041   52038   52047      15   52041   52038   52050      16
   52041   52053   52065      17   52041   52053   52068      17   52038   52032
   52041      18   52038   52041   52053      19   52038   52047   52062      20
   52038   52050   52065      21   52035   52032   52038      22   52035   52032
   52041      23   52035   52044   52056       5   52035   52047   52038      20
   52035   52047   52062       5   52032   52035   52044      24   52032   52035
   52047      24   52032   52038   52041      25   52032   52038   52047      26
   52032   52038   52050      27   52032   52041   52038      28   52032   52041
   52053      29   52386   52389   52401       3   52368   52386   52389       3
   52350   52368   52386       3   52338   52359   52344       5   52329   52350
   52368       3   52326   52344   52359       5   52323   52311   52326       6
   52323   52338   52359       5   52314   52329   52350       3   52311   52323
   52338       7   52311   52326   52344       7   52302   52314   52329       3
   52293   52311   52323       9   52293   52311   52326       9   52284   52302
   52314       3   52275   52293   52311       9   52272   52293   52275       6
   52272   52293   52311       9   52266   52284   52302       3   52263   52248
   52266      10   52260   52275   52293       7   52257   52245   52260       5
   52257   52272   52293       7   52248   52263   52254       5   52248   52266
   52284      11   52245   52257   52272       5   52245   52260   52275       5
   52242   52257   52245      13   52242   52257   52272      13   52239   52230
   52242      14   52239   52254   52263       5   52236   52227   52239       5
   52236   52248   52263       5   52236   52248   52266      10   52233   52230
   52239      15   52233   52230   52242      16   52233   52245   52257      17
   52233   52245   52260      17   52230   52224   52233      18   52230   52233
   52245      19   52230   52239   52254      20   52230   52242   52257      21
   52227   52224   52230      22   52227   52224   52233      23   52227   52236
   52248       5   52227   52239   52230      20   52227   52239   52254       5
   52224   52227   52236      24   52224   52227   52239      24   52224   52230
   52233      25   52224   52230   52239      26   52224   52230   52242      27
   52224   52233   52230      28   52224   52233   52245      29   52578   52581
   52593       3   52560   52578   52581       3   52542   52560   52578       3
   52530   52551   52536       5   52521   52542   52560       3   52518   52536
   52551       5   52515   52503   52518       6   52515   52530   52551       5
   52506   52521   52542       3   52503   52515   52530       7   52503   52518
   52536       7   52494   52506   52521       3   52485   52503   52515       9
   52485   52503   52518       9   52476   52494   52506       3   52467   52485
   52503       9   52464   52485   52467       6   52464   52485   52503       9
   52458   52476   52494       3   52455   52440   52458      10   52452   52467
   52485       7   52449   52437   52452       5   52449   52464   52485       7
   52440   52455   52446       5   52440   52458   52476      11   52437   52449
   52464       5   52437   52452   52467       5   52434   52449   52437      13
   52434   52449   52464      13   52431   52422   52434      14   52431   52446
   52455       5   52428   52419   52431       5   52428   52440   52455       5
   52428   52440   52458      10   52425   52422   52431      15   52425   52422
   52434      16   52425   52437   52449      17   52425   52437   52452      17
   52422   52416   52425      18   52422   52425   52437      19   52422   52431
   52446      20   52422   52434   52449      21   52419   52416   52422      22
   52419   52416   52425      23   52419   52428   52440       5   52419   52431
   52422      20   52419   52431   52446       5   52416   52419   52428      24
   52416   52419   52431      24   52416   52422   52425      25   52416   52422
   52431      26   52416   52422   52434      27   52416   52425   52422      28
   52416   52425   52437      29   52770   52773   52785       3   52752   52770
   52773       3   52734   52752   52770       3   52722   52743   52728       5
   52713   52734   52752       3   52710   52728   52743       5   52707   52695
   52710       6   52707   52722   52743       5   52698   52713   52734       3
   52695   52707   52722       7   52695   52710   52728       7   52686   52698
   52713       3   52677   52695   52707       9   52677   52695   52710       9
   52668   52686   52698       3   52659   52677   52695       9   52656   52677
   52659       6   52656   52677   52695       9   52650   52668   52686       3
   52647   52632   52650      10   52644   52659   52677       7   52641   52629
   52644       5   52641   52656   52677       7   52632   52647   52638       5
   52632   52650   52668      11   52629   52641   52656       5   52629   52644
   52659       5   52626   52641   52629      13   52626   52641   52656      13
   52623   52614   52626      14   52623   52638   52647       5   52620   52611
   52623       5   52620   52632   52647       5   52620   52632   52650      10
   52617   52614   52623      15   52617   52614   52626      16   52617   52629
   52641      17   52617   52629   52644      17   52614   52608   52617      18
   52614   52617   52629      19   52614   52623   52638      20   52614   52626
   52641      21   52611   52608   52614      22   52611   52608   52617      23
   52611   52620   52632       5   52611   52623   52614      20   52611   52623
   52638       5   52608   52611   52620      24   52608   52611   52623      24
   52608   52614   52617      25   52608   52614   52623      26   52608   52614
   52626      27   52608   52617   52614      28   52608   52617   52629      29
   52962   52965   52977       3   52944   52962   52965       3   52926   52944
   52962       3   52914   52935   52920       5   52905   52926   52944       3
   52902   52920   52935       5   52899   52887   52902       6   52899   52914
   52935       5   52890   52905   52926       3   52887   52899   52914       7
   52887   52902   52920       7   52878   52890   52905       3   52869   52887
   52899       9   52869   52887   52902       9   52860   52878   52890       3
   52851   52869   52887       9   52848   52869   52851       6   52848   52869
   52887       9   52842   52860   52878       3   52839   52824   52842      10
   52836   52851   52869       7   52833   52821   52836       5   52833   52848
   52869       7   52824   52839   52830       5   52824   52842   52860      11
   52821   52833   52848       5   52821   52836   52851       5   52818   52833
   52821      13   52818   52833   52848      13   52815   52806   52818      14
   52815   52830   52839       5   52812   52803   52815       5   52812   52824
   52839       5   52812   52824   52842      10   52809   52806   52815      15
   52809   52806   52818      16   52809   52821   52833      17   52809   52821
   52836      17   52806   52800   52809      18   52806   52809   52821      19
   52806   52815   52830      20   52806   52818   52833      21   52803   52800
   52806      22   52803   52800   52809      23   52803   52812   52824       5
   52803   52815   52806      20   52803   52815   52830       5   52800   52803
   52812      24   52800   52803   52815      24   52800   52806   52809      25
   52800   52806   52815      26   52800   52806   52818      27   52800   52809
   52806      28   52800   52809   52821      29   53154   53157   53169       3
   53136   53154   53157       3   53118   53136   53154       3   53106   53127
   53112       5   53097   53118   53136       3   53094   53112   53127       5
   53091   53079   53094       6   53091   53106   53127       5   53082   53097
   53118       3   53079   53091   53106       7   53079   53094   53112       7
   53070   53082   53097       3   53061   53079   53091       9   53061   53079
   53094       9   53052   53070   53082       3   53043   53061   53079       9
   53040   53061   53043       6   53040   53061   53079       9   53034   53052
   53070       3   53031   53016   53034      10   53028   53043   53061       7
   53025   53013   53028       5   53025   53040   53061       7   53016   53031
   53022       5   53016   53034   53052      11   53013   53025   53040       5
   53013   53028   53043       5   53010   53025   53013      13   53010   53025
   53040      13   53007   52998   53010      14   53007   53022   53031       5
   53004   52995   53007       5   53004   53016   53031       5   53004   53016
   53034      10   53001   52998   53007      15   53001   52998   53010      16
   53001   53013   53025      17   53001   53013   53028      17   52998   52992
   53001      18   52998   53001   53013      19   52998   53007   53022      20
   52998   53010   53025      21   52995   52992   52998      22   52995   52992
   53001      23   52995   53004   53016       5   52995   53007   52998      20
   52995   53007   53022       5   52992   52995   53004      24   52992   52995
   53007      24   52992   52998   53001      25   52992   52998   53007      26
   52992   52998   53010      27   52992   53001   52998      28   52992   53001
   53013      29   53346   53349   53361       3   53328   53346   53349       3
   53310   53328   53346       3   53298   53319   53304       5   53289   53310
   53328       3   53286   53304   53319       5   53283   53271   53286       6
   53283   53298   53319       5   53274   53289   53310       3   53271   53283
   53298       7   53271   53286   53304       7   53262   53274   53289       3
   53253   53271   53283       9   53253   53271   53286       9   53244   53262
   53274       3   53235   53253   53271       9   53232   53253   53235       6
   53232   53253   53271       9   53226   53244   53262       3   53223   53208
   53226      10   53220   53235   53253       7   53217   53205   53220       5
   53217   53232   53253       7   53208   53223   53214       5   53208   53226
   53244      11   53205   53217   53232       5   53205   53220   53235       5
   53202   53217   53205      13   53202   53217   53232      13   53199   53190
   53202      14   53199   53214   53223       5   53196   53187   53199       5
   53196   53208   53223       5   53196   53208   53226      10   53193   53190
   53199      15   53193   53190   53202      16   53193   53205   53217      17
   53193   53205   53220      17   53190   53184   53193      18   53190   53193
   53205      19   53190   53199   53214      20   53190   53202   53217      21
   53187   53184   53190      22   53187   53184   53193      23   53187   53196
   53208       5   53187   53199   53190      20   53187   53199   53214       5
   53184   53187   53196      24   53184   53187   53199      24   53184   53190
   53193      25   53184   53190   53199      26   53184   53190   53202      27
   53184   53193   53190      28   53184   53193   53205      29   53538   53541
   53553       3   53520   53538   53541       3   53502   53520   53538       3
   53490   53511   53496       5   53481   53502   53520       3   53478   53496
   53511       5   53475   53463   53478       6   53475   53490   53511       5
   53466   53481   53502       3   53463   53475   53490       7   53463   53478
   53496       7   53454   53466   53481       3   53445   53463   53475       9
   53445   53463   53478       9   53436   53454   53466       3   53427   53445
   53463       9   53424   53445   53427       6   53424   53445   53463       9
   53418   53436   53454       3   53415   53400   53418      10   53412   53427
   53445       7   53409   53397   53412       5   53409   53424   53445       7
   53400   53415   53406       5   53400   53418   53436      11   53397   53409
   53424       5   53397   53412   53427       5   53394   53409   53397      13
   53394   53409   53424      13   53391   53382   53394      14   53391   53406
   53415       5   53388   53379   53391       5   53388   53400   53415       5
   53388   53400   53418      10   53385   53382   53391      15   53385   53382
   53394      16   53385   53397   53409      17   53385   53397   53412      17
   53382   53376   53385      18   53382   53385   53397      19   53382   53391
   53406      20   53382   53394   53409      21   53379   53376   53382      22
   53379   53376   53385      23   53379   53388   53400       5   53379   53391
   53382      20   53379   53391   53406       5   53376   53379   53388      24
   53376   53379   53391      24   53376   53382   53385      25   53376   53382
   53391      26   53376   53382   53394      27   53376   53385   53382      28
   53376   53385   53397      29   53730   53733   53745       3   53712   53730
   53733       3   53694   53712   53730       3   53682   53703   53688       5
   53673   53694   53712       3   53670   53688   53703       5   53667   53655
   53670       6   53667   53682   53703       5   53658   53673   53694       3
   53655   53667   53682       7   53655   53670   53688       7   53646   53658
   53673       3   53637   53655   53667       9   53637   53655   53670       9
   53628   53646   53658       3   53619   53637   53655       9   53616   53637
   53619       6   53616   53637   53655       9   53610   53628   53646       3
   53607   53592   53610      10   53604   53619   53637       7   53601   53589
   53604       5   53601   53616   53637       7   53592   53607   53598       5
   53592   53610   53628      11   53589   53601   53616       5   53589   53604
   53619       5   53586   53601   53589      13   53586   53601   53616      13
   53583   53574   53586      14   53583   53598   53607       5   53580   53571
   53583       5   53580   53592   53607       5   53580   53592   53610      10
   53577   53574   53583      15   53577   53574   53586      16   53577   53589
   53601      17   53577   53589   53604      17   53574   53568   53577      18
   53574   53577   53589      19   53574   53583   53598      20   53574   53586
   53601      21   53571   53568   53574      22   53571   53568   53577      23
   53571   53580   53592       5   53571   53583   53574      20   53571   53583
   53598       5   53568   53571   53580      24   53568   53571   53583      24
   53568   53574   53577      25   53568   53574   53583      26   53568   53574
   53586      27   53568   53577   53574      28   53568   53577   53589      29
   53922   53925   53937       3   53904   53922   53925       3   53886   53904
   53922       3   53874   53895   53880       5   53865   53886   53904       3
   53862   53880   53895       5   53859   53847   53862       6   53859   53874
   53895       5   53850   53865   53886       3   53847   53859   53874       7
   53847   53862   53880       7   53838   53850   53865       3   53829   53847
   53859       9   53829   53847   53862       9   53820   53838   53850       3
   53811   53829   53847       9   53808   53829   53811       6   53808   53829
   53847       9   53802   53820   53838       3   53799   53784   53802      10
   53796   53811   53829       7   53793   53781   53796       5   53793   53808
   53829       7   53784   53799   53790       5   53784   53802   53820      11
   53781   53793   53808       5   53781   53796   53811       5   53778   53793
   53781      13   53778   53793   53808      13   53775   53766   53778      14
   53775   53790   53799       5   53772   53763   53775       5   53772   53784
   53799       5   53772   53784   53802      10   53769   53766   53775      15
   53769   53766   53778      16   53769   53781   53793      17   53769   53781
   53796      17   53766   53760   53769      18   53766   53769   53781      19
   53766   53775   53790      20   53766   53778   53793      21   53763   53760
   53766      22   53763   53760   53769      23   53763   53772   53784       5
   53763   53775   53766      20   53763   53775   53790       5   53760   53763
   53772      24   53760   53763   53775      24   53760   53766   53769      25
   53760   53766   53775      26   53760   53766   53778      27   53760   53769
   53766      28   53760   53769   53781      29   54114   54117   54129       3
   54096   54114   54117       3   54078   54096   54114       3   54066   54087
   54072       5   54057   54078   54096       3   54054   54072   54087       5
   54051   54039   54054       6   54051   54066   54087       5   54042   54057
   54078       3   54039   54051   54066       7   54039   54054   54072       7
   54030   54042   54057       3   54021   54039   54051       9   54021   54039
   54054       9   54012   54030   54042       3   54003   54021   54039       9
   54000   54021   54003       6   54000   54021   54039       9   53994   54012
   54030       3   53991   53976   53994      10   53988   54003   54021       7
   53985   53973   53988       5   53985   54000   54021       7   53976   53991
   53982       5   53976   53994   54012      11   53973   53985   54000       5
   53973   53988   54003       5   53970   53985   53973      13   53970   53985
   54000      13   53967   53958   53970      14   53967   53982   53991       5
   53964   53955   53967       5   53964   53976   53991       5   53964   53976
   53994      10   53961   53958   53967      15   53961   53958   53970      16
   53961   53973   53985      17   53961   53973   53988      17   53958   53952
   53961      18   53958   53961   53973      19   53958   53967   53982      20
   53958   53970   53985      21   53955   53952   53958      22   53955   53952
   53961      23   53955   53964   53976       5   53955   53967   53958      20
   53955   53967   53982       5   53952   53955   53964      24   53952   53955
   53967      24   53952   53958   53961      25   53952   53958   53967      26
   53952   53958   53970      27   53952   53961   53958      28   53952   53961
   53973      29   54306   54309   54321       3   54288   54306   54309       3
   54270   54288   54306       3   54258   54279   54264       5   54249   54270
   54288       3   54246   54264   54279       5   54243   54231   54246       6
   54243   54258   54279       5   54234   54249   54270       3   54231   54243
   54258       7   54231   54246   54264       7   54222   54234   54249       3
   54213   54231   54243       9   54213   54231   54246       9   54204   54222
   54234       3   54195   54213   54231       9   54192   54213   54195       6
   54192   54213   54231       9   54186   54204   54222       3   54183   54168
   54186      10   54180   54195   54213       7   54177   54165   54180       5
   54177   54192   54213       7   54168   54183   54174       5   54168   54186
   54204      11   54165   54177   54192       5   54165   54180   54195       5
   54162   54177   54165      13   54162   54177   54192      13   54159   54150
   54162      14   54159   54174   54183       5   54156   54147   54159       5
   54156   54168   54183       5   54156   54168   54186      10   54153   54150
   54159      15   54153   54150   54162      16   54153   54165   54177      17
   54153   54165   54180      17   54150   54144   54153      18   54150   54153
   54165      19   54150   54159   54174      20   54150   54162   54177      21
   54147   54144   54150      22   54147   54144   54153      23   54147   54156
   54168       5   54147   54159   54150      20   54147   54159   54174       5
   54144   54147   54156      24   54144   54147   54159      24   54144   54150
   54153      25   54144   54150   54159      26   54144   54150   54162      27
   54144   54153   54150      28   54144   54153   54165      29   54498   54501
   54513       3   54480   54498   54501       3   54462   54480   54498       3
   54450   54471   54456       5   54441   54462   54480       3   54438   54456
   54471       5   54435   54423   54438       6   54435   54450   54471       5
   54426   54441   54462       3   54423   54435   54450       7   54423   54438
   54456       7   54414   54426   54441       3   54405   54423   54435       9
   54405   54423   54438       9   54396   54414   54426       3   54387   54405
   54423       9   54384   54405   54387       6   54384   54405   54423       9
   54378   54396   54414       3   54375   54360   54378      10   54372   54387
   54405       7   54369   54357   54372       5   54369   54384   54405       7
   54360   54375   54366       5   54360   54378   54396      11   54357   54369
   54384       5   54357   54372   54387       5   54354   54369   54357      13
   54354   54369   54384      13   54351   54342   54354      14   54351   54366
   54375       5   54348   54339   54351       5   54348   54360   54375       5
   54348   54360   54378      10   54345   54342   54351      15   54345   54342
   54354      16   54345   54357   54369      17   54345   54357   54372      17
   54342   54336   54345      18   54342   54345   54357      19   54342   54351
   54366      20   54342   54354   54369      21   54339   54336   54342      22
   54339   54336   54345      23   54339   54348   54360       5   54339   54351
   54342      20   54339   54351   54366       5   54336   54339   54348      24
   54336   54339   54351      24   54336   54342   54345      25   54336   54342
   54351      26   54336   54342   54354      27   54336   54345   54342      28
   54336   54345   54357      29   54690   54693   54705       3   54672   54690
   54693       3   54654   54672   54690       3   54642   54663   54648       5
   54633   54654   54672       3   54630   54648   54663       5   54627   54615
   54630       6   54627   54642   54663       5   54618   54633   54654       3
   54615   54627   54642       7   54615   54630   54648       7   54606   54618
   54633       3   54597   54615   54627       9   54597   54615   54630       9
   54588   54606   54618       3   54579   54597   54615       9   54576   54597
   54579       6   54576   54597   54615       9   54570   54588   54606       3
   54567   54552   54570      10   54564   54579   54597       7   54561   54549
   54564       5   54561   54576   54597       7   54552   54567   54558       5
   54552   54570   54588      11   54549   54561   54576       5   54549   54564
   54579       5   54546   54561   54549      13   54546   54561   54576      13
   54543   54534   54546      14   54543   54558   54567       5   54540   54531
   54543       5   54540   54552   54567       5   54540   54552   54570      10
   54537   54534   54543      15   54537   54534   54546      16   54537   54549
   54561      17   54537   54549   54564      17   54534   54528   54537      18
   54534   54537   54549      19   54534   54543   54558      20   54534   54546
   54561      21   54531   54528   54534      22   54531   54528   54537      23
   54531   54540   54552       5   54531   54543   54534      20   54531   54543
   54558       5   54528   54531   54540      24   54528   54531   54543      24
   54528   54534   54537      25   54528   54534   54543      26   54528   54534
   54546      27   54528   54537   54534      28   54528   54537   54549      29
   54882   54885   54897       3   54864   54882   54885       3   54846   54864
   54882       3   54834   54855   54840       5   54825   54846   54864       3
   54822   54840   54855       5   54819   54807   54822       6   54819   54834
   54855       5   54810   54825   54846       3   54807   54819   54834       7
   54807   54822   54840       7   54798   54810   54825       3   54789   54807
   54819       9   54789   54807   54822       9   54780   54798   54810       3
   54771   54789   54807       9   54768   54789   54771       6   54768   54789
   54807       9   54762   54780   54798       3   54759   54744   54762      10
   54756   54771   54789       7   54753   54741   54756       5   54753   54768
   54789       7   54744   54759   54750       5   54744   54762   54780      11
   54741   54753   54768       5   54741   54756   54771       5   54738   54753
   54741      13   54738   54753   54768      13   54735   54726   54738      14
   54735   54750   54759       5   54732   54723   54735       5   54732   54744
   54759       5   54732   54744   54762      10   54729   54726   54735      15
   54729   54726   54738      16   54729   54741   54753      17   54729   54741
   54756      17   54726   54720   54729      18   54726   54729   54741      19
   54726   54735   54750      20   54726   54738   54753      21   54723   54720
   54726      22   54723   54720   54729      23   54723   54732   54744       5
   54723   54735   54726      20   54723   54735   54750       5   54720   54723
   54732      24   54720   54723   54735      24   54720   54726   54729      25
   54720   54726   54735      26   54720   54726   54738      27   54720   54729
   54726      28   54720   54729   54741      29   55074   55077   55089       3
   55056   55074   55077       3   55038   55056   55074       3   55026   55047
   55032       5   55017   55038   55056       3   55014   55032   55047       5
   55011   54999   55014       6   55011   55026   55047       5   55002   55017
   55038       3   54999   55011   55026       7   54999   55014   55032       7
   54990   55002   55017       3   54981   54999   55011       9   54981   54999
   55014       9   54972   54990   55002       3   54963   54981   54999       9
   54960   54981   54963       6   54960   54981   54999       9   54954   54972
   54990       3   54951   54936   54954      10   54948   54963   54981       7
   54945   54933   54948       5   54945   54960   54981       7   54936   54951
   54942       5   54936   54954   54972      11   54933   54945   54960       5
   54933   54948   54963       5   54930   54945   54933      13   54930   54945
   54960      13   54927   54918   54930      14   54927   54942   54951       5
   54924   54915   54927       5   54924   54936   54951       5   54924   54936
   54954      10   54921   54918   54927      15   54921   54918   54930      16
   54921   54933   54945      17   54921   54933   54948      17   54918   54912
   54921      18   54918   54921   54933      19   54918   54927   54942      20
   54918   54930   54945      21   54915   54912   54918      22   54915   54912
   54921      23   54915   54924   54936       5   54915   54927   54918      20
   54915   54927   54942       5   54912   54915   54924      24   54912   54915
   54927      24   54912   54918   54921      25   54912   54918   54927      26
   54912   54918   54930      27   54912   54921   54918      28   54912   54921
   54933      29   55266   55269   55281       3   55248   55266   55269       3
   55230   55248   55266       3   55218   55239   55224       5   55209   55230
   55248       3   55206   55224   55239       5   55203   55191   55206       6
   55203   55218   55239       5   55194   55209   55230       3   55191   55203
   55218       7   55191   55206   55224       7   55182   55194   55209       3
   55173   55191   55203       9   55173   55191   55206       9   55164   55182
   55194       3   55155   55173   55191       9   55152   55173   55155       6
   55152   55173   55191       9   55146   55164   55182       3   55143   55128
   55146      10   55140   55155   55173       7   55137   55125   55140       5
   55137   55152   55173       7   55128   55143   55134       5   55128   55146
   55164      11   55125   55137   55152       5   55125   55140   55155       5
   55122   55137   55125      13   55122   55137   55152      13   55119   55110
   55122      14   55119   55134   55143       5   55116   55107   55119       5
   55116   55128   55143       5   55116   55128   55146      10   55113   55110
   55119      15   55113   55110   55122      16   55113   55125   55137      17
   55113   55125   55140      17   55110   55104   55113      18   55110   55113
   55125      19   55110   55119   55134      20   55110   55122   55137      21
   55107   55104   55110      22   55107   55104   55113      23   55107   55116
   55128       5   55107   55119   55110      20   55107   55119   55134       5
   55104   55107   55116      24   55104   55107   55119      24   55104   55110
   55113      25   55104   55110   55119      26   55104   55110   55122      27
   55104   55113   55110      28   55104   55113   55125      29
%FLAG DIHEDRALS_INC_HYDROGEN                                                    
%FORMAT(10I8)                                                                   
     180     165     177     183       1     180     165     177     186       1
     180     165     177     189       1     174     165     177     183       1
     174     165     177     186       1     174     165     177     189       1
     171     162     165     174       1     171     162     165     177       2
     171     162     165     180       1     168     162     165     174       1
     168     162     165     177       2     168     162     165     180       1
     162     165     177     183       2     162     165     177     186       2
     162     165     177     189       2     159     144     162     165       2
     159     144     162     168       1     159     144     162     171       1
     156     144     162     165       2     156     144     162     168       1
     156     144     162     171       1     150     126     144     156       1
     150     126     144     159       1     150     126     144     162       2
     147     126     144     156       1     147     126     144     159       1
     147     126     144     162       2     144     162     165     174       2
     144     162     165     180       2     141     120     135     153       4
     138     114     135     153       4     132     105     126     144       2
     132     105     126     147       1     132     105     126     150       1
     129     105     126     144       2     129     105     126     147       1
     129     105     126     150       1     126     144     162     168       2
     126     144     162     171       2     123     102     120     135       4
     123     102     120     141       4     120     135     114     138       4
     117      99     114     135       4     117      99     114     138       4
     114     135     120     141       4     111      90     105     126       2
     111      90     105     129       1     111      90     105     132       1
     108      90     105     126       2     108      90     105     129       1
     108      90     105     132       1     105     126     144     156       2
     105     126     144     159       2     102      87      99     117       4
     102     120     135     153       4      99      87     102     123       4
      99     114     135     153       4      96      78      90     105       2
      96      78      90     108       1      96      78      90     111       1
      93      78      90     105       2      93      78      90     108       1
      93      78      90     111       1      90     105     126     147       2
      90     105     126     150       2      87      99     114     138       4
      87     102     120     141       4      84      60      78      90       2
      84      60      78      93       1      84      60      78      96       1
      81      60      78      90       2      81      60      78      93       1
      81      60      78      96       1      78      90     105     129       2
      78      90     105     132       2      75      51      69      87       4
      72      48      69      87       4      69      87      99     117       4
      69      87     102     123       4      66      42      60      78       2
      66      42      60      81       1      66      42      60      84       1
      63      42      60      78       2      63      42      60      81       1
      63      42      60      84       1      60      78      90     108       2
      60      78      90     111       2      54      36      51      69       4
      54      36      51      75       4      51      69      48      72       4
      48      69      51      75       4      45      30      39      57       4
      42      24      39      57       4      42      60      78      93       2
      42      60      78      96       2      39      24      42      63       7
      39      24      42      66       7      33      21      36      54       4
      27      12      24      39       4      27      12      24      42       4
      24      39      30      45       4      24      42      60      81       8
      24      42      60      84       8      21      33      48      72       4
      21      36      51      75       4      18      33      48      72       4
      15       3      12      27       4      15      30      39      57       4
      12      24      39      57       4      12      24      42      63       7
      12      24      42      66       7       9      21      36      54       4
       6      15      30      45       4       3      15      30      45       4
       0       3      12      27       4     372     357     369     375       1
     372     357     369     378       1     372     357     369     381       1
     366     357     369     375       1     366     357     369     378       1
     366     357     369     381       1     363     354     357     366       1
     363     354     357     369       2     363     354     357     372       1
     360     354     357     366       1     360     354     357     369       2
     360     354     357     372       1     354     357     369     375       2
     354     357     369     378       2     354     357     369     381       2
     351     336     354     357       2     351     336     354     360       1
     351     336     354     363       1     348     336     354     357       2
     348     336     354     360       1     348     336     354     363       1
     342     318     336     348       1     342     318     336     351       1
     342     318     336     354       2     339     318     336     348       1
     339     318     336     351       1     339     318     336     354       2
     336     354     357     366       2     336     354     357     372       2
     333     312     327     345       4     330     306     327     345       4
     324     297     318     336       2     324     297     318     339       1
     324     297     318     342       1     321     297     318     336       2
     321     297     318     339       1     321     297     318     342       1
     318     336     354     360       2     318     336     354     363       2
     315     294     312     327       4     315     294     312     333       4
     312     327     306     330       4     309     291     306     327       4
     309     291     306     330       4     306     327     312     333       4
     303     282     297     318       2     303     282     297     321       1
     303     282     297     324       1     300     282     297     318       2
     300     282     297     321       1     300     282     297     324       1
     297     318     336     348       2     297     318     336     351       2
     294     279     291     309       4     294     312     327     345       4
     291     279     294     315       4     291     306     327     345       4
     288     270     282     297       2     288     270     282     300       1
     288     270     282     303       1     285     270     282     297       2
     285     270     282     300       1     285     270     282     303       1
     282     297     318     339       2     282     297     318     342       2
     279     291     306     330       4     279     294     312     333       4
     276     252     270     282       2     276     252     270     285       1
     276     252     270     288       1     273     252     270     282       2
     273     252     270     285       1     273     252     270     288       1
     270     282     297     321       2     270     282     297     324       2
     267     243     261     279       4     264     240     261     279       4
     261     279     291     309       4     261     279     294     315       4
     258     234     252     270       2     258     234     252     273       1
     258     234     252     276       1     255     234     252     270       2
     255     234     252     273       1     255     234     252     276       1
     252     270     282     300       2     252     270     282     303       2
     246     228     243     261       4     246     228     243     267       4
     243     261     240     264       4     240     261     243     267       4
     237     222     231     249       4     234     216     231     249       4
     234     252     270     285       2     234     252     270     288       2
     231     216     234     255       7     231     216     234     258       7
     225     213     228     246       4     219     204     216     231       4
     219     204     216     234       4     216     231     222     237       4
     216     234     252     273       8     216     234     252     276       8
     213     225     240     264       4     213     228     243     267       4
     210     225     240     264       4     207     195     204     219       4
     207     222     231     249       4     204     216     231     249       4
     204     216     234     255       7     204     216     234     258       7
     201     213     228     246       4     198     207     222     237       4
     195     207     222     237       4     192     195     204     219       4
     564     549     561     567       1     564     549     561     570       1
     564     549     561     573       1     558     549     561     567       1
     558     549     561     570       1     558     549     561     573       1
     555     546     549     558       1     555     546     549     561       2
     555     546     549     564       1     552     546     549     558       1
     552     546     549     561       2     552     546     549     564       1
     546     549     561     567       2     546     549     561     570       2
     546     549     561     573       2     543     528     546     549       2
     543     528     546     552       1     543     528     546     555       1
     540     528     546     549       2     540     528     546     552       1
     540     528     546     555       1     534     510     528     540       1
     534     510     528     543       1     534     510     528     546       2
     531     510     528     540       1     531     510     528     543       1
     531     510     528     546       2     528     546     549     558       2
     528     546     549     564       2     525     504     519     537       4
     522     498     519     537       4     516     489     510     528       2
     516     489     510     531       1     516     489     510     534       1
     513     489     510     528       2     513     489     510     531       1
     513     489     510     534       1     510     528     546     552       2
     510     528     546     555       2     507     486     504     519       4
     507     486     504     525       4     504     519     498     522       4
     501     483     498     519       4     501     483     498     522       4
     498     519     504     525       4     495     474     489     510       2
     495     474     489     513       1     495     474     489     516       1
     492     474     489     510       2     492     474     489     513       1
     492     474     489     516       1     489     510     528     540       2
     489     510     528     543       2     486     471     483     501       4
     486     504     519     537       4     483     471     486     507       4
     483     498     519     537       4     480     462     474     489       2
     480     462     474     492       1     480     462     474     495       1
     477     462     474     489       2     477     462     474     492       1
     477     462     474     495       1     474     489     510     531       2
     474     489     510     534       2     471     483     498     522       4
     471     486     504     525       4     468     444     462     474       2
     468     444     462     477       1     468     444     462     480       1
     465     444     462     474       2     465     444     462     477       1
     465     444     462     480       1     462     474     489     513       2
     462     474     489     516       2     459     435     453     471       4
     456     432     453     471       4     453     471     483     501       4
     453     471     486     507       4     450     426     444     462       2
     450     426     444     465       1     450     426     444     468       1
     447     426     444     462       2     447     426     444     465       1
     447     426     444     468       1     444     462     474     492       2
     444     462     474     495       2     438     420     435     453       4
     438     420     435     459       4     435     453     432     456       4
     432     453     435     459       4     429     414     423     441       4
     426     408     423     441       4     426     444     462     477       2
     426     444     462     480       2     423     408     426     447       7
     423     408     426     450       7     417     405     420     438       4
     411     396     408     423       4     411     396     408     426       4
     408     423     414     429       4     408     426     444     465       8
     408     426     444     468       8     405     417     432     456       4
     405     420     435     459       4     402     417     432     456       4
     399     387     396     411       4     399     414     423     441       4
     396     408     423     441       4     396     408     426     447       7
     396     408     426     450       7     393     405     420     438       4
     390     399     414     429       4     387     399     414     429       4
     384     387     396     411       4     756     741     753     759       1
     756     741     753     762       1     756     741     753     765       1
     750     741     753     759       1     750     741     753     762       1
     750     741     753     765       1     747     738     741     750       1
     747     738     741     753       2     747     738     741     756       1
     744     738     741     750       1     744     738     741     753       2
     744     738     741     756       1     738     741     753     759       2
     738     741     753     762       2     738     741     753     765       2
     735     720     738     741       2     735     720     738     744       1
     735     720     738     747       1     732     720     738     741       2
     732     720     738     744       1     732     720     738     747       1
     726     702     720     732       1     726     702     720     735       1
     726     702     720     738       2     723     702     720     732       1
     723     702     720     735       1     723     702     720     738       2
     720     738     741     750       2     720     738     741     756       2
     717     696     711     729       4     714     690     711     729       4
     708     681     702     720       2     708     681     702     723       1
     708     681     702     726       1     705     681     702     720       2
     705     681     702     723       1     705     681     702     726       1
     702     720     738     744       2     702     720     738     747       2
     699     678     696     711       4     699     678     696     717       4
     696     711     690     714       4     693     675     690     711       4
     693     675     690     714       4     690     711     696     717       4
     687     666     681     702       2     687     666     681     705       1
     687     666     681     708       1     684     666     681     702       2
     684     666     681     705       1     684     666     681     708       1
     681     702     720     732       2     681     702     720     735       2
     678     663     675     693       4     678     696     711     729       4
     675     663     678     699       4     675     690     711     729       4
     672     654     666     681       2     672     654     666     684       1
     672     654     666     687       1     669     654     666     681       2
     669     654     666     684       1     669     654     666     687       1
     666     681     702     723       2     666     681     702     726       2
     663     675     690     714       4     663     678     696     717       4
     660     636     654     666       2     660     636     654     669       1
     660     636     654     672       1     657     636     654     666       2
     657     636     654     669       1     657     636     654     672       1
     654     666     681     705       2     654     666     681     708       2
     651     627     645     663       4     648     624     645     663       4
     645     663     675     693       4     645     663     678     699       4
     642     618     636     654       2     642     618     636     657       1
     642     618     636     660       1     639     618     636     654       2
     639     618     636     657       1     639     618     636     660       1
     636     654     666     684       2     636     654     666     687       2
     630     612     627     645       4     630     612     627     651       4
     627     645     624     648       4     624     645     627     651       4
     621     606     615     633       4     618     600     615     633       4
     618     636     654     669       2     618     636     654     672       2
     615     600     618     639       7     615     600     618     642       7
     609     597     612     630       4     603     588     600     615       4
     603     588     600     618       4     600     615     606     621       4
     600     618     636     657       8     600     618     636     660       8
     597     609     624     648       4     597     612     627     651       4
     594     609     624     648       4     591     579     588     603       4
     591     606     615     633       4     588     600     615     633       4
     588     600     618     639       7     588     600     618     642       7
     585     597     612     630       4     582     591     606     621       4
     579     591     606     621       4     576     579     588     603       4
     948     933     945     951       1     948     933     945     954       1
     948     933     945     957       1     942     933     945     951       1
     942     933     945     954       1     942     933     945     957       1
     939     930     933     942       1     939     930     933     945       2
     939     930     933     948       1     936     930     933     942       1
     936     930     933     945       2     936     930     933     948       1
     930     933     945     951       2     930     933     945     954       2
     930     933     945     957       2     927     912     930     933       2
     927     912     930     936       1     927     912     930     939       1
     924     912     930     933       2     924     912     930     936       1
     924     912     930     939       1     918     894     912     924       1
     918     894     912     927       1     918     894     912     930       2
     915     894     912     924       1     915     894     912     927       1
     915     894     912     930       2     912     930     933     942       2
     912     930     933     948       2     909     888     903     921       4
     906     882     903     921       4     900     873     894     912       2
     900     873     894     915       1     900     873     894     918       1
     897     873     894     912       2     897     873     894     915       1
     897     873     894     918       1     894     912     930     936       2
     894     912     930     939       2     891     870     888     903       4
     891     870     888     909       4     888     903     882     906       4
     885     867     882     903       4     885     867     882     906       4
     882     903     888     909       4     879     858     873     894       2
     879     858     873     897       1     879     858     873     900       1
     876     858     873     894       2     876     858     873     897       1
     876     858     873     900       1     873     894     912     924       2
     873     894     912     927       2     870     855     867     885       4
     870     888     903     921       4     867     855     870     891       4
     867     882     903     921       4     864     846     858     873       2
     864     846     858     876       1     864     846     858     879       1
     861     846     858     873       2     861     846     858     876       1
     861     846     858     879       1     858     873     894     915       2
     858     873     894     918       2     855     867     882     906       4
     855     870     888     909       4     852     828     846     858       2
     852     828     846     861       1     852     828     846     864       1
     849     828     846     858       2     849     828     846     861       1
     849     828     846     864       1     846     858     873     897       2
     846     858     873     900       2     843     819     837     855       4
     840     816     837     855       4     837     855     867     885       4
     837     855     870     891       4     834     810     828     846       2
     834     810     828     849       1     834     810     828     852       1
     831     810     828     846       2     831     810     828     849       1
     831     810     828     852       1     828     846     858     876       2
     828     846     858     879       2     822     804     819     837       4
     822     804     819     843       4     819     837     816     840       4
     816     837     819     843       4     813     798     807     825       4
     810     792     807     825       4     810     828     846     861       2
     810     828     846     864       2     807     792     810     831       7
     807     792     810     834       7     801     789     804     822       4
     795     780     792     807       4     795     780     792     810       4
     792     807     798     813       4     792     810     828     849       8
     792     810     828     852       8     789     801     816     840       4
     789     804     819     843       4     786     801     816     840       4
     783     771     780     795       4     783     798     807     825       4
     780     792     807     825       4     780     792     810     831       7
     780     792     810     834       7     777     789     804     822       4
     774     783     798     813       4     771     783     798     813       4
     768     771     780     795       4    1140    1125    1137    1143       1
    1140    1125    1137    1146       1    1140    1125    1137    1149       1
    1134    1125    1137    1143       1    1134    1125    1137    1146       1
    1134    1125    1137    1149       1    1131    1122    1125    1134       1
    1131    1122    1125    1137       2    1131    1122    1125    1140       1
    1128    1122    1125    1134       1    1128    1122    1125    1137       2
    1128    1122    1125    1140       1    1122    1125    1137    1143       2
    1122    1125    1137    1146       2    1122    1125    1137    1149       2
    1119    1104    1122    1125       2    1119    1104    1122    1128       1
    1119    1104    1122    1131       1    1116    1104    1122    1125       2
    1116    1104    1122    1128       1    1116    1104    1122    1131       1
    1110    1086    1104    1116       1    1110    1086    1104    1119       1
    1110    1086    1104    1122       2    1107    1086    1104    1116       1
    1107    1086    1104    1119       1    1107    1086    1104    1122       2
    1104    1122    1125    1134       2    1104    1122    1125    1140       2
    1101    1080    1095    1113       4    1098    1074    1095    1113       4
    1092    1065    1086    1104       2    1092    1065    1086    1107       1
    1092    1065    1086    1110       1    1089    1065    1086    1104       2
    1089    1065    1086    1107       1    1089    1065    1086    1110       1
    1086    1104    1122    1128       2    1086    1104    1122    1131       2
    1083    1062    1080    1095       4    1083    1062    1080    1101       4
    1080    1095    1074    1098       4    1077    1059    1074    1095       4
    1077    1059    1074    1098       4    1074    1095    1080    1101       4
    1071    1050    1065    1086       2    1071    1050    1065    1089       1
    1071    1050    1065    1092       1    1068    1050    1065    1086       2
    1068    1050    1065    1089       1    1068    1050    1065    1092       1
    1065    1086    1104    1116       2    1065    1086    1104    1119       2
    1062    1047    1059    1077       4    1062    1080    1095    1113       4
    1059    1047    1062    1083       4    1059    1074    1095    1113       4
    1056    1038    1050    1065       2    1056    1038    1050    1068       1
    1056    1038    1050    1071       1    1053    1038    1050    1065       2
    1053    1038    1050    1068       1    1053    1038    1050    1071       1
    1050    1065    1086    1107       2    1050    1065    1086    1110       2
    1047    1059    1074    1098       4    1047    1062    1080    1101       4
    1044    1020    1038    1050       2    1044    1020    1038    1053       1
    1044    1020    1038    1056       1    1041    1020    1038    1050       2
    1041    1020    1038    1053       1    1041    1020    1038    1056       1
    1038    1050    1065    1089       2    1038    1050    1065    1092       2
    1035    1011    1029    1047       4    1032    1008    1029    1047       4
    1029    1047    1059    1077       4    1029    1047    1062    1083       4
    1026    1002    1020    1038       2    1026    1002    1020    1041       1
    1026    1002    1020    1044       1    1023    1002    1020    1038       2
    1023    1002    1020    1041       1    1023    1002    1020    1044       1
    1020    1038    1050    1068       2    1020    1038    1050    1071       2
    1014     996    1011    1029       4    1014     996    1011    1035       4
    1011    1029    1008    1032       4    1008    1029    1011    1035       4
    1005     990     999    1017       4    1002     984     999    1017       4
    1002    1020    1038    1053       2    1002    1020    1038    1056       2
     999     984    1002    1023       7     999     984    1002    1026       7
     993     981     996    1014       4     987     972     984     999       4
     987     972     984    1002       4     984     999     990    1005       4
     984    1002    1020    1041       8     984    1002    1020    1044       8
     981     993    1008    1032       4     981     996    1011    1035       4
     978     993    1008    1032       4     975     963     972     987       4
     975     990     999    1017       4     972     984     999    1017       4
     972     984    1002    1023       7     972     984    1002    1026       7
     969     981     996    1014       4     966     975     990    1005       4
     963     975     990    1005       4     960     963     972     987       4
    1332    1317    1329    1335       1    1332    1317    1329    1338       1
    1332    1317    1329    1341       1    1326    1317    1329    1335       1
    1326    1317    1329    1338       1    1326    1317    1329    1341       1
    1323    1314    1317    1326       1    1323    1314    1317    1329       2
    1323    1314    1317    1332       1    1320    1314    1317    1326       1
    1320    1314    1317    1329       2    1320    1314    1317    1332       1
    1314    1317    1329    1335       2    1314    1317    1329    1338       2
    1314    1317    1329    1341       2    1311    1296    1314    1317       2
    1311    1296    1314    1320       1    1311    1296    1314    1323       1
    1308    1296    1314    1317       2    1308    1296    1314    1320       1
    1308    1296    1314    1323       1    1302    1278    1296    1308       1
    1302    1278    1296    1311       1    1302    1278    1296    1314       2
    1299    1278    1296    1308       1    1299    1278    1296    1311       1
    1299    1278    1296    1314       2    1296    1314    1317    1326       2
    1296    1314    1317    1332       2    1293    1272    1287    1305       4
    1290    1266    1287    1305       4    1284    1257    1278    1296       2
    1284    1257    1278    1299       1    1284    1257    1278    1302       1
    1281    1257    1278    1296       2    1281    1257    1278    1299       1
    1281    1257    1278    1302       1    1278    1296    1314    1320       2
    1278    1296    1314    1323       2    1275    1254    1272    1287       4
    1275    1254    1272    1293       4    1272    1287    1266    1290       4
    1269    1251    1266    1287       4    1269    1251    1266    1290       4
    1266    1287    1272    1293       4    1263    1242    1257    1278       2
    1263    1242    1257    1281       1    1263    1242    1257    1284       1
    1260    1242    1257    1278       2    1260    1242    1257    1281       1
    1260    1242    1257    1284       1    1257    1278    1296    1308       2
    1257    1278    1296    1311       2    1254    1239    1251    1269       4
    1254    1272    1287    1305       4    1251    1239    1254    1275       4
    1251    1266    1287    1305       4    1248    1230    1242    1257       2
    1248    1230    1242    1260       1    1248    1230    1242    1263       1
    1245    1230    1242    1257       2    1245    1230    1242    1260       1
    1245    1230    1242    1263       1    1242    1257    1278    1299       2
    1242    1257    1278    1302       2    1239    1251    1266    1290       4
    1239    1254    1272    1293       4    1236    1212    1230    1242       2
    1236    1212    1230    1245       1    1236    1212    1230    1248       1
    1233    1212    1230    1242       2    1233    1212    1230    1245       1
    1233    1212    1230    1248       1    1230    1242    1257    1281       2
    1230    1242    1257    1284       2    1227    1203    1221    1239       4
    1224    1200    1221    1239       4    1221    1239    1251    1269       4
    1221    1239    1254    1275       4    1218    1194    1212    1230       2
    1218    1194    1212    1233       1    1218    1194    1212    1236       1
    1215    1194    1212    1230       2    1215    1194    1212    1233       1
    1215    1194    1212    1236       1    1212    1230    1242    1260       2
    1212    1230    1242    1263       2    1206    1188    1203    1221       4
    1206    1188    1203    1227       4    1203    1221    1200    1224       4
    1200    1221    1203    1227       4    1197    1182    1191    1209       4
    1194    1176    1191    1209       4    1194    1212    1230    1245       2
    1194    1212    1230    1248       2    1191    1176    1194    1215       7
    1191    1176    1194    1218       7    1185    1173    1188    1206       4
    1179    1164    1176    1191       4    1179    1164    1176    1194       4
    1176    1191    1182    1197       4    1176    1194    1212    1233       8
    1176    1194    1212    1236       8    1173    1185    1200    1224       4
    1173    1188    1203    1227       4    1170    1185    1200    1224       4
    1167    1155    1164    1179       4    1167    1182    1191    1209       4
    1164    1176    1191    1209       4    1164    1176    1194    1215       7
    1164    1176    1194    1218       7    1161    1173    1188    1206       4
    1158    1167    1182    1197       4    1155    1167    1182    1197       4
    1152    1155    1164    1179       4    1524    1509    1521    1527       1
    1524    1509    1521    1530       1    1524    1509    1521    1533       1
    1518    1509    1521    1527       1    1518    1509    1521    1530       1
    1518    1509    1521    1533       1    1515    1506    1509    1518       1
    1515    1506    1509    1521       2    1515    1506    1509    1524       1
    1512    1506    1509    1518       1    1512    1506    1509    1521       2
    1512    1506    1509    1524       1    1506    1509    1521    1527       2
    1506    1509    1521    1530       2    1506    1509    1521    1533       2
    1503    1488    1506    1509       2    1503    1488    1506    1512       1
    1503    1488    1506    1515       1    1500    1488    1506    1509       2
    1500    1488    1506    1512       1    1500    1488    1506    1515       1
    1494    1470    1488    1500       1    1494    1470    1488    1503       1
    1494    1470    1488    1506       2    1491    1470    1488    1500       1
    1491    1470    1488    1503       1    1491    1470    1488    1506       2
    1488    1506    1509    1518       2    1488    1506    1509    1524       2
    1485    1464    1479    1497       4    1482    1458    1479    1497       4
    1476    1449    1470    1488       2    1476    1449    1470    1491       1
    1476    1449    1470    1494       1    1473    1449    1470    1488       2
    1473    1449    1470    1491       1    1473    1449    1470    1494       1
    1470    1488    1506    1512       2    1470    1488    1506    1515       2
    1467    1446    1464    1479       4    1467    1446    1464    1485       4
    1464    1479    1458    1482       4    1461    1443    1458    1479       4
    1461    1443    1458    1482       4    1458    1479    1464    1485       4
    1455    1434    1449    1470       2    1455    1434    1449    1473       1
    1455    1434    1449    1476       1    1452    1434    1449    1470       2
    1452    1434    1449    1473       1    1452    1434    1449    1476       1
    1449    1470    1488    1500       2    1449    1470    1488    1503       2
    1446    1431    1443    1461       4    1446    1464    1479    1497       4
    1443    1431    1446    1467       4    1443    1458    1479    1497       4
    1440    1422    1434    1449       2    1440    1422    1434    1452       1
    1440    1422    1434    1455       1    1437    1422    1434    1449       2
    1437    1422    1434    1452       1    1437    1422    1434    1455       1
    1434    1449    1470    1491       2    1434    1449    1470    1494       2
    1431    1443    1458    1482       4    1431    1446    1464    1485       4
    1428    1404    1422    1434       2    1428    1404    1422    1437       1
    1428    1404    1422    1440       1    1425    1404    1422    1434       2
    1425    1404    1422    1437       1    1425    1404    1422    1440       1
    1422    1434    1449    1473       2    1422    1434    1449    1476       2
    1419    1395    1413    1431       4    1416    1392    1413    1431       4
    1413    1431    1443    1461       4    1413    1431    1446    1467       4
    1410    1386    1404    1422       2    1410    1386    1404    1425       1
    1410    1386    1404    1428       1    1407    1386    1404    1422       2
    1407    1386    1404    1425       1    1407    1386    1404    1428       1
    1404    1422    1434    1452       2    1404    1422    1434    1455       2
    1398    1380    1395    1413       4    1398    1380    1395    1419       4
    1395    1413    1392    1416       4    1392    1413    1395    1419       4
    1389    1374    1383    1401       4    1386    1368    1383    1401       4
    1386    1404    1422    1437       2    1386    1404    1422    1440       2
    1383    1368    1386    1407       7    1383    1368    1386    1410       7
    1377    1365    1380    1398       4    1371    1356    1368    1383       4
    1371    1356    1368    1386       4    1368    1383    1374    1389       4
    1368    1386    1404    1425       8    1368    1386    1404    1428       8
    1365    1377    1392    1416       4    1365    1380    1395    1419       4
    1362    1377    1392    1416       4    1359    1347    1356    1371       4
    1359    1374    1383    1401       4    1356    1368    1383    1401       4
    1356    1368    1386    1407       7    1356    1368    1386    1410       7
    1353    1365    1380    1398       4    1350    1359    1374    1389       4
    1347    1359    1374    1389       4    1344    1347    1356    1371       4
    1716    1701    1713    1719       1    1716    1701    1713    1722       1
    1716    1701    1713    1725       1    1710    1701    1713    1719       1
    1710    1701    1713    1722       1    1710    1701    1713    1725       1
    1707    1698    1701    1710       1    1707    1698    1701    1713       2
    1707    1698    1701    1716       1    1704    1698    1701    1710       1
    1704    1698    1701    1713       2    1704    1698    1701    1716       1
    1698    1701    1713    1719       2    1698    1701    1713    1722       2
    1698    1701    1713    1725       2    1695    1680    1698    1701       2
    1695    1680    1698    1704       1    1695    1680    1698    1707       1
    1692    1680    1698    1701       2    1692    1680    1698    1704       1
    1692    1680    1698    1707       1    1686    1662    1680    1692       1
    1686    1662    1680    1695       1    1686    1662    1680    1698       2
    1683    1662    1680    1692       1    1683    1662    1680    1695       1
    1683    1662    1680    1698       2    1680    1698    1701    1710       2
    1680    1698    1701    1716       2    1677    1656    1671    1689       4
    1674    1650    1671    1689       4    1668    1641    1662    1680       2
    1668    1641    1662    1683       1    1668    1641    1662    1686       1
    1665    1641    1662    1680       2    1665    1641    1662    1683       1
    1665    1641    1662    1686       1    1662    1680    1698    1704       2
    1662    1680    1698    1707       2    1659    1638    1656    1671       4
    1659    1638    1656    1677       4    1656    1671    1650    1674       4
    1653    1635    1650    1671       4    1653    1635    1650    1674       4
    1650    1671    1656    1677       4    1647    1626    1641    1662       2
    1647    1626    1641    1665       1    1647    1626    1641    1668       1
    1644    1626    1641    1662       2    1644    1626    1641    1665       1
    1644    1626    1641    1668       1    1641    1662    1680    1692       2
    1641    1662    1680    1695       2    1638    1623    1635    1653       4
    1638    1656    1671    1689       4    1635    1623    1638    1659       4
    1635    1650    1671    1689       4    1632    1614    1626    1641       2
    1632    1614    1626    1644       1    1632    1614    1626    1647       1
    1629    1614    1626    1641       2    1629    1614    1626    1644       1
    1629    1614    1626    1647       1    1626    1641    1662    1683       2
    1626    1641    1662    1686       2    1623    1635    1650    1674       4
    1623    1638    1656    1677       4    1620    1596    1614    1626       2
    1620    1596    1614    1629       1    1620    1596    1614    1632       1
    1617    1596    1614    1626       2    1617    1596    1614    1629       1
    1617    1596    1614    1632       1    1614    1626    1641    1665       2
    1614    1626    1641    1668       2    1611    1587    1605    1623       4
    1608    1584    1605    1623       4    1605    1623    1635    1653       4
    1605    1623    1638    1659       4    1602    1578    1596    1614       2
    1602    1578    1596    1617       1    1602    1578    1596    1620       1
    1599    1578    1596    1614       2    1599    1578    1596    1617       1
    1599    1578    1596    1620       1    1596    1614    1626    1644       2
    1596    1614    1626    1647       2    1590    1572    1587    1605       4
    1590    1572    1587    1611       4    1587    1605    1584    1608       4
    1584    1605    1587    1611       4    1581    1566    1575    1593       4
    1578    1560    1575    1593       4    1578    1596    1614    1629       2
    1578    1596    1614    1632       2    1575    1560    1578    1599       7
    1575    1560    1578    1602       7    1569    1557    1572    1590       4
    1563    1548    1560    1575       4    1563    1548    1560    1578       4
    1560    1575    1566    1581       4    1560    1578    1596    1617       8
    1560    1578    1596    1620       8    1557    1569    1584    1608       4
    1557    1572    1587    1611       4    1554    1569    1584    1608       4
    1551    1539    1548    1563       4    1551    1566    1575    1593       4
    1548    1560    1575    1593       4    1548    1560    1578    1599       7
    1548    1560    1578    1602       7    1545    1557    1572    1590       4
    1542    1551    1566    1581       4    1539    1551    1566    1581       4
    1536    1539    1548    1563       4    1908    1893    1905    1911       1
    1908    1893    1905    1914       1    1908    1893    1905    1917       1
    1902    1893    1905    1911       1    1902    1893    1905    1914       1
    1902    1893    1905    1917       1    1899    1890    1893    1902       1
    1899    1890    1893    1905       2    1899    1890    1893    1908       1
    1896    1890    1893    1902       1    1896    1890    1893    1905       2
    1896    1890    1893    1908       1    1890    1893    1905    1911       2
    1890    1893    1905    1914       2    1890    1893    1905    1917       2
    1887    1872    1890    1893       2    1887    1872    1890    1896       1
    1887    1872    1890    1899       1    1884    1872    1890    1893       2
    1884    1872    1890    1896       1    1884    1872    1890    1899       1
    1878    1854    1872    1884       1    1878    1854    1872    1887       1
    1878    1854    1872    1890       2    1875    1854    1872    1884       1
    1875    1854    1872    1887       1    1875    1854    1872    1890       2
    1872    1890    1893    1902       2    1872    1890    1893    1908       2
    1869    1848    1863    1881       4    1866    1842    1863    1881       4
    1860    1833    1854    1872       2    1860    1833    1854    1875       1
    1860    1833    1854    1878       1    1857    1833    1854    1872       2
    1857    1833    1854    1875       1    1857    1833    1854    1878       1
    1854    1872    1890    1896       2    1854    1872    1890    1899       2
    1851    1830    1848    1863       4    1851    1830    1848    1869       4
    1848    1863    1842    1866       4    1845    1827    1842    1863       4
    1845    1827    1842    1866       4    1842    1863    1848    1869       4
    1839    1818    1833    1854       2    1839    1818    1833    1857       1
    1839    1818    1833    1860       1    1836    1818    1833    1854       2
    1836    1818    1833    1857       1    1836    1818    1833    1860       1
    1833    1854    1872    1884       2    1833    1854    1872    1887       2
    1830    1815    1827    1845       4    1830    1848    1863    1881       4
    1827    1815    1830    1851       4    1827    1842    1863    1881       4
    1824    1806    1818    1833       2    1824    1806    1818    1836       1
    1824    1806    1818    1839       1    1821    1806    1818    1833       2
    1821    1806    1818    1836       1    1821    1806    1818    1839       1
    1818    1833    1854    1875       2    1818    1833    1854    1878       2
    1815    1827    1842    1866       4    1815    1830    1848    1869       4
    1812    1788    1806    1818       2    1812    1788    1806    1821       1
    1812    1788    1806    1824       1    1809    1788    1806    1818       2
    1809    1788    1806    1821       1    1809    1788    1806    1824       1
    1806    1818    1833    1857       2    1806    1818    1833    1860       2
    1803    1779    1797    1815       4    1800    1776    1797    1815       4
    1797    1815    1827    1845       4    1797    1815    1830    1851       4
    1794    1770    1788    1806       2    1794    1770    1788    1809       1
    1794    1770    1788    1812       1    1791    1770    1788    1806       2
    1791    1770    1788    1809       1    1791    1770    1788    1812       1
    1788    1806    1818    1836       2    1788    1806    1818    1839       2
    1782    1764    1779    1797       4    1782    1764    1779    1803       4
    1779    1797    1776    1800       4    1776    1797    1779    1803       4
    1773    1758    1767    1785       4    1770    1752    1767    1785       4
    1770    1788    1806    1821       2    1770    1788    1806    1824       2
    1767    1752    1770    1791       7    1767    1752    1770    1794       7
    1761    1749    1764    1782       4    1755    1740    1752    1767       4
    1755    1740    1752    1770       4    1752    1767    1758    1773       4
    1752    1770    1788    1809       8    1752    1770    1788    1812       8
    1749    1761    1776    1800       4    1749    1764    1779    1803       4
    1746    1761    1776    1800       4    1743    1731    1740    1755       4
    1743    1758    1767    1785       4    1740    1752    1767    1785       4
    1740    1752    1770    1791       7    1740    1752    1770    1794       7
    1737    1749    1764    1782       4    1734    1743    1758    1773       4
    1731    1743    1758    1773       4    1728    1731    1740    1755       4
    2100    2085    2097    2103       1    2100    2085    2097    2106       1
    2100    2085    2097    2109       1    2094    2085    2097    2103       1
    2094    2085    2097    2106       1    2094    2085    2097    2109       1
    2091    2082    2085    2094       1    2091    2082    2085    2097       2
    2091    2082    2085    2100       1    2088    2082    2085    2094       1
    2088    2082    2085    2097       2    2088    2082    2085    2100       1
    2082    2085    2097    2103       2    2082    2085    2097    2106       2
    2082    2085    2097    2109       2    2079    2064    2082    2085       2
    2079    2064    2082    2088       1    2079    2064    2082    2091       1
    2076    2064    2082    2085       2    2076    2064    2082    2088       1
    2076    2064    2082    2091       1    2070    2046    2064    2076       1
    2070    2046    2064    2079       1    2070    2046    2064    2082       2
    2067    2046    2064    2076       1    2067    2046    2064    2079       1
    2067    2046    2064    2082       2    2064    2082    2085    2094       2
    2064    2082    2085    2100       2    2061    2040    2055    2073       4
    2058    2034    2055    2073       4    2052    2025    2046    2064       2
    2052    2025    2046    2067       1    2052    2025    2046    2070       1
    2049    2025    2046    2064       2    2049    2025    2046    2067       1
    2049    2025    2046    2070       1    2046    2064    2082    2088       2
    2046    2064    2082    2091       2    2043    2022    2040    2055       4
    2043    2022    2040    2061       4    2040    2055    2034    2058       4
    2037    2019    2034    2055       4    2037    2019    2034    2058       4
    2034    2055    2040    2061       4    2031    2010    2025    2046       2
    2031    2010    2025    2049       1    2031    2010    2025    2052       1
    2028    2010    2025    2046       2    2028    2010    2025    2049       1
    2028    2010    2025    2052       1    2025    2046    2064    2076       2
    2025    2046    2064    2079       2    2022    2007    2019    2037       4
    2022    2040    2055    2073       4    2019    2007    2022    2043       4
    2019    2034    2055    2073       4    2016    1998    2010    2025       2
    2016    1998    2010    2028       1    2016    1998    2010    2031       1
    2013    1998    2010    2025       2    2013    1998    2010    2028       1
    2013    1998    2010    2031       1    2010    2025    2046    2067       2
    2010    2025    2046    2070       2    2007    2019    2034    2058       4
    2007    2022    2040    2061       4    2004    1980    1998    2010       2
    2004    1980    1998    2013       1    2004    1980    1998    2016       1
    2001    1980    1998    2010       2    2001    1980    1998    2013       1
    2001    1980    1998    2016       1    1998    2010    2025    2049       2
    1998    2010    2025    2052       2    1995    1971    1989    2007       4
    1992    1968    1989    2007       4    1989    2007    2019    2037       4
    1989    2007    2022    2043       4    1986    1962    1980    1998       2
    1986    1962    1980    2001       1    1986    1962    1980    2004       1
    1983    1962    1980    1998       2    1983    1962    1980    2001       1
    1983    1962    1980    2004       1    1980    1998    2010    2028       2
    1980    1998    2010    2031       2    1974    1956    1971    1989       4
    1974    1956    1971    1995       4    1971    1989    1968    1992       4
    1968    1989    1971    1995       4    1965    1950    1959    1977       4
    1962    1944    1959    1977       4    1962    1980    1998    2013       2
    1962    1980    1998    2016       2    1959    1944    1962    1983       7
    1959    1944    1962    1986       7    1953    1941    1956    1974       4
    1947    1932    1944    1959       4    1947    1932    1944    1962       4
    1944    1959    1950    1965       4    1944    1962    1980    2001       8
    1944    1962    1980    2004       8    1941    1953    1968    1992       4
    1941    1956    1971    1995       4    1938    1953    1968    1992       4
    1935    1923    1932    1947       4    1935    1950    1959    1977       4
    1932    1944    1959    1977       4    1932    1944    1962    1983       7
    1932    1944    1962    1986       7    1929    1941    1956    1974       4
    1926    1935    1950    1965       4    1923    1935    1950    1965       4
    1920    1923    1932    1947       4    2292    2277    2289    2295       1
    2292    2277    2289    2298       1    2292    2277    2289    2301       1
    2286    2277    2289    2295       1    2286    2277    2289    2298       1
    2286    2277    2289    2301       1    2283    2274    2277    2286       1
    2283    2274    2277    2289       2    2283    2274    2277    2292       1
    2280    2274    2277    2286       1    2280    2274    2277    2289       2
    2280    2274    2277    2292       1    2274    2277    2289    2295       2
    2274    2277    2289    2298       2    2274    2277    2289    2301       2
    2271    2256    2274    2277       2    2271    2256    2274    2280       1
    2271    2256    2274    2283       1    2268    2256    2274    2277       2
    2268    2256    2274    2280       1    2268    2256    2274    2283       1
    2262    2238    2256    2268       1    2262    2238    2256    2271       1
    2262    2238    2256    2274       2    2259    2238    2256    2268       1
    2259    2238    2256    2271       1    2259    2238    2256    2274       2
    2256    2274    2277    2286       2    2256    2274    2277    2292       2
    2253    2232    2247    2265       4    2250    2226    2247    2265       4
    2244    2217    2238    2256       2    2244    2217    2238    2259       1
    2244    2217    2238    2262       1    2241    2217    2238    2256       2
    2241    2217    2238    2259       1    2241    2217    2238    2262       1
    2238    2256    2274    2280       2    2238    2256    2274    2283       2
    2235    2214    2232    2247       4    2235    2214    2232    2253       4
    2232    2247    2226    2250       4    2229    2211    2226    2247       4
    2229    2211    2226    2250       4    2226    2247    2232    2253       4
    2223    2202    2217    2238       2    2223    2202    2217    2241       1
    2223    2202    2217    2244       1    2220    2202    2217    2238       2
    2220    2202    2217    2241       1    2220    2202    2217    2244       1
    2217    2238    2256    2268       2    2217    2238    2256    2271       2
    2214    2199    2211    2229       4    2214    2232    2247    2265       4
    2211    2199    2214    2235       4    2211    2226    2247    2265       4
    2208    2190    2202    2217       2    2208    2190    2202    2220       1
    2208    2190    2202    2223       1    2205    2190    2202    2217       2
    2205    2190    2202    2220       1    2205    2190    2202    2223       1
    2202    2217    2238    2259       2    2202    2217    2238    2262       2
    2199    2211    2226    2250       4    2199    2214    2232    2253       4
    2196    2172    2190    2202       2    2196    2172    2190    2205       1
    2196    2172    2190    2208       1    2193    2172    2190    2202       2
    2193    2172    2190    2205       1    2193    2172    2190    2208       1
    2190    2202    2217    2241       2    2190    2202    2217    2244       2
    2187    2163    2181    2199       4    2184    2160    2181    2199       4
    2181    2199    2211    2229       4    2181    2199    2214    2235       4
    2178    2154    2172    2190       2    2178    2154    2172    2193       1
    2178    2154    2172    2196       1    2175    2154    2172    2190       2
    2175    2154    2172    2193       1    2175    2154    2172    2196       1
    2172    2190    2202    2220       2    2172    2190    2202    2223       2
    2166    2148    2163    2181       4    2166    2148    2163    2187       4
    2163    2181    2160    2184       4    2160    2181    2163    2187       4
    2157    2142    2151    2169       4    2154    2136    2151    2169       4
    2154    2172    2190    2205       2    2154    2172    2190    2208       2
    2151    2136    2154    2175       7    2151    2136    2154    2178       7
    2145    2133    2148    2166       4    2139    2124    2136    2151       4
    2139    2124    2136    2154       4    2136    2151    2142    2157       4
    2136    2154    2172    2193       8    2136    2154    2172    2196       8
    2133    2145    2160    2184       4    2133    2148    2163    2187       4
    2130    2145    2160    2184       4    2127    2115    2124    2139       4
    2127    2142    2151    2169       4    2124    2136    2151    2169       4
    2124    2136    2154    2175       7    2124    2136    2154    2178       7
    2121    2133    2148    2166       4    2118    2127    2142    2157       4
    2115    2127    2142    2157       4    2112    2115    2124    2139       4
    2484    2469    2481    2487       1    2484    2469    2481    2490       1
    2484    2469    2481    2493       1    2478    2469    2481    2487       1
    2478    2469    2481    2490       1    2478    2469    2481    2493       1
    2475    2466    2469    2478       1    2475    2466    2469    2481       2
    2475    2466    2469    2484       1    2472    2466    2469    2478       1
    2472    2466    2469    2481       2    2472    2466    2469    2484       1
    2466    2469    2481    2487       2    2466    2469    2481    2490       2
    2466    2469    2481    2493       2    2463    2448    2466    2469       2
    2463    2448    2466    2472       1    2463    2448    2466    2475       1
    2460    2448    2466    2469       2    2460    2448    2466    2472       1
    2460    2448    2466    2475       1    2454    2430    2448    2460       1
    2454    2430    2448    2463       1    2454    2430    2448    2466       2
    2451    2430    2448    2460       1    2451    2430    2448    2463       1
    2451    2430    2448    2466       2    2448    2466    2469    2478       2
    2448    2466    2469    2484       2    2445    2424    2439    2457       4
    2442    2418    2439    2457       4    2436    2409    2430    2448       2
    2436    2409    2430    2451       1    2436    2409    2430    2454       1
    2433    2409    2430    2448       2    2433    2409    2430    2451       1
    2433    2409    2430    2454       1    2430    2448    2466    2472       2
    2430    2448    2466    2475       2    2427    2406    2424    2439       4
    2427    2406    2424    2445       4    2424    2439    2418    2442       4
    2421    2403    2418    2439       4    2421    2403    2418    2442       4
    2418    2439    2424    2445       4    2415    2394    2409    2430       2
    2415    2394    2409    2433       1    2415    2394    2409    2436       1
    2412    2394    2409    2430       2    2412    2394    2409    2433       1
    2412    2394    2409    2436       1    2409    2430    2448    2460       2
    2409    2430    2448    2463       2    2406    2391    2403    2421       4
    2406    2424    2439    2457       4    2403    2391    2406    2427       4
    2403    2418    2439    2457       4    2400    2382    2394    2409       2
    2400    2382    2394    2412       1    2400    2382    2394    2415       1
    2397    2382    2394    2409       2    2397    2382    2394    2412       1
    2397    2382    2394    2415       1    2394    2409    2430    2451       2
    2394    2409    2430    2454       2    2391    2403    2418    2442       4
    2391    2406    2424    2445       4    2388    2364    2382    2394       2
    2388    2364    2382    2397       1    2388    2364    2382    2400       1
    2385    2364    2382    2394       2    2385    2364    2382    2397       1
    2385    2364    2382    2400       1    2382    2394    2409    2433       2
    2382    2394    2409    2436       2    2379    2355    2373    2391       4
    2376    2352    2373    2391       4    2373    2391    2403    2421       4
    2373    2391    2406    2427       4    2370    2346    2364    2382       2
    2370    2346    2364    2385       1    2370    2346    2364    2388       1
    2367    2346    2364    2382       2    2367    2346    2364    2385       1
    2367    2346    2364    2388       1    2364    2382    2394    2412       2
    2364    2382    2394    2415       2    2358    2340    2355    2373       4
    2358    2340    2355    2379       4    2355    2373    2352    2376       4
    2352    2373    2355    2379       4    2349    2334    2343    2361       4
    2346    2328    2343    2361       4    2346    2364    2382    2397       2
    2346    2364    2382    2400       2    2343    2328    2346    2367       7
    2343    2328    2346    2370       7    2337    2325    2340    2358       4
    2331    2316    2328    2343       4    2331    2316    2328    2346       4
    2328    2343    2334    2349       4    2328    2346    2364    2385       8
    2328    2346    2364    2388       8    2325    2337    2352    2376       4
    2325    2340    2355    2379       4    2322    2337    2352    2376       4
    2319    2307    2316    2331       4    2319    2334    2343    2361       4
    2316    2328    2343    2361       4    2316    2328    2346    2367       7
    2316    2328    2346    2370       7    2313    2325    2340    2358       4
    2310    2319    2334    2349       4    2307    2319    2334    2349       4
    2304    2307    2316    2331       4    2676    2661    2673    2679       1
    2676    2661    2673    2682       1    2676    2661    2673    2685       1
    2670    2661    2673    2679       1    2670    2661    2673    2682       1
    2670    2661    2673    2685       1    2667    2658    2661    2670       1
    2667    2658    2661    2673       2    2667    2658    2661    2676       1
    2664    2658    2661    2670       1    2664    2658    2661    2673       2
    2664    2658    2661    2676       1    2658    2661    2673    2679       2
    2658    2661    2673    2682       2    2658    2661    2673    2685       2
    2655    2640    2658    2661       2    2655    2640    2658    2664       1
    2655    2640    2658    2667       1    2652    2640    2658    2661       2
    2652    2640    2658    2664       1    2652    2640    2658    2667       1
    2646    2622    2640    2652       1    2646    2622    2640    2655       1
    2646    2622    2640    2658       2    2643    2622    2640    2652       1
    2643    2622    2640    2655       1    2643    2622    2640    2658       2
    2640    2658    2661    2670       2    2640    2658    2661    2676       2
    2637    2616    2631    2649       4    2634    2610    2631    2649       4
    2628    2601    2622    2640       2    2628    2601    2622    2643       1
    2628    2601    2622    2646       1    2625    2601    2622    2640       2
    2625    2601    2622    2643       1    2625    2601    2622    2646       1
    2622    2640    2658    2664       2    2622    2640    2658    2667       2
    2619    2598    2616    2631       4    2619    2598    2616    2637       4
    2616    2631    2610    2634       4    2613    2595    2610    2631       4
    2613    2595    2610    2634       4    2610    2631    2616    2637       4
    2607    2586    2601    2622       2    2607    2586    2601    2625       1
    2607    2586    2601    2628       1    2604    2586    2601    2622       2
    2604    2586    2601    2625       1    2604    2586    2601    2628       1
    2601    2622    2640    2652       2    2601    2622    2640    2655       2
    2598    2583    2595    2613       4    2598    2616    2631    2649       4
    2595    2583    2598    2619       4    2595    2610    2631    2649       4
    2592    2574    2586    2601       2    2592    2574    2586    2604       1
    2592    2574    2586    2607       1    2589    2574    2586    2601       2
    2589    2574    2586    2604       1    2589    2574    2586    2607       1
    2586    2601    2622    2643       2    2586    2601    2622    2646       2
    2583    2595    2610    2634       4    2583    2598    2616    2637       4
    2580    2556    2574    2586       2    2580    2556    2574    2589       1
    2580    2556    2574    2592       1    2577    2556    2574    2586       2
    2577    2556    2574    2589       1    2577    2556    2574    2592       1
    2574    2586    2601    2625       2    2574    2586    2601    2628       2
    2571    2547    2565    2583       4    2568    2544    2565    2583       4
    2565    2583    2595    2613       4    2565    2583    2598    2619       4
    2562    2538    2556    2574       2    2562    2538    2556    2577       1
    2562    2538    2556    2580       1    2559    2538    2556    2574       2
    2559    2538    2556    2577       1    2559    2538    2556    2580       1
    2556    2574    2586    2604       2    2556    2574    2586    2607       2
    2550    2532    2547    2565       4    2550    2532    2547    2571       4
    2547    2565    2544    2568       4    2544    2565    2547    2571       4
    2541    2526    2535    2553       4    2538    2520    2535    2553       4
    2538    2556    2574    2589       2    2538    2556    2574    2592       2
    2535    2520    2538    2559       7    2535    2520    2538    2562       7
    2529    2517    2532    2550       4    2523    2508    2520    2535       4
    2523    2508    2520    2538       4    2520    2535    2526    2541       4
    2520    2538    2556    2577       8    2520    2538    2556    2580       8
    2517    2529    2544    2568       4    2517    2532    2547    2571       4
    2514    2529    2544    2568       4    2511    2499    2508    2523       4
    2511    2526    2535    2553       4    2508    2520    2535    2553       4
    2508    2520    2538    2559       7    2508    2520    2538    2562       7
    2505    2517    2532    2550       4    2502    2511    2526    2541       4
    2499    2511    2526    2541       4    2496    2499    2508    2523       4
    2868    2853    2865    2871       1    2868    2853    2865    2874       1
    2868    2853    2865    2877       1    2862    2853    2865    2871       1
    2862    2853    2865    2874       1    2862    2853    2865    2877       1
    2859    2850    2853    2862       1    2859    2850    2853    2865       2
    2859    2850    2853    2868       1    2856    2850    2853    2862       1
    2856    2850    2853    2865       2    2856    2850    2853    2868       1
    2850    2853    2865    2871       2    2850    2853    2865    2874       2
    2850    2853    2865    2877       2    2847    2832    2850    2853       2
    2847    2832    2850    2856       1    2847    2832    2850    2859       1
    2844    2832    2850    2853       2    2844    2832    2850    2856       1
    2844    2832    2850    2859       1    2838    2814    2832    2844       1
    2838    2814    2832    2847       1    2838    2814    2832    2850       2
    2835    2814    2832    2844       1    2835    2814    2832    2847       1
    2835    2814    2832    2850       2    2832    2850    2853    2862       2
    2832    2850    2853    2868       2    2829    2808    2823    2841       4
    2826    2802    2823    2841       4    2820    2793    2814    2832       2
    2820    2793    2814    2835       1    2820    2793    2814    2838       1
    2817    2793    2814    2832       2    2817    2793    2814    2835       1
    2817    2793    2814    2838       1    2814    2832    2850    2856       2
    2814    2832    2850    2859       2    2811    2790    2808    2823       4
    2811    2790    2808    2829       4    2808    2823    2802    2826       4
    2805    2787    2802    2823       4    2805    2787    2802    2826       4
    2802    2823    2808    2829       4    2799    2778    2793    2814       2
    2799    2778    2793    2817       1    2799    2778    2793    2820       1
    2796    2778    2793    2814       2    2796    2778    2793    2817       1
    2796    2778    2793    2820       1    2793    2814    2832    2844       2
    2793    2814    2832    2847       2    2790    2775    2787    2805       4
    2790    2808    2823    2841       4    2787    2775    2790    2811       4
    2787    2802    2823    2841       4    2784    2766    2778    2793       2
    2784    2766    2778    2796       1    2784    2766    2778    2799       1
    2781    2766    2778    2793       2    2781    2766    2778    2796       1
    2781    2766    2778    2799       1    2778    2793    2814    2835       2
    2778    2793    2814    2838       2    2775    2787    2802    2826       4
    2775    2790    2808    2829       4    2772    2748    2766    2778       2
    2772    2748    2766    2781       1    2772    2748    2766    2784       1
    2769    2748    2766    2778       2    2769    2748    2766    2781       1
    2769    2748    2766    2784       1    2766    2778    2793    2817       2
    2766    2778    2793    2820       2    2763    2739    2757    2775       4
    2760    2736    2757    2775       4    2757    2775    2787    2805       4
    2757    2775    2790    2811       4    2754    2730    2748    2766       2
    2754    2730    2748    2769       1    2754    2730    2748    2772       1
    2751    2730    2748    2766       2    2751    2730    2748    2769       1
    2751    2730    2748    2772       1    2748    2766    2778    2796       2
    2748    2766    2778    2799       2    2742    2724    2739    2757       4
    2742    2724    2739    2763       4    2739    2757    2736    2760       4
    2736    2757    2739    2763       4    2733    2718    2727    2745       4
    2730    2712    2727    2745       4    2730    2748    2766    2781       2
    2730    2748    2766    2784       2    2727    2712    2730    2751       7
    2727    2712    2730    2754       7    2721    2709    2724    2742       4
    2715    2700    2712    2727       4    2715    2700    2712    2730       4
    2712    2727    2718    2733       4    2712    2730    2748    2769       8
    2712    2730    2748    2772       8    2709    2721    2736    2760       4
    2709    2724    2739    2763       4    2706    2721    2736    2760       4
    2703    2691    2700    2715       4    2703    2718    2727    2745       4
    2700    2712    2727    2745       4    2700    2712    2730    2751       7
    2700    2712    2730    2754       7    2697    2709    2724    2742       4
    2694    2703    2718    2733       4    2691    2703    2718    2733       4
    2688    2691    2700    2715       4    3060    3045    3057    3063       1
    3060    3045    3057    3066       1    3060    3045    3057    3069       1
    3054    3045    3057    3063       1    3054    3045    3057    3066       1
    3054    3045    3057    3069       1    3051    3042    3045    3054       1
    3051    3042    3045    3057       2    3051    3042    3045    3060       1
    3048    3042    3045    3054       1    3048    3042    3045    3057       2
    3048    3042    3045    3060       1    3042    3045    3057    3063       2
    3042    3045    3057    3066       2    3042    3045    3057    3069       2
    3039    3024    3042    3045       2    3039    3024    3042    3048       1
    3039    3024    3042    3051       1    3036    3024    3042    3045       2
    3036    3024    3042    3048       1    3036    3024    3042    3051       1
    3030    3006    3024    3036       1    3030    3006    3024    3039       1
    3030    3006    3024    3042       2    3027    3006    3024    3036       1
    3027    3006    3024    3039       1    3027    3006    3024    3042       2
    3024    3042    3045    3054       2    3024    3042    3045    3060       2
    3021    3000    3015    3033       4    3018    2994    3015    3033       4
    3012    2985    3006    3024       2    3012    2985    3006    3027       1
    3012    2985    3006    3030       1    3009    2985    3006    3024       2
    3009    2985    3006    3027       1    3009    2985    3006    3030       1
    3006    3024    3042    3048       2    3006    3024    3042    3051       2
    3003    2982    3000    3015       4    3003    2982    3000    3021       4
    3000    3015    2994    3018       4    2997    2979    2994    3015       4
    2997    2979    2994    3018       4    2994    3015    3000    3021       4
    2991    2970    2985    3006       2    2991    2970    2985    3009       1
    2991    2970    2985    3012       1    2988    2970    2985    3006       2
    2988    2970    2985    3009       1    2988    2970    2985    3012       1
    2985    3006    3024    3036       2    2985    3006    3024    3039       2
    2982    2967    2979    2997       4    2982    3000    3015    3033       4
    2979    2967    2982    3003       4    2979    2994    3015    3033       4
    2976    2958    2970    2985       2    2976    2958    2970    2988       1
    2976    2958    2970    2991       1    2973    2958    2970    2985       2
    2973    2958    2970    2988       1    2973    2958    2970    2991       1
    2970    2985    3006    3027       2    2970    2985    3006    3030       2
    2967    2979    2994    3018       4    2967    2982    3000    3021       4
    2964    2940    2958    2970       2    2964    2940    2958    2973       1
    2964    2940    2958    2976       1    2961    2940    2958    2970       2
    2961    2940    2958    2973       1    2961    2940    2958    2976       1
    2958    2970    2985    3009       2    2958    2970    2985    3012       2
    2955    2931    2949    2967       4    2952    2928    2949    2967       4
    2949    2967    2979    2997       4    2949    2967    2982    3003       4
    2946    2922    2940    2958       2    2946    2922    2940    2961       1
    2946    2922    2940    2964       1    2943    2922    2940    2958       2
    2943    2922    2940    2961       1    2943    2922    2940    2964       1
    2940    2958    2970    2988       2    2940    2958    2970    2991       2
    2934    2916    2931    2949       4    2934    2916    2931    2955       4
    2931    2949    2928    2952       4    2928    2949    2931    2955       4
    2925    2910    2919    2937       4    2922    2904    2919    2937       4
    2922    2940    2958    2973       2    2922    2940    2958    2976       2
    2919    2904    2922    2943       7    2919    2904    2922    2946       7
    2913    2901    2916    2934       4    2907    2892    2904    2919       4
    2907    2892    2904    2922       4    2904    2919    2910    2925       4
    2904    2922    2940    2961       8    2904    2922    2940    2964       8
    2901    2913    2928    2952       4    2901    2916    2931    2955       4
    2898    2913    2928    2952       4    2895    2883    2892    2907       4
    2895    2910    2919    2937       4    2892    2904    2919    2937       4
    2892    2904    2922    2943       7    2892    2904    2922    2946       7
    2889    2901    2916    2934       4    2886    2895    2910    2925       4
    2883    2895    2910    2925       4    2880    2883    2892    2907       4
    3252    3237    3249    3255       1    3252    3237    3249    3258       1
    3252    3237    3249    3261       1    3246    3237    3249    3255       1
    3246    3237    3249    3258       1    3246    3237    3249    3261       1
    3243    3234    3237    3246       1    3243    3234    3237    3249       2
    3243    3234    3237    3252       1    3240    3234    3237    3246       1
    3240    3234    3237    3249       2    3240    3234    3237    3252       1
    3234    3237    3249    3255       2    3234    3237    3249    3258       2
    3234    3237    3249    3261       2    3231    3216    3234    3237       2
    3231    3216    3234    3240       1    3231    3216    3234    3243       1
    3228    3216    3234    3237       2    3228    3216    3234    3240       1
    3228    3216    3234    3243       1    3222    3198    3216    3228       1
    3222    3198    3216    3231       1    3222    3198    3216    3234       2
    3219    3198    3216    3228       1    3219    3198    3216    3231       1
    3219    3198    3216    3234       2    3216    3234    3237    3246       2
    3216    3234    3237    3252       2    3213    3192    3207    3225       4
    3210    3186    3207    3225       4    3204    3177    3198    3216       2
    3204    3177    3198    3219       1    3204    3177    3198    3222       1
    3201    3177    3198    3216       2    3201    3177    3198    3219       1
    3201    3177    3198    3222       1    3198    3216    3234    3240       2
    3198    3216    3234    3243       2    3195    3174    3192    3207       4
    3195    3174    3192    3213       4    3192    3207    3186    3210       4
    3189    3171    3186    3207       4    3189    3171    3186    3210       4
    3186    3207    3192    3213       4    3183    3162    3177    3198       2
    3183    3162    3177    3201       1    3183    3162    3177    3204       1
    3180    3162    3177    3198       2    3180    3162    3177    3201       1
    3180    3162    3177    3204       1    3177    3198    3216    3228       2
    3177    3198    3216    3231       2    3174    3159    3171    3189       4
    3174    3192    3207    3225       4    3171    3159    3174    3195       4
    3171    3186    3207    3225       4    3168    3150    3162    3177       2
    3168    3150    3162    3180       1    3168    3150    3162    3183       1
    3165    3150    3162    3177       2    3165    3150    3162    3180       1
    3165    3150    3162    3183       1    3162    3177    3198    3219       2
    3162    3177    3198    3222       2    3159    3171    3186    3210       4
    3159    3174    3192    3213       4    3156    3132    3150    3162       2
    3156    3132    3150    3165       1    3156    3132    3150    3168       1
    3153    3132    3150    3162       2    3153    3132    3150    3165       1
    3153    3132    3150    3168       1    3150    3162    3177    3201       2
    3150    3162    3177    3204       2    3147    3123    3141    3159       4
    3144    3120    3141    3159       4    3141    3159    3171    3189       4
    3141    3159    3174    3195       4    3138    3114    3132    3150       2
    3138    3114    3132    3153       1    3138    3114    3132    3156       1
    3135    3114    3132    3150       2    3135    3114    3132    3153       1
    3135    3114    3132    3156       1    3132    3150    3162    3180       2
    3132    3150    3162    3183       2    3126    3108    3123    3141       4
    3126    3108    3123    3147       4    3123    3141    3120    3144       4
    3120    3141    3123    3147       4    3117    3102    3111    3129       4
    3114    3096    3111    3129       4    3114    3132    3150    3165       2
    3114    3132    3150    3168       2    3111    3096    3114    3135       7
    3111    3096    3114    3138       7    3105    3093    3108    3126       4
    3099    3084    3096    3111       4    3099    3084    3096    3114       4
    3096    3111    3102    3117       4    3096    3114    3132    3153       8
    3096    3114    3132    3156       8    3093    3105    3120    3144       4
    3093    3108    3123    3147       4    3090    3105    3120    3144       4
    3087    3075    3084    3099       4    3087    3102    3111    3129       4
    3084    3096    3111    3129       4    3084    3096    3114    3135       7
    3084    3096    3114    3138       7    3081    3093    3108    3126       4
    3078    3087    3102    3117       4    3075    3087    3102    3117       4
    3072    3075    3084    3099       4    3444    3429    3441    3447       1
    3444    3429    3441    3450       1    3444    3429    3441    3453       1
    3438    3429    3441    3447       1    3438    3429    3441    3450       1
    3438    3429    3441    3453       1    3435    3426    3429    3438       1
    3435    3426    3429    3441       2    3435    3426    3429    3444       1
    3432    3426    3429    3438       1    3432    3426    3429    3441       2
    3432    3426    3429    3444       1    3426    3429    3441    3447       2
    3426    3429    3441    3450       2    3426    3429    3441    3453       2
    3423    3408    3426    3429       2    3423    3408    3426    3432       1
    3423    3408    3426    3435       1    3420    3408    3426    3429       2
    3420    3408    3426    3432       1    3420    3408    3426    3435       1
    3414    3390    3408    3420       1    3414    3390    3408    3423       1
    3414    3390    3408    3426       2    3411    3390    3408    3420       1
    3411    3390    3408    3423       1    3411    3390    3408    3426       2
    3408    3426    3429    3438       2    3408    3426    3429    3444       2
    3405    3384    3399    3417       4    3402    3378    3399    3417       4
    3396    3369    3390    3408       2    3396    3369    3390    3411       1
    3396    3369    3390    3414       1    3393    3369    3390    3408       2
    3393    3369    3390    3411       1    3393    3369    3390    3414       1
    3390    3408    3426    3432       2    3390    3408    3426    3435       2
    3387    3366    3384    3399       4    3387    3366    3384    3405       4
    3384    3399    3378    3402       4    3381    3363    3378    3399       4
    3381    3363    3378    3402       4    3378    3399    3384    3405       4
    3375    3354    3369    3390       2    3375    3354    3369    3393       1
    3375    3354    3369    3396       1    3372    3354    3369    3390       2
    3372    3354    3369    3393       1    3372    3354    3369    3396       1
    3369    3390    3408    3420       2    3369    3390    3408    3423       2
    3366    3351    3363    3381       4    3366    3384    3399    3417       4
    3363    3351    3366    3387       4    3363    3378    3399    3417       4
    3360    3342    3354    3369       2    3360    3342    3354    3372       1
    3360    3342    3354    3375       1    3357    3342    3354    3369       2
    3357    3342    3354    3372       1    3357    3342    3354    3375       1
    3354    3369    3390    3411       2    3354    3369    3390    3414       2
    3351    3363    3378    3402       4    3351    3366    3384    3405       4
    3348    3324    3342    3354       2    3348    3324    3342    3357       1
    3348    3324    3342    3360       1    3345    3324    3342    3354       2
    3345    3324    3342    3357       1    3345    3324    3342    3360       1
    3342    3354    3369    3393       2    3342    3354    3369    3396       2
    3339    3315    3333    3351       4    3336    3312    3333    3351       4
    3333    3351    3363    3381       4    3333    3351    3366    3387       4
    3330    3306    3324    3342       2    3330    3306    3324    3345       1
    3330    3306    3324    3348       1    3327    3306    3324    3342       2
    3327    3306    3324    3345       1    3327    3306    3324    3348       1
    3324    3342    3354    3372       2    3324    3342    3354    3375       2
    3318    3300    3315    3333       4    3318    3300    3315    3339       4
    3315    3333    3312    3336       4    3312    3333    3315    3339       4
    3309    3294    3303    3321       4    3306    3288    3303    3321       4
    3306    3324    3342    3357       2    3306    3324    3342    3360       2
    3303    3288    3306    3327       7    3303    3288    3306    3330       7
    3297    3285    3300    3318       4    3291    3276    3288    3303       4
    3291    3276    3288    3306       4    3288    3303    3294    3309       4
    3288    3306    3324    3345       8    3288    3306    3324    3348       8
    3285    3297    3312    3336       4    3285    3300    3315    3339       4
    3282    3297    3312    3336       4    3279    3267    3276    3291       4
    3279    3294    3303    3321       4    3276    3288    3303    3321       4
    3276    3288    3306    3327       7    3276    3288    3306    3330       7
    3273    3285    3300    3318       4    3270    3279    3294    3309       4
    3267    3279    3294    3309       4    3264    3267    3276    3291       4
    3636    3621    3633    3639       1    3636    3621    3633    3642       1
    3636    3621    3633    3645       1    3630    3621    3633    3639       1
    3630    3621    3633    3642       1    3630    3621    3633    3645       1
    3627    3618    3621    3630       1    3627    3618    3621    3633       2
    3627    3618    3621    3636       1    3624    3618    3621    3630       1
    3624    3618    3621    3633       2    3624    3618    3621    3636       1
    3618    3621    3633    3639       2    3618    3621    3633    3642       2
    3618    3621    3633    3645       2    3615    3600    3618    3621       2
    3615    3600    3618    3624       1    3615    3600    3618    3627       1
    3612    3600    3618    3621       2    3612    3600    3618    3624       1
    3612    3600    3618    3627       1    3606    3582    3600    3612       1
    3606    3582    3600    3615       1    3606    3582    3600    3618       2
    3603    3582    3600    3612       1    3603    3582    3600    3615       1
    3603    3582    3600    3618       2    3600    3618    3621    3630       2
    3600    3618    3621    3636       2    3597    3576    3591    3609       4
    3594    3570    3591    3609       4    3588    3561    3582    3600       2
    3588    3561    3582    3603       1    3588    3561    3582    3606       1
    3585    3561    3582    3600       2    3585    3561    3582    3603       1
    3585    3561    3582    3606       1    3582    3600    3618    3624       2
    3582    3600    3618    3627       2    3579    3558    3576    3591       4
    3579    3558    3576    3597       4    3576    3591    3570    3594       4
    3573    3555    3570    3591       4    3573    3555    3570    3594       4
    3570    3591    3576    3597       4    3567    3546    3561    3582       2
    3567    3546    3561    3585       1    3567    3546    3561    3588       1
    3564    3546    3561    3582       2    3564    3546    3561    3585       1
    3564    3546    3561    3588       1    3561    3582    3600    3612       2
    3561    3582    3600    3615       2    3558    3543    3555    3573       4
    3558    3576    3591    3609       4    3555    3543    3558    3579       4
    3555    3570    3591    3609       4    3552    3534    3546    3561       2
    3552    3534    3546    3564       1    3552    3534    3546    3567       1
    3549    3534    3546    3561       2    3549    3534    3546    3564       1
    3549    3534    3546    3567       1    3546    3561    3582    3603       2
    3546    3561    3582    3606       2    3543    3555    3570    3594       4
    3543    3558    3576    3597       4    3540    3516    3534    3546       2
    3540    3516    3534    3549       1    3540    3516    3534    3552       1
    3537    3516    3534    3546       2    3537    3516    3534    3549       1
    3537    3516    3534    3552       1    3534    3546    3561    3585       2
    3534    3546    3561    3588       2    3531    3507    3525    3543       4
    3528    3504    3525    3543       4    3525    3543    3555    3573       4
    3525    3543    3558    3579       4    3522    3498    3516    3534       2
    3522    3498    3516    3537       1    3522    3498    3516    3540       1
    3519    3498    3516    3534       2    3519    3498    3516    3537       1
    3519    3498    3516    3540       1    3516    3534    3546    3564       2
    3516    3534    3546    3567       2    3510    3492    3507    3525       4
    3510    3492    3507    3531       4    3507    3525    3504    3528       4
    3504    3525    3507    3531       4    3501    3486    3495    3513       4
    3498    3480    3495    3513       4    3498    3516    3534    3549       2
    3498    3516    3534    3552       2    3495    3480    3498    3519       7
    3495    3480    3498    3522       7    3489    3477    3492    3510       4
    3483    3468    3480    3495       4    3483    3468    3480    3498       4
    3480    3495    3486    3501       4    3480    3498    3516    3537       8
    3480    3498    3516    3540       8    3477    3489    3504    3528       4
    3477    3492    3507    3531       4    3474    3489    3504    3528       4
    3471    3459    3468    3483       4    3471    3486    3495    3513       4
    3468    3480    3495    3513       4    3468    3480    3498    3519       7
    3468    3480    3498    3522       7    3465    3477    3492    3510       4
    3462    3471    3486    3501       4    3459    3471    3486    3501       4
    3456    3459    3468    3483       4    3828    3813    3825    3831       1
    3828    3813    3825    3834       1    3828    3813    3825    3837       1
    3822    3813    3825    3831       1    3822    3813    3825    3834       1
    3822    3813    3825    3837       1    3819    3810    3813    3822       1
    3819    3810    3813    3825       2    3819    3810    3813    3828       1
    3816    3810    3813    3822       1    3816    3810    3813    3825       2
    3816    3810    3813    3828       1    3810    3813    3825    3831       2
    3810    3813    3825    3834       2    3810    3813    3825    3837       2
    3807    3792    3810    3813       2    3807    3792    3810    3816       1
    3807    3792    3810    3819       1    3804    3792    3810    3813       2
    3804    3792    3810    3816       1    3804    3792    3810    3819       1
    3798    3774    3792    3804       1    3798    3774    3792    3807       1
    3798    3774    3792    3810       2    3795    3774    3792    3804       1
    3795    3774    3792    3807       1    3795    3774    3792    3810       2
    3792    3810    3813    3822       2    3792    3810    3813    3828       2
    3789    3768    3783    3801       4    3786    3762    3783    3801       4
    3780    3753    3774    3792       2    3780    3753    3774    3795       1
    3780    3753    3774    3798       1    3777    3753    3774    3792       2
    3777    3753    3774    3795       1    3777    3753    3774    3798       1
    3774    3792    3810    3816       2    3774    3792    3810    3819       2
    3771    3750    3768    3783       4    3771    3750    3768    3789       4
    3768    3783    3762    3786       4    3765    3747    3762    3783       4
    3765    3747    3762    3786       4    3762    3783    3768    3789       4
    3759    3738    3753    3774       2    3759    3738    3753    3777       1
    3759    3738    3753    3780       1    3756    3738    3753    3774       2
    3756    3738    3753    3777       1    3756    3738    3753    3780       1
    3753    3774    3792    3804       2    3753    3774    3792    3807       2
    3750    3735    3747    3765       4    3750    3768    3783    3801       4
    3747    3735    3750    3771       4    3747    3762    3783    3801       4
    3744    3726    3738    3753       2    3744    3726    3738    3756       1
    3744    3726    3738    3759       1    3741    3726    3738    3753       2
    3741    3726    3738    3756       1    3741    3726    3738    3759       1
    3738    3753    3774    3795       2    3738    3753    3774    3798       2
    3735    3747    3762    3786       4    3735    3750    3768    3789       4
    3732    3708    3726    3738       2    3732    3708    3726    3741       1
    3732    3708    3726    3744       1    3729    3708    3726    3738       2
    3729    3708    3726    3741       1    3729    3708    3726    3744       1
    3726    3738    3753    3777       2    3726    3738    3753    3780       2
    3723    3699    3717    3735       4    3720    3696    3717    3735       4
    3717    3735    3747    3765       4    3717    3735    3750    3771       4
    3714    3690    3708    3726       2    3714    3690    3708    3729       1
    3714    3690    3708    3732       1    3711    3690    3708    3726       2
    3711    3690    3708    3729       1    3711    3690    3708    3732       1
    3708    3726    3738    3756       2    3708    3726    3738    3759       2
    3702    3684    3699    3717       4    3702    3684    3699    3723       4
    3699    3717    3696    3720       4    3696    3717    3699    3723       4
    3693    3678    3687    3705       4    3690    3672    3687    3705       4
    3690    3708    3726    3741       2    3690    3708    3726    3744       2
    3687    3672    3690    3711       7    3687    3672    3690    3714       7
    3681    3669    3684    3702       4    3675    3660    3672    3687       4
    3675    3660    3672    3690       4    3672    3687    3678    3693       4
    3672    3690    3708    3729       8    3672    3690    3708    3732       8
    3669    3681    3696    3720       4    3669    3684    3699    3723       4
    3666    3681    3696    3720       4    3663    3651    3660    3675       4
    3663    3678    3687    3705       4    3660    3672    3687    3705       4
    3660    3672    3690    3711       7    3660    3672    3690    3714       7
    3657    3669    3684    3702       4    3654    3663    3678    3693       4
    3651    3663    3678    3693       4    3648    3651    3660    3675       4
    4020    4005    4017    4023       1    4020    4005    4017    4026       1
    4020    4005    4017    4029       1    4014    4005    4017    4023       1
    4014    4005    4017    4026       1    4014    4005    4017    4029       1
    4011    4002    4005    4014       1    4011    4002    4005    4017       2
    4011    4002    4005    4020       1    4008    4002    4005    4014       1
    4008    4002    4005    4017       2    4008    4002    4005    4020       1
    4002    4005    4017    4023       2    4002    4005    4017    4026       2
    4002    4005    4017    4029       2    3999    3984    4002    4005       2
    3999    3984    4002    4008       1    3999    3984    4002    4011       1
    3996    3984    4002    4005       2    3996    3984    4002    4008       1
    3996    3984    4002    4011       1    3990    3966    3984    3996       1
    3990    3966    3984    3999       1    3990    3966    3984    4002       2
    3987    3966    3984    3996       1    3987    3966    3984    3999       1
    3987    3966    3984    4002       2    3984    4002    4005    4014       2
    3984    4002    4005    4020       2    3981    3960    3975    3993       4
    3978    3954    3975    3993       4    3972    3945    3966    3984       2
    3972    3945    3966    3987       1    3972    3945    3966    3990       1
    3969    3945    3966    3984       2    3969    3945    3966    3987       1
    3969    3945    3966    3990       1    3966    3984    4002    4008       2
    3966    3984    4002    4011       2    3963    3942    3960    3975       4
    3963    3942    3960    3981       4    3960    3975    3954    3978       4
    3957    3939    3954    3975       4    3957    3939    3954    3978       4
    3954    3975    3960    3981       4    3951    3930    3945    3966       2
    3951    3930    3945    3969       1    3951    3930    3945    3972       1
    3948    3930    3945    3966       2    3948    3930    3945    3969       1
    3948    3930    3945    3972       1    3945    3966    3984    3996       2
    3945    3966    3984    3999       2    3942    3927    3939    3957       4
    3942    3960    3975    3993       4    3939    3927    3942    3963       4
    3939    3954    3975    3993       4    3936    3918    3930    3945       2
    3936    3918    3930    3948       1    3936    3918    3930    3951       1
    3933    3918    3930    3945       2    3933    3918    3930    3948       1
    3933    3918    3930    3951       1    3930    3945    3966    3987       2
    3930    3945    3966    3990       2    3927    3939    3954    3978       4
    3927    3942    3960    3981       4    3924    3900    3918    3930       2
    3924    3900    3918    3933       1    3924    3900    3918    3936       1
    3921    3900    3918    3930       2    3921    3900    3918    3933       1
    3921    3900    3918    3936       1    3918    3930    3945    3969       2
    3918    3930    3945    3972       2    3915    3891    3909    3927       4
    3912    3888    3909    3927       4    3909    3927    3939    3957       4
    3909    3927    3942    3963       4    3906    3882    3900    3918       2
    3906    3882    3900    3921       1    3906    3882    3900    3924       1
    3903    3882    3900    3918       2    3903    3882    3900    3921       1
    3903    3882    3900    3924       1    3900    3918    3930    3948       2
    3900    3918    3930    3951       2    3894    3876    3891    3909       4
    3894    3876    3891    3915       4    3891    3909    3888    3912       4
    3888    3909    3891    3915       4    3885    3870    3879    3897       4
    3882    3864    3879    3897       4    3882    3900    3918    3933       2
    3882    3900    3918    3936       2    3879    3864    3882    3903       7
    3879    3864    3882    3906       7    3873    3861    3876    3894       4
    3867    3852    3864    3879       4    3867    3852    3864    3882       4
    3864    3879    3870    3885       4    3864    3882    3900    3921       8
    3864    3882    3900    3924       8    3861    3873    3888    3912       4
    3861    3876    3891    3915       4    3858    3873    3888    3912       4
    3855    3843    3852    3867       4    3855    3870    3879    3897       4
    3852    3864    3879    3897       4    3852    3864    3882    3903       7
    3852    3864    3882    3906       7    3849    3861    3876    3894       4
    3846    3855    3870    3885       4    3843    3855    3870    3885       4
    3840    3843    3852    3867       4    4212    4197    4209    4215       1
    4212    4197    4209    4218       1    4212    4197    4209    4221       1
    4206    4197    4209    4215       1    4206    4197    4209    4218       1
    4206    4197    4209    4221       1    4203    4194    4197    4206       1
    4203    4194    4197    4209       2    4203    4194    4197    4212       1
    4200    4194    4197    4206       1    4200    4194    4197    4209       2
    4200    4194    4197    4212       1    4194    4197    4209    4215       2
    4194    4197    4209    4218       2    4194    4197    4209    4221       2
    4191    4176    4194    4197       2    4191    4176    4194    4200       1
    4191    4176    4194    4203       1    4188    4176    4194    4197       2
    4188    4176    4194    4200       1    4188    4176    4194    4203       1
    4182    4158    4176    4188       1    4182    4158    4176    4191       1
    4182    4158    4176    4194       2    4179    4158    4176    4188       1
    4179    4158    4176    4191       1    4179    4158    4176    4194       2
    4176    4194    4197    4206       2    4176    4194    4197    4212       2
    4173    4152    4167    4185       4    4170    4146    4167    4185       4
    4164    4137    4158    4176       2    4164    4137    4158    4179       1
    4164    4137    4158    4182       1    4161    4137    4158    4176       2
    4161    4137    4158    4179       1    4161    4137    4158    4182       1
    4158    4176    4194    4200       2    4158    4176    4194    4203       2
    4155    4134    4152    4167       4    4155    4134    4152    4173       4
    4152    4167    4146    4170       4    4149    4131    4146    4167       4
    4149    4131    4146    4170       4    4146    4167    4152    4173       4
    4143    4122    4137    4158       2    4143    4122    4137    4161       1
    4143    4122    4137    4164       1    4140    4122    4137    4158       2
    4140    4122    4137    4161       1    4140    4122    4137    4164       1
    4137    4158    4176    4188       2    4137    4158    4176    4191       2
    4134    4119    4131    4149       4    4134    4152    4167    4185       4
    4131    4119    4134    4155       4    4131    4146    4167    4185       4
    4128    4110    4122    4137       2    4128    4110    4122    4140       1
    4128    4110    4122    4143       1    4125    4110    4122    4137       2
    4125    4110    4122    4140       1    4125    4110    4122    4143       1
    4122    4137    4158    4179       2    4122    4137    4158    4182       2
    4119    4131    4146    4170       4    4119    4134    4152    4173       4
    4116    4092    4110    4122       2    4116    4092    4110    4125       1
    4116    4092    4110    4128       1    4113    4092    4110    4122       2
    4113    4092    4110    4125       1    4113    4092    4110    4128       1
    4110    4122    4137    4161       2    4110    4122    4137    4164       2
    4107    4083    4101    4119       4    4104    4080    4101    4119       4
    4101    4119    4131    4149       4    4101    4119    4134    4155       4
    4098    4074    4092    4110       2    4098    4074    4092    4113       1
    4098    4074    4092    4116       1    4095    4074    4092    4110       2
    4095    4074    4092    4113       1    4095    4074    4092    4116       1
    4092    4110    4122    4140       2    4092    4110    4122    4143       2
    4086    4068    4083    4101       4    4086    4068    4083    4107       4
    4083    4101    4080    4104       4    4080    4101    4083    4107       4
    4077    4062    4071    4089       4    4074    4056    4071    4089       4
    4074    4092    4110    4125       2    4074    4092    4110    4128       2
    4071    4056    4074    4095       7    4071    4056    4074    4098       7
    4065    4053    4068    4086       4    4059    4044    4056    4071       4
    4059    4044    4056    4074       4    4056    4071    4062    4077       4
    4056    4074    4092    4113       8    4056    4074    4092    4116       8
    4053    4065    4080    4104       4    4053    4068    4083    4107       4
    4050    4065    4080    4104       4    4047    4035    4044    4059       4
    4047    4062    4071    4089       4    4044    4056    4071    4089       4
    4044    4056    4074    4095       7    4044    4056    4074    4098       7
    4041    4053    4068    4086       4    4038    4047    4062    4077       4
    4035    4047    4062    4077       4    4032    4035    4044    4059       4
    4404    4389    4401    4407       1    4404    4389    4401    4410       1
    4404    4389    4401    4413       1    4398    4389    4401    4407       1
    4398    4389    4401    4410       1    4398    4389    4401    4413       1
    4395    4386    4389    4398       1    4395    4386    4389    4401       2
    4395    4386    4389    4404       1    4392    4386    4389    4398       1
    4392    4386    4389    4401       2    4392    4386    4389    4404       1
    4386    4389    4401    4407       2    4386    4389    4401    4410       2
    4386    4389    4401    4413       2    4383    4368    4386    4389       2
    4383    4368    4386    4392       1    4383    4368    4386    4395       1
    4380    4368    4386    4389       2    4380    4368    4386    4392       1
    4380    4368    4386    4395       1    4374    4350    4368    4380       1
    4374    4350    4368    4383       1    4374    4350    4368    4386       2
    4371    4350    4368    4380       1    4371    4350    4368    4383       1
    4371    4350    4368    4386       2    4368    4386    4389    4398       2
    4368    4386    4389    4404       2    4365    4344    4359    4377       4
    4362    4338    4359    4377       4    4356    4329    4350    4368       2
    4356    4329    4350    4371       1    4356    4329    4350    4374       1
    4353    4329    4350    4368       2    4353    4329    4350    4371       1
    4353    4329    4350    4374       1    4350    4368    4386    4392       2
    4350    4368    4386    4395       2    4347    4326    4344    4359       4
    4347    4326    4344    4365       4    4344    4359    4338    4362       4
    4341    4323    4338    4359       4    4341    4323    4338    4362       4
    4338    4359    4344    4365       4    4335    4314    4329    4350       2
    4335    4314    4329    4353       1    4335    4314    4329    4356       1
    4332    4314    4329    4350       2    4332    4314    4329    4353       1
    4332    4314    4329    4356       1    4329    4350    4368    4380       2
    4329    4350    4368    4383       2    4326    4311    4323    4341       4
    4326    4344    4359    4377       4    4323    4311    4326    4347       4
    4323    4338    4359    4377       4    4320    4302    4314    4329       2
    4320    4302    4314    4332       1    4320    4302    4314    4335       1
    4317    4302    4314    4329       2    4317    4302    4314    4332       1
    4317    4302    4314    4335       1    4314    4329    4350    4371       2
    4314    4329    4350    4374       2    4311    4323    4338    4362       4
    4311    4326    4344    4365       4    4308    4284    4302    4314       2
    4308    4284    4302    4317       1    4308    4284    4302    4320       1
    4305    4284    4302    4314       2    4305    4284    4302    4317       1
    4305    4284    4302    4320       1    4302    4314    4329    4353       2
    4302    4314    4329    4356       2    4299    4275    4293    4311       4
    4296    4272    4293    4311       4    4293    4311    4323    4341       4
    4293    4311    4326    4347       4    4290    4266    4284    4302       2
    4290    4266    4284    4305       1    4290    4266    4284    4308       1
    4287    4266    4284    4302       2    4287    4266    4284    4305       1
    4287    4266    4284    4308       1    4284    4302    4314    4332       2
    4284    4302    4314    4335       2    4278    4260    4275    4293       4
    4278    4260    4275    4299       4    4275    4293    4272    4296       4
    4272    4293    4275    4299       4    4269    4254    4263    4281       4
    4266    4248    4263    4281       4    4266    4284    4302    4317       2
    4266    4284    4302    4320       2    4263    4248    4266    4287       7
    4263    4248    4266    4290       7    4257    4245    4260    4278       4
    4251    4236    4248    4263       4    4251    4236    4248    4266       4
    4248    4263    4254    4269       4    4248    4266    4284    4305       8
    4248    4266    4284    4308       8    4245    4257    4272    4296       4
    4245    4260    4275    4299       4    4242    4257    4272    4296       4
    4239    4227    4236    4251       4    4239    4254    4263    4281       4
    4236    4248    4263    4281       4    4236    4248    4266    4287       7
    4236    4248    4266    4290       7    4233    4245    4260    4278       4
    4230    4239    4254    4269       4    4227    4239    4254    4269       4
    4224    4227    4236    4251       4    4596    4581    4593    4599       1
    4596    4581    4593    4602       1    4596    4581    4593    4605       1
    4590    4581    4593    4599       1    4590    4581    4593    4602       1
    4590    4581    4593    4605       1    4587    4578    4581    4590       1
    4587    4578    4581    4593       2    4587    4578    4581    4596       1
    4584    4578    4581    4590       1    4584    4578    4581    4593       2
    4584    4578    4581    4596       1    4578    4581    4593    4599       2
    4578    4581    4593    4602       2    4578    4581    4593    4605       2
    4575    4560    4578    4581       2    4575    4560    4578    4584       1
    4575    4560    4578    4587       1    4572    4560    4578    4581       2
    4572    4560    4578    4584       1    4572    4560    4578    4587       1
    4566    4542    4560    4572       1    4566    4542    4560    4575       1
    4566    4542    4560    4578       2    4563    4542    4560    4572       1
    4563    4542    4560    4575       1    4563    4542    4560    4578       2
    4560    4578    4581    4590       2    4560    4578    4581    4596       2
    4557    4536    4551    4569       4    4554    4530    4551    4569       4
    4548    4521    4542    4560       2    4548    4521    4542    4563       1
    4548    4521    4542    4566       1    4545    4521    4542    4560       2
    4545    4521    4542    4563       1    4545    4521    4542    4566       1
    4542    4560    4578    4584       2    4542    4560    4578    4587       2
    4539    4518    4536    4551       4    4539    4518    4536    4557       4
    4536    4551    4530    4554       4    4533    4515    4530    4551       4
    4533    4515    4530    4554       4    4530    4551    4536    4557       4
    4527    4506    4521    4542       2    4527    4506    4521    4545       1
    4527    4506    4521    4548       1    4524    4506    4521    4542       2
    4524    4506    4521    4545       1    4524    4506    4521    4548       1
    4521    4542    4560    4572       2    4521    4542    4560    4575       2
    4518    4503    4515    4533       4    4518    4536    4551    4569       4
    4515    4503    4518    4539       4    4515    4530    4551    4569       4
    4512    4494    4506    4521       2    4512    4494    4506    4524       1
    4512    4494    4506    4527       1    4509    4494    4506    4521       2
    4509    4494    4506    4524       1    4509    4494    4506    4527       1
    4506    4521    4542    4563       2    4506    4521    4542    4566       2
    4503    4515    4530    4554       4    4503    4518    4536    4557       4
    4500    4476    4494    4506       2    4500    4476    4494    4509       1
    4500    4476    4494    4512       1    4497    4476    4494    4506       2
    4497    4476    4494    4509       1    4497    4476    4494    4512       1
    4494    4506    4521    4545       2    4494    4506    4521    4548       2
    4491    4467    4485    4503       4    4488    4464    4485    4503       4
    4485    4503    4515    4533       4    4485    4503    4518    4539       4
    4482    4458    4476    4494       2    4482    4458    4476    4497       1
    4482    4458    4476    4500       1    4479    4458    4476    4494       2
    4479    4458    4476    4497       1    4479    4458    4476    4500       1
    4476    4494    4506    4524       2    4476    4494    4506    4527       2
    4470    4452    4467    4485       4    4470    4452    4467    4491       4
    4467    4485    4464    4488       4    4464    4485    4467    4491       4
    4461    4446    4455    4473       4    4458    4440    4455    4473       4
    4458    4476    4494    4509       2    4458    4476    4494    4512       2
    4455    4440    4458    4479       7    4455    4440    4458    4482       7
    4449    4437    4452    4470       4    4443    4428    4440    4455       4
    4443    4428    4440    4458       4    4440    4455    4446    4461       4
    4440    4458    4476    4497       8    4440    4458    4476    4500       8
    4437    4449    4464    4488       4    4437    4452    4467    4491       4
    4434    4449    4464    4488       4    4431    4419    4428    4443       4
    4431    4446    4455    4473       4    4428    4440    4455    4473       4
    4428    4440    4458    4479       7    4428    4440    4458    4482       7
    4425    4437    4452    4470       4    4422    4431    4446    4461       4
    4419    4431    4446    4461       4    4416    4419    4428    4443       4
    4788    4773    4785    4791       1    4788    4773    4785    4794       1
    4788    4773    4785    4797       1    4782    4773    4785    4791       1
    4782    4773    4785    4794       1    4782    4773    4785    4797       1
    4779    4770    4773    4782       1    4779    4770    4773    4785       2
    4779    4770    4773    4788       1    4776    4770    4773    4782       1
    4776    4770    4773    4785       2    4776    4770    4773    4788       1
    4770    4773    4785    4791       2    4770    4773    4785    4794       2
    4770    4773    4785    4797       2    4767    4752    4770    4773       2
    4767    4752    4770    4776       1    4767    4752    4770    4779       1
    4764    4752    4770    4773       2    4764    4752    4770    4776       1
    4764    4752    4770    4779       1    4758    4734    4752    4764       1
    4758    4734    4752    4767       1    4758    4734    4752    4770       2
    4755    4734    4752    4764       1    4755    4734    4752    4767       1
    4755    4734    4752    4770       2    4752    4770    4773    4782       2
    4752    4770    4773    4788       2    4749    4728    4743    4761       4
    4746    4722    4743    4761       4    4740    4713    4734    4752       2
    4740    4713    4734    4755       1    4740    4713    4734    4758       1
    4737    4713    4734    4752       2    4737    4713    4734    4755       1
    4737    4713    4734    4758       1    4734    4752    4770    4776       2
    4734    4752    4770    4779       2    4731    4710    4728    4743       4
    4731    4710    4728    4749       4    4728    4743    4722    4746       4
    4725    4707    4722    4743       4    4725    4707    4722    4746       4
    4722    4743    4728    4749       4    4719    4698    4713    4734       2
    4719    4698    4713    4737       1    4719    4698    4713    4740       1
    4716    4698    4713    4734       2    4716    4698    4713    4737       1
    4716    4698    4713    4740       1    4713    4734    4752    4764       2
    4713    4734    4752    4767       2    4710    4695    4707    4725       4
    4710    4728    4743    4761       4    4707    4695    4710    4731       4
    4707    4722    4743    4761       4    4704    4686    4698    4713       2
    4704    4686    4698    4716       1    4704    4686    4698    4719       1
    4701    4686    4698    4713       2    4701    4686    4698    4716       1
    4701    4686    4698    4719       1    4698    4713    4734    4755       2
    4698    4713    4734    4758       2    4695    4707    4722    4746       4
    4695    4710    4728    4749       4    4692    4668    4686    4698       2
    4692    4668    4686    4701       1    4692    4668    4686    4704       1
    4689    4668    4686    4698       2    4689    4668    4686    4701       1
    4689    4668    4686    4704       1    4686    4698    4713    4737       2
    4686    4698    4713    4740       2    4683    4659    4677    4695       4
    4680    4656    4677    4695       4    4677    4695    4707    4725       4
    4677    4695    4710    4731       4    4674    4650    4668    4686       2
    4674    4650    4668    4689       1    4674    4650    4668    4692       1
    4671    4650    4668    4686       2    4671    4650    4668    4689       1
    4671    4650    4668    4692       1    4668    4686    4698    4716       2
    4668    4686    4698    4719       2    4662    4644    4659    4677       4
    4662    4644    4659    4683       4    4659    4677    4656    4680       4
    4656    4677    4659    4683       4    4653    4638    4647    4665       4
    4650    4632    4647    4665       4    4650    4668    4686    4701       2
    4650    4668    4686    4704       2    4647    4632    4650    4671       7
    4647    4632    4650    4674       7    4641    4629    4644    4662       4
    4635    4620    4632    4647       4    4635    4620    4632    4650       4
    4632    4647    4638    4653       4    4632    4650    4668    4689       8
    4632    4650    4668    4692       8    4629    4641    4656    4680       4
    4629    4644    4659    4683       4    4626    4641    4656    4680       4
    4623    4611    4620    4635       4    4623    4638    4647    4665       4
    4620    4632    4647    4665       4    4620    4632    4650    4671       7
    4620    4632    4650    4674       7    4617    4629    4644    4662       4
    4614    4623    4638    4653       4    4611    4623    4638    4653       4
    4608    4611    4620    4635       4    4980    4965    4977    4983       1
    4980    4965    4977    4986       1    4980    4965    4977    4989       1
    4974    4965    4977    4983       1    4974    4965    4977    4986       1
    4974    4965    4977    4989       1    4971    4962    4965    4974       1
    4971    4962    4965    4977       2    4971    4962    4965    4980       1
    4968    4962    4965    4974       1    4968    4962    4965    4977       2
    4968    4962    4965    4980       1    4962    4965    4977    4983       2
    4962    4965    4977    4986       2    4962    4965    4977    4989       2
    4959    4944    4962    4965       2    4959    4944    4962    4968       1
    4959    4944    4962    4971       1    4956    4944    4962    4965       2
    4956    4944    4962    4968       1    4956    4944    4962    4971       1
    4950    4926    4944    4956       1    4950    4926    4944    4959       1
    4950    4926    4944    4962       2    4947    4926    4944    4956       1
    4947    4926    4944    4959       1    4947    4926    4944    4962       2
    4944    4962    4965    4974       2    4944    4962    4965    4980       2
    4941    4920    4935    4953       4    4938    4914    4935    4953       4
    4932    4905    4926    4944       2    4932    4905    4926    4947       1
    4932    4905    4926    4950       1    4929    4905    4926    4944       2
    4929    4905    4926    4947       1    4929    4905    4926    4950       1
    4926    4944    4962    4968       2    4926    4944    4962    4971       2
    4923    4902    4920    4935       4    4923    4902    4920    4941       4
    4920    4935    4914    4938       4    4917    4899    4914    4935       4
    4917    4899    4914    4938       4    4914    4935    4920    4941       4
    4911    4890    4905    4926       2    4911    4890    4905    4929       1
    4911    4890    4905    4932       1    4908    4890    4905    4926       2
    4908    4890    4905    4929       1    4908    4890    4905    4932       1
    4905    4926    4944    4956       2    4905    4926    4944    4959       2
    4902    4887    4899    4917       4    4902    4920    4935    4953       4
    4899    4887    4902    4923       4    4899    4914    4935    4953       4
    4896    4878    4890    4905       2    4896    4878    4890    4908       1
    4896    4878    4890    4911       1    4893    4878    4890    4905       2
    4893    4878    4890    4908       1    4893    4878    4890    4911       1
    4890    4905    4926    4947       2    4890    4905    4926    4950       2
    4887    4899    4914    4938       4    4887    4902    4920    4941       4
    4884    4860    4878    4890       2    4884    4860    4878    4893       1
    4884    4860    4878    4896       1    4881    4860    4878    4890       2
    4881    4860    4878    4893       1    4881    4860    4878    4896       1
    4878    4890    4905    4929       2    4878    4890    4905    4932       2
    4875    4851    4869    4887       4    4872    4848    4869    4887       4
    4869    4887    4899    4917       4    4869    4887    4902    4923       4
    4866    4842    4860    4878       2    4866    4842    4860    4881       1
    4866    4842    4860    4884       1    4863    4842    4860    4878       2
    4863    4842    4860    4881       1    4863    4842    4860    4884       1
    4860    4878    4890    4908       2    4860    4878    4890    4911       2
    4854    4836    4851    4869       4    4854    4836    4851    4875       4
    4851    4869    4848    4872       4    4848    4869    4851    4875       4
    4845    4830    4839    4857       4    4842    4824    4839    4857       4
    4842    4860    4878    4893       2    4842    4860    4878    4896       2
    4839    4824    4842    4863       7    4839    4824    4842    4866       7
    4833    4821    4836    4854       4    4827    4812    4824    4839       4
    4827    4812    4824    4842       4    4824    4839    4830    4845       4
    4824    4842    4860    4881       8    4824    4842    4860    4884       8
    4821    4833    4848    4872       4    4821    4836    4851    4875       4
    4818    4833    4848    4872       4    4815    4803    4812    4827       4
    4815    4830    4839    4857       4    4812    4824    4839    4857       4
    4812    4824    4842    4863       7    4812    4824    4842    4866       7
    4809    4821    4836    4854       4    4806    4815    4830    4845       4
    4803    4815    4830    4845       4    4800    4803    4812    4827       4
    5172    5157    5169    5175       1    5172    5157    5169    5178       1
    5172    5157    5169    5181       1    5166    5157    5169    5175       1
    5166    5157    5169    5178       1    5166    5157    5169    5181       1
    5163    5154    5157    5166       1    5163    5154    5157    5169       2
    5163    5154    5157    5172       1    5160    5154    5157    5166       1
    5160    5154    5157    5169       2    5160    5154    5157    5172       1
    5154    5157    5169    5175       2    5154    5157    5169    5178       2
    5154    5157    5169    5181       2    5151    5136    5154    5157       2
    5151    5136    5154    5160       1    5151    5136    5154    5163       1
    5148    5136    5154    5157       2    5148    5136    5154    5160       1
    5148    5136    5154    5163       1    5142    5118    5136    5148       1
    5142    5118    5136    5151       1    5142    5118    5136    5154       2
    5139    5118    5136    5148       1    5139    5118    5136    5151       1
    5139    5118    5136    5154       2    5136    5154    5157    5166       2
    5136    5154    5157    5172       2    5133    5112    5127    5145       4
    5130    5106    5127    5145       4    5124    5097    5118    5136       2
    5124    5097    5118    5139       1    5124    5097    5118    5142       1
    5121    5097    5118    5136       2    5121    5097    5118    5139       1
    5121    5097    5118    5142       1    5118    5136    5154    5160       2
    5118    5136    5154    5163       2    5115    5094    5112    5127       4
    5115    5094    5112    5133       4    5112    5127    5106    5130       4
    5109    5091    5106    5127       4    5109    5091    5106    5130       4
    5106    5127    5112    5133       4    5103    5082    5097    5118       2
    5103    5082    5097    5121       1    5103    5082    5097    5124       1
    5100    5082    5097    5118       2    5100    5082    5097    5121       1
    5100    5082    5097    5124       1    5097    5118    5136    5148       2
    5097    5118    5136    5151       2    5094    5079    5091    5109       4
    5094    5112    5127    5145       4    5091    5079    5094    5115       4
    5091    5106    5127    5145       4    5088    5070    5082    5097       2
    5088    5070    5082    5100       1    5088    5070    5082    5103       1
    5085    5070    5082    5097       2    5085    5070    5082    5100       1
    5085    5070    5082    5103       1    5082    5097    5118    5139       2
    5082    5097    5118    5142       2    5079    5091    5106    5130       4
    5079    5094    5112    5133       4    5076    5052    5070    5082       2
    5076    5052    5070    5085       1    5076    5052    5070    5088       1
    5073    5052    5070    5082       2    5073    5052    5070    5085       1
    5073    5052    5070    5088       1    5070    5082    5097    5121       2
    5070    5082    5097    5124       2    5067    5043    5061    5079       4
    5064    5040    5061    5079       4    5061    5079    5091    5109       4
    5061    5079    5094    5115       4    5058    5034    5052    5070       2
    5058    5034    5052    5073       1    5058    5034    5052    5076       1
    5055    5034    5052    5070       2    5055    5034    5052    5073       1
    5055    5034    5052    5076       1    5052    5070    5082    5100       2
    5052    5070    5082    5103       2    5046    5028    5043    5061       4
    5046    5028    5043    5067       4    5043    5061    5040    5064       4
    5040    5061    5043    5067       4    5037    5022    5031    5049       4
    5034    5016    5031    5049       4    5034    5052    5070    5085       2
    5034    5052    5070    5088       2    5031    5016    5034    5055       7
    5031    5016    5034    5058       7    5025    5013    5028    5046       4
    5019    5004    5016    5031       4    5019    5004    5016    5034       4
    5016    5031    5022    5037       4    5016    5034    5052    5073       8
    5016    5034    5052    5076       8    5013    5025    5040    5064       4
    5013    5028    5043    5067       4    5010    5025    5040    5064       4
    5007    4995    5004    5019       4    5007    5022    5031    5049       4
    5004    5016    5031    5049       4    5004    5016    5034    5055       7
    5004    5016    5034    5058       7    5001    5013    5028    5046       4
    4998    5007    5022    5037       4    4995    5007    5022    5037       4
    4992    4995    5004    5019       4    5364    5349    5361    5367       1
    5364    5349    5361    5370       1    5364    5349    5361    5373       1
    5358    5349    5361    5367       1    5358    5349    5361    5370       1
    5358    5349    5361    5373       1    5355    5346    5349    5358       1
    5355    5346    5349    5361       2    5355    5346    5349    5364       1
    5352    5346    5349    5358       1    5352    5346    5349    5361       2
    5352    5346    5349    5364       1    5346    5349    5361    5367       2
    5346    5349    5361    5370       2    5346    5349    5361    5373       2
    5343    5328    5346    5349       2    5343    5328    5346    5352       1
    5343    5328    5346    5355       1    5340    5328    5346    5349       2
    5340    5328    5346    5352       1    5340    5328    5346    5355       1
    5334    5310    5328    5340       1    5334    5310    5328    5343       1
    5334    5310    5328    5346       2    5331    5310    5328    5340       1
    5331    5310    5328    5343       1    5331    5310    5328    5346       2
    5328    5346    5349    5358       2    5328    5346    5349    5364       2
    5325    5304    5319    5337       4    5322    5298    5319    5337       4
    5316    5289    5310    5328       2    5316    5289    5310    5331       1
    5316    5289    5310    5334       1    5313    5289    5310    5328       2
    5313    5289    5310    5331       1    5313    5289    5310    5334       1
    5310    5328    5346    5352       2    5310    5328    5346    5355       2
    5307    5286    5304    5319       4    5307    5286    5304    5325       4
    5304    5319    5298    5322       4    5301    5283    5298    5319       4
    5301    5283    5298    5322       4    5298    5319    5304    5325       4
    5295    5274    5289    5310       2    5295    5274    5289    5313       1
    5295    5274    5289    5316       1    5292    5274    5289    5310       2
    5292    5274    5289    5313       1    5292    5274    5289    5316       1
    5289    5310    5328    5340       2    5289    5310    5328    5343       2
    5286    5271    5283    5301       4    5286    5304    5319    5337       4
    5283    5271    5286    5307       4    5283    5298    5319    5337       4
    5280    5262    5274    5289       2    5280    5262    5274    5292       1
    5280    5262    5274    5295       1    5277    5262    5274    5289       2
    5277    5262    5274    5292       1    5277    5262    5274    5295       1
    5274    5289    5310    5331       2    5274    5289    5310    5334       2
    5271    5283    5298    5322       4    5271    5286    5304    5325       4
    5268    5244    5262    5274       2    5268    5244    5262    5277       1
    5268    5244    5262    5280       1    5265    5244    5262    5274       2
    5265    5244    5262    5277       1    5265    5244    5262    5280       1
    5262    5274    5289    5313       2    5262    5274    5289    5316       2
    5259    5235    5253    5271       4    5256    5232    5253    5271       4
    5253    5271    5283    5301       4    5253    5271    5286    5307       4
    5250    5226    5244    5262       2    5250    5226    5244    5265       1
    5250    5226    5244    5268       1    5247    5226    5244    5262       2
    5247    5226    5244    5265       1    5247    5226    5244    5268       1
    5244    5262    5274    5292       2    5244    5262    5274    5295       2
    5238    5220    5235    5253       4    5238    5220    5235    5259       4
    5235    5253    5232    5256       4    5232    5253    5235    5259       4
    5229    5214    5223    5241       4    5226    5208    5223    5241       4
    5226    5244    5262    5277       2    5226    5244    5262    5280       2
    5223    5208    5226    5247       7    5223    5208    5226    5250       7
    5217    5205    5220    5238       4    5211    5196    5208    5223       4
    5211    5196    5208    5226       4    5208    5223    5214    5229       4
    5208    5226    5244    5265       8    5208    5226    5244    5268       8
    5205    5217    5232    5256       4    5205    5220    5235    5259       4
    5202    5217    5232    5256       4    5199    5187    5196    5211       4
    5199    5214    5223    5241       4    5196    5208    5223    5241       4
    5196    5208    5226    5247       7    5196    5208    5226    5250       7
    5193    5205    5220    5238       4    5190    5199    5214    5229       4
    5187    5199    5214    5229       4    5184    5187    5196    5211       4
    5556    5541    5553    5559       1    5556    5541    5553    5562       1
    5556    5541    5553    5565       1    5550    5541    5553    5559       1
    5550    5541    5553    5562       1    5550    5541    5553    5565       1
    5547    5538    5541    5550       1    5547    5538    5541    5553       2
    5547    5538    5541    5556       1    5544    5538    5541    5550       1
    5544    5538    5541    5553       2    5544    5538    5541    5556       1
    5538    5541    5553    5559       2    5538    5541    5553    5562       2
    5538    5541    5553    5565       2    5535    5520    5538    5541       2
    5535    5520    5538    5544       1    5535    5520    5538    5547       1
    5532    5520    5538    5541       2    5532    5520    5538    5544       1
    5532    5520    5538    5547       1    5526    5502    5520    5532       1
    5526    5502    5520    5535       1    5526    5502    5520    5538       2
    5523    5502    5520    5532       1    5523    5502    5520    5535       1
    5523    5502    5520    5538       2    5520    5538    5541    5550       2
    5520    5538    5541    5556       2    5517    5496    5511    5529       4
    5514    5490    5511    5529       4    5508    5481    5502    5520       2
    5508    5481    5502    5523       1    5508    5481    5502    5526       1
    5505    5481    5502    5520       2    5505    5481    5502    5523       1
    5505    5481    5502    5526       1    5502    5520    5538    5544       2
    5502    5520    5538    5547       2    5499    5478    5496    5511       4
    5499    5478    5496    5517       4    5496    5511    5490    5514       4
    5493    5475    5490    5511       4    5493    5475    5490    5514       4
    5490    5511    5496    5517       4    5487    5466    5481    5502       2
    5487    5466    5481    5505       1    5487    5466    5481    5508       1
    5484    5466    5481    5502       2    5484    5466    5481    5505       1
    5484    5466    5481    5508       1    5481    5502    5520    5532       2
    5481    5502    5520    5535       2    5478    5463    5475    5493       4
    5478    5496    5511    5529       4    5475    5463    5478    5499       4
    5475    5490    5511    5529       4    5472    5454    5466    5481       2
    5472    5454    5466    5484       1    5472    5454    5466    5487       1
    5469    5454    5466    5481       2    5469    5454    5466    5484       1
    5469    5454    5466    5487       1    5466    5481    5502    5523       2
    5466    5481    5502    5526       2    5463    5475    5490    5514       4
    5463    5478    5496    5517       4    5460    5436    5454    5466       2
    5460    5436    5454    5469       1    5460    5436    5454    5472       1
    5457    5436    5454    5466       2    5457    5436    5454    5469       1
    5457    5436    5454    5472       1    5454    5466    5481    5505       2
    5454    5466    5481    5508       2    5451    5427    5445    5463       4
    5448    5424    5445    5463       4    5445    5463    5475    5493       4
    5445    5463    5478    5499       4    5442    5418    5436    5454       2
    5442    5418    5436    5457       1    5442    5418    5436    5460       1
    5439    5418    5436    5454       2    5439    5418    5436    5457       1
    5439    5418    5436    5460       1    5436    5454    5466    5484       2
    5436    5454    5466    5487       2    5430    5412    5427    5445       4
    5430    5412    5427    5451       4    5427    5445    5424    5448       4
    5424    5445    5427    5451       4    5421    5406    5415    5433       4
    5418    5400    5415    5433       4    5418    5436    5454    5469       2
    5418    5436    5454    5472       2    5415    5400    5418    5439       7
    5415    5400    5418    5442       7    5409    5397    5412    5430       4
    5403    5388    5400    5415       4    5403    5388    5400    5418       4
    5400    5415    5406    5421       4    5400    5418    5436    5457       8
    5400    5418    5436    5460       8    5397    5409    5424    5448       4
    5397    5412    5427    5451       4    5394    5409    5424    5448       4
    5391    5379    5388    5403       4    5391    5406    5415    5433       4
    5388    5400    5415    5433       4    5388    5400    5418    5439       7
    5388    5400    5418    5442       7    5385    5397    5412    5430       4
    5382    5391    5406    5421       4    5379    5391    5406    5421       4
    5376    5379    5388    5403       4    5748    5733    5745    5751       1
    5748    5733    5745    5754       1    5748    5733    5745    5757       1
    5742    5733    5745    5751       1    5742    5733    5745    5754       1
    5742    5733    5745    5757       1    5739    5730    5733    5742       1
    5739    5730    5733    5745       2    5739    5730    5733    5748       1
    5736    5730    5733    5742       1    5736    5730    5733    5745       2
    5736    5730    5733    5748       1    5730    5733    5745    5751       2
    5730    5733    5745    5754       2    5730    5733    5745    5757       2
    5727    5712    5730    5733       2    5727    5712    5730    5736       1
    5727    5712    5730    5739       1    5724    5712    5730    5733       2
    5724    5712    5730    5736       1    5724    5712    5730    5739       1
    5718    5694    5712    5724       1    5718    5694    5712    5727       1
    5718    5694    5712    5730       2    5715    5694    5712    5724       1
    5715    5694    5712    5727       1    5715    5694    5712    5730       2
    5712    5730    5733    5742       2    5712    5730    5733    5748       2
    5709    5688    5703    5721       4    5706    5682    5703    5721       4
    5700    5673    5694    5712       2    5700    5673    5694    5715       1
    5700    5673    5694    5718       1    5697    5673    5694    5712       2
    5697    5673    5694    5715       1    5697    5673    5694    5718       1
    5694    5712    5730    5736       2    5694    5712    5730    5739       2
    5691    5670    5688    5703       4    5691    5670    5688    5709       4
    5688    5703    5682    5706       4    5685    5667    5682    5703       4
    5685    5667    5682    5706       4    5682    5703    5688    5709       4
    5679    5658    5673    5694       2    5679    5658    5673    5697       1
    5679    5658    5673    5700       1    5676    5658    5673    5694       2
    5676    5658    5673    5697       1    5676    5658    5673    5700       1
    5673    5694    5712    5724       2    5673    5694    5712    5727       2
    5670    5655    5667    5685       4    5670    5688    5703    5721       4
    5667    5655    5670    5691       4    5667    5682    5703    5721       4
    5664    5646    5658    5673       2    5664    5646    5658    5676       1
    5664    5646    5658    5679       1    5661    5646    5658    5673       2
    5661    5646    5658    5676       1    5661    5646    5658    5679       1
    5658    5673    5694    5715       2    5658    5673    5694    5718       2
    5655    5667    5682    5706       4    5655    5670    5688    5709       4
    5652    5628    5646    5658       2    5652    5628    5646    5661       1
    5652    5628    5646    5664       1    5649    5628    5646    5658       2
    5649    5628    5646    5661       1    5649    5628    5646    5664       1
    5646    5658    5673    5697       2    5646    5658    5673    5700       2
    5643    5619    5637    5655       4    5640    5616    5637    5655       4
    5637    5655    5667    5685       4    5637    5655    5670    5691       4
    5634    5610    5628    5646       2    5634    5610    5628    5649       1
    5634    5610    5628    5652       1    5631    5610    5628    5646       2
    5631    5610    5628    5649       1    5631    5610    5628    5652       1
    5628    5646    5658    5676       2    5628    5646    5658    5679       2
    5622    5604    5619    5637       4    5622    5604    5619    5643       4
    5619    5637    5616    5640       4    5616    5637    5619    5643       4
    5613    5598    5607    5625       4    5610    5592    5607    5625       4
    5610    5628    5646    5661       2    5610    5628    5646    5664       2
    5607    5592    5610    5631       7    5607    5592    5610    5634       7
    5601    5589    5604    5622       4    5595    5580    5592    5607       4
    5595    5580    5592    5610       4    5592    5607    5598    5613       4
    5592    5610    5628    5649       8    5592    5610    5628    5652       8
    5589    5601    5616    5640       4    5589    5604    5619    5643       4
    5586    5601    5616    5640       4    5583    5571    5580    5595       4
    5583    5598    5607    5625       4    5580    5592    5607    5625       4
    5580    5592    5610    5631       7    5580    5592    5610    5634       7
    5577    5589    5604    5622       4    5574    5583    5598    5613       4
    5571    5583    5598    5613       4    5568    5571    5580    5595       4
    5940    5925    5937    5943       1    5940    5925    5937    5946       1
    5940    5925    5937    5949       1    5934    5925    5937    5943       1
    5934    5925    5937    5946       1    5934    5925    5937    5949       1
    5931    5922    5925    5934       1    5931    5922    5925    5937       2
    5931    5922    5925    5940       1    5928    5922    5925    5934       1
    5928    5922    5925    5937       2    5928    5922    5925    5940       1
    5922    5925    5937    5943       2    5922    5925    5937    5946       2
    5922    5925    5937    5949       2    5919    5904    5922    5925       2
    5919    5904    5922    5928       1    5919    5904    5922    5931       1
    5916    5904    5922    5925       2    5916    5904    5922    5928       1
    5916    5904    5922    5931       1    5910    5886    5904    5916       1
    5910    5886    5904    5919       1    5910    5886    5904    5922       2
    5907    5886    5904    5916       1    5907    5886    5904    5919       1
    5907    5886    5904    5922       2    5904    5922    5925    5934       2
    5904    5922    5925    5940       2    5901    5880    5895    5913       4
    5898    5874    5895    5913       4    5892    5865    5886    5904       2
    5892    5865    5886    5907       1    5892    5865    5886    5910       1
    5889    5865    5886    5904       2    5889    5865    5886    5907       1
    5889    5865    5886    5910       1    5886    5904    5922    5928       2
    5886    5904    5922    5931       2    5883    5862    5880    5895       4
    5883    5862    5880    5901       4    5880    5895    5874    5898       4
    5877    5859    5874    5895       4    5877    5859    5874    5898       4
    5874    5895    5880    5901       4    5871    5850    5865    5886       2
    5871    5850    5865    5889       1    5871    5850    5865    5892       1
    5868    5850    5865    5886       2    5868    5850    5865    5889       1
    5868    5850    5865    5892       1    5865    5886    5904    5916       2
    5865    5886    5904    5919       2    5862    5847    5859    5877       4
    5862    5880    5895    5913       4    5859    5847    5862    5883       4
    5859    5874    5895    5913       4    5856    5838    5850    5865       2
    5856    5838    5850    5868       1    5856    5838    5850    5871       1
    5853    5838    5850    5865       2    5853    5838    5850    5868       1
    5853    5838    5850    5871       1    5850    5865    5886    5907       2
    5850    5865    5886    5910       2    5847    5859    5874    5898       4
    5847    5862    5880    5901       4    5844    5820    5838    5850       2
    5844    5820    5838    5853       1    5844    5820    5838    5856       1
    5841    5820    5838    5850       2    5841    5820    5838    5853       1
    5841    5820    5838    5856       1    5838    5850    5865    5889       2
    5838    5850    5865    5892       2    5835    5811    5829    5847       4
    5832    5808    5829    5847       4    5829    5847    5859    5877       4
    5829    5847    5862    5883       4    5826    5802    5820    5838       2
    5826    5802    5820    5841       1    5826    5802    5820    5844       1
    5823    5802    5820    5838       2    5823    5802    5820    5841       1
    5823    5802    5820    5844       1    5820    5838    5850    5868       2
    5820    5838    5850    5871       2    5814    5796    5811    5829       4
    5814    5796    5811    5835       4    5811    5829    5808    5832       4
    5808    5829    5811    5835       4    5805    5790    5799    5817       4
    5802    5784    5799    5817       4    5802    5820    5838    5853       2
    5802    5820    5838    5856       2    5799    5784    5802    5823       7
    5799    5784    5802    5826       7    5793    5781    5796    5814       4
    5787    5772    5784    5799       4    5787    5772    5784    5802       4
    5784    5799    5790    5805       4    5784    5802    5820    5841       8
    5784    5802    5820    5844       8    5781    5793    5808    5832       4
    5781    5796    5811    5835       4    5778    5793    5808    5832       4
    5775    5763    5772    5787       4    5775    5790    5799    5817       4
    5772    5784    5799    5817       4    5772    5784    5802    5823       7
    5772    5784    5802    5826       7    5769    5781    5796    5814       4
    5766    5775    5790    5805       4    5763    5775    5790    5805       4
    5760    5763    5772    5787       4    6132    6117    6129    6135       1
    6132    6117    6129    6138       1    6132    6117    6129    6141       1
    6126    6117    6129    6135       1    6126    6117    6129    6138       1
    6126    6117    6129    6141       1    6123    6114    6117    6126       1
    6123    6114    6117    6129       2    6123    6114    6117    6132       1
    6120    6114    6117    6126       1    6120    6114    6117    6129       2
    6120    6114    6117    6132       1    6114    6117    6129    6135       2
    6114    6117    6129    6138       2    6114    6117    6129    6141       2
    6111    6096    6114    6117       2    6111    6096    6114    6120       1
    6111    6096    6114    6123       1    6108    6096    6114    6117       2
    6108    6096    6114    6120       1    6108    6096    6114    6123       1
    6102    6078    6096    6108       1    6102    6078    6096    6111       1
    6102    6078    6096    6114       2    6099    6078    6096    6108       1
    6099    6078    6096    6111       1    6099    6078    6096    6114       2
    6096    6114    6117    6126       2    6096    6114    6117    6132       2
    6093    6072    6087    6105       4    6090    6066    6087    6105       4
    6084    6057    6078    6096       2    6084    6057    6078    6099       1
    6084    6057    6078    6102       1    6081    6057    6078    6096       2
    6081    6057    6078    6099       1    6081    6057    6078    6102       1
    6078    6096    6114    6120       2    6078    6096    6114    6123       2
    6075    6054    6072    6087       4    6075    6054    6072    6093       4
    6072    6087    6066    6090       4    6069    6051    6066    6087       4
    6069    6051    6066    6090       4    6066    6087    6072    6093       4
    6063    6042    6057    6078       2    6063    6042    6057    6081       1
    6063    6042    6057    6084       1    6060    6042    6057    6078       2
    6060    6042    6057    6081       1    6060    6042    6057    6084       1
    6057    6078    6096    6108       2    6057    6078    6096    6111       2
    6054    6039    6051    6069       4    6054    6072    6087    6105       4
    6051    6039    6054    6075       4    6051    6066    6087    6105       4
    6048    6030    6042    6057       2    6048    6030    6042    6060       1
    6048    6030    6042    6063       1    6045    6030    6042    6057       2
    6045    6030    6042    6060       1    6045    6030    6042    6063       1
    6042    6057    6078    6099       2    6042    6057    6078    6102       2
    6039    6051    6066    6090       4    6039    6054    6072    6093       4
    6036    6012    6030    6042       2    6036    6012    6030    6045       1
    6036    6012    6030    6048       1    6033    6012    6030    6042       2
    6033    6012    6030    6045       1    6033    6012    6030    6048       1
    6030    6042    6057    6081       2    6030    6042    6057    6084       2
    6027    6003    6021    6039       4    6024    6000    6021    6039       4
    6021    6039    6051    6069       4    6021    6039    6054    6075       4
    6018    5994    6012    6030       2    6018    5994    6012    6033       1
    6018    5994    6012    6036       1    6015    5994    6012    6030       2
    6015    5994    6012    6033       1    6015    5994    6012    6036       1
    6012    6030    6042    6060       2    6012    6030    6042    6063       2
    6006    5988    6003    6021       4    6006    5988    6003    6027       4
    6003    6021    6000    6024       4    6000    6021    6003    6027       4
    5997    5982    5991    6009       4    5994    5976    5991    6009       4
    5994    6012    6030    6045       2    5994    6012    6030    6048       2
    5991    5976    5994    6015       7    5991    5976    5994    6018       7
    5985    5973    5988    6006       4    5979    5964    5976    5991       4
    5979    5964    5976    5994       4    5976    5991    5982    5997       4
    5976    5994    6012    6033       8    5976    5994    6012    6036       8
    5973    5985    6000    6024       4    5973    5988    6003    6027       4
    5970    5985    6000    6024       4    5967    5955    5964    5979       4
    5967    5982    5991    6009       4    5964    5976    5991    6009       4
    5964    5976    5994    6015       7    5964    5976    5994    6018       7
    5961    5973    5988    6006       4    5958    5967    5982    5997       4
    5955    5967    5982    5997       4    5952    5955    5964    5979       4
    6324    6309    6321    6327       1    6324    6309    6321    6330       1
    6324    6309    6321    6333       1    6318    6309    6321    6327       1
    6318    6309    6321    6330       1    6318    6309    6321    6333       1
    6315    6306    6309    6318       1    6315    6306    6309    6321       2
    6315    6306    6309    6324       1    6312    6306    6309    6318       1
    6312    6306    6309    6321       2    6312    6306    6309    6324       1
    6306    6309    6321    6327       2    6306    6309    6321    6330       2
    6306    6309    6321    6333       2    6303    6288    6306    6309       2
    6303    6288    6306    6312       1    6303    6288    6306    6315       1
    6300    6288    6306    6309       2    6300    6288    6306    6312       1
    6300    6288    6306    6315       1    6294    6270    6288    6300       1
    6294    6270    6288    6303       1    6294    6270    6288    6306       2
    6291    6270    6288    6300       1    6291    6270    6288    6303       1
    6291    6270    6288    6306       2    6288    6306    6309    6318       2
    6288    6306    6309    6324       2    6285    6264    6279    6297       4
    6282    6258    6279    6297       4    6276    6249    6270    6288       2
    6276    6249    6270    6291       1    6276    6249    6270    6294       1
    6273    6249    6270    6288       2    6273    6249    6270    6291       1
    6273    6249    6270    6294       1    6270    6288    6306    6312       2
    6270    6288    6306    6315       2    6267    6246    6264    6279       4
    6267    6246    6264    6285       4    6264    6279    6258    6282       4
    6261    6243    6258    6279       4    6261    6243    6258    6282       4
    6258    6279    6264    6285       4    6255    6234    6249    6270       2
    6255    6234    6249    6273       1    6255    6234    6249    6276       1
    6252    6234    6249    6270       2    6252    6234    6249    6273       1
    6252    6234    6249    6276       1    6249    6270    6288    6300       2
    6249    6270    6288    6303       2    6246    6231    6243    6261       4
    6246    6264    6279    6297       4    6243    6231    6246    6267       4
    6243    6258    6279    6297       4    6240    6222    6234    6249       2
    6240    6222    6234    6252       1    6240    6222    6234    6255       1
    6237    6222    6234    6249       2    6237    6222    6234    6252       1
    6237    6222    6234    6255       1    6234    6249    6270    6291       2
    6234    6249    6270    6294       2    6231    6243    6258    6282       4
    6231    6246    6264    6285       4    6228    6204    6222    6234       2
    6228    6204    6222    6237       1    6228    6204    6222    6240       1
    6225    6204    6222    6234       2    6225    6204    6222    6237       1
    6225    6204    6222    6240       1    6222    6234    6249    6273       2
    6222    6234    6249    6276       2    6219    6195    6213    6231       4
    6216    6192    6213    6231       4    6213    6231    6243    6261       4
    6213    6231    6246    6267       4    6210    6186    6204    6222       2
    6210    6186    6204    6225       1    6210    6186    6204    6228       1
    6207    6186    6204    6222       2    6207    6186    6204    6225       1
    6207    6186    6204    6228       1    6204    6222    6234    6252       2
    6204    6222    6234    6255       2    6198    6180    6195    6213       4
    6198    6180    6195    6219       4    6195    6213    6192    6216       4
    6192    6213    6195    6219       4    6189    6174    6183    6201       4
    6186    6168    6183    6201       4    6186    6204    6222    6237       2
    6186    6204    6222    6240       2    6183    6168    6186    6207       7
    6183    6168    6186    6210       7    6177    6165    6180    6198       4
    6171    6156    6168    6183       4    6171    6156    6168    6186       4
    6168    6183    6174    6189       4    6168    6186    6204    6225       8
    6168    6186    6204    6228       8    6165    6177    6192    6216       4
    6165    6180    6195    6219       4    6162    6177    6192    6216       4
    6159    6147    6156    6171       4    6159    6174    6183    6201       4
    6156    6168    6183    6201       4    6156    6168    6186    6207       7
    6156    6168    6186    6210       7    6153    6165    6180    6198       4
    6150    6159    6174    6189       4    6147    6159    6174    6189       4
    6144    6147    6156    6171       4    6516    6501    6513    6519       1
    6516    6501    6513    6522       1    6516    6501    6513    6525       1
    6510    6501    6513    6519       1    6510    6501    6513    6522       1
    6510    6501    6513    6525       1    6507    6498    6501    6510       1
    6507    6498    6501    6513       2    6507    6498    6501    6516       1
    6504    6498    6501    6510       1    6504    6498    6501    6513       2
    6504    6498    6501    6516       1    6498    6501    6513    6519       2
    6498    6501    6513    6522       2    6498    6501    6513    6525       2
    6495    6480    6498    6501       2    6495    6480    6498    6504       1
    6495    6480    6498    6507       1    6492    6480    6498    6501       2
    6492    6480    6498    6504       1    6492    6480    6498    6507       1
    6486    6462    6480    6492       1    6486    6462    6480    6495       1
    6486    6462    6480    6498       2    6483    6462    6480    6492       1
    6483    6462    6480    6495       1    6483    6462    6480    6498       2
    6480    6498    6501    6510       2    6480    6498    6501    6516       2
    6477    6456    6471    6489       4    6474    6450    6471    6489       4
    6468    6441    6462    6480       2    6468    6441    6462    6483       1
    6468    6441    6462    6486       1    6465    6441    6462    6480       2
    6465    6441    6462    6483       1    6465    6441    6462    6486       1
    6462    6480    6498    6504       2    6462    6480    6498    6507       2
    6459    6438    6456    6471       4    6459    6438    6456    6477       4
    6456    6471    6450    6474       4    6453    6435    6450    6471       4
    6453    6435    6450    6474       4    6450    6471    6456    6477       4
    6447    6426    6441    6462       2    6447    6426    6441    6465       1
    6447    6426    6441    6468       1    6444    6426    6441    6462       2
    6444    6426    6441    6465       1    6444    6426    6441    6468       1
    6441    6462    6480    6492       2    6441    6462    6480    6495       2
    6438    6423    6435    6453       4    6438    6456    6471    6489       4
    6435    6423    6438    6459       4    6435    6450    6471    6489       4
    6432    6414    6426    6441       2    6432    6414    6426    6444       1
    6432    6414    6426    6447       1    6429    6414    6426    6441       2
    6429    6414    6426    6444       1    6429    6414    6426    6447       1
    6426    6441    6462    6483       2    6426    6441    6462    6486       2
    6423    6435    6450    6474       4    6423    6438    6456    6477       4
    6420    6396    6414    6426       2    6420    6396    6414    6429       1
    6420    6396    6414    6432       1    6417    6396    6414    6426       2
    6417    6396    6414    6429       1    6417    6396    6414    6432       1
    6414    6426    6441    6465       2    6414    6426    6441    6468       2
    6411    6387    6405    6423       4    6408    6384    6405    6423       4
    6405    6423    6435    6453       4    6405    6423    6438    6459       4
    6402    6378    6396    6414       2    6402    6378    6396    6417       1
    6402    6378    6396    6420       1    6399    6378    6396    6414       2
    6399    6378    6396    6417       1    6399    6378    6396    6420       1
    6396    6414    6426    6444       2    6396    6414    6426    6447       2
    6390    6372    6387    6405       4    6390    6372    6387    6411       4
    6387    6405    6384    6408       4    6384    6405    6387    6411       4
    6381    6366    6375    6393       4    6378    6360    6375    6393       4
    6378    6396    6414    6429       2    6378    6396    6414    6432       2
    6375    6360    6378    6399       7    6375    6360    6378    6402       7
    6369    6357    6372    6390       4    6363    6348    6360    6375       4
    6363    6348    6360    6378       4    6360    6375    6366    6381       4
    6360    6378    6396    6417       8    6360    6378    6396    6420       8
    6357    6369    6384    6408       4    6357    6372    6387    6411       4
    6354    6369    6384    6408       4    6351    6339    6348    6363       4
    6351    6366    6375    6393       4    6348    6360    6375    6393       4
    6348    6360    6378    6399       7    6348    6360    6378    6402       7
    6345    6357    6372    6390       4    6342    6351    6366    6381       4
    6339    6351    6366    6381       4    6336    6339    6348    6363       4
    6708    6693    6705    6711       1    6708    6693    6705    6714       1
    6708    6693    6705    6717       1    6702    6693    6705    6711       1
    6702    6693    6705    6714       1    6702    6693    6705    6717       1
    6699    6690    6693    6702       1    6699    6690    6693    6705       2
    6699    6690    6693    6708       1    6696    6690    6693    6702       1
    6696    6690    6693    6705       2    6696    6690    6693    6708       1
    6690    6693    6705    6711       2    6690    6693    6705    6714       2
    6690    6693    6705    6717       2    6687    6672    6690    6693       2
    6687    6672    6690    6696       1    6687    6672    6690    6699       1
    6684    6672    6690    6693       2    6684    6672    6690    6696       1
    6684    6672    6690    6699       1    6678    6654    6672    6684       1
    6678    6654    6672    6687       1    6678    6654    6672    6690       2
    6675    6654    6672    6684       1    6675    6654    6672    6687       1
    6675    6654    6672    6690       2    6672    6690    6693    6702       2
    6672    6690    6693    6708       2    6669    6648    6663    6681       4
    6666    6642    6663    6681       4    6660    6633    6654    6672       2
    6660    6633    6654    6675       1    6660    6633    6654    6678       1
    6657    6633    6654    6672       2    6657    6633    6654    6675       1
    6657    6633    6654    6678       1    6654    6672    6690    6696       2
    6654    6672    6690    6699       2    6651    6630    6648    6663       4
    6651    6630    6648    6669       4    6648    6663    6642    6666       4
    6645    6627    6642    6663       4    6645    6627    6642    6666       4
    6642    6663    6648    6669       4    6639    6618    6633    6654       2
    6639    6618    6633    6657       1    6639    6618    6633    6660       1
    6636    6618    6633    6654       2    6636    6618    6633    6657       1
    6636    6618    6633    6660       1    6633    6654    6672    6684       2
    6633    6654    6672    6687       2    6630    6615    6627    6645       4
    6630    6648    6663    6681       4    6627    6615    6630    6651       4
    6627    6642    6663    6681       4    6624    6606    6618    6633       2
    6624    6606    6618    6636       1    6624    6606    6618    6639       1
    6621    6606    6618    6633       2    6621    6606    6618    6636       1
    6621    6606    6618    6639       1    6618    6633    6654    6675       2
    6618    6633    6654    6678       2    6615    6627    6642    6666       4
    6615    6630    6648    6669       4    6612    6588    6606    6618       2
    6612    6588    6606    6621       1    6612    6588    6606    6624       1
    6609    6588    6606    6618       2    6609    6588    6606    6621       1
    6609    6588    6606    6624       1    6606    6618    6633    6657       2
    6606    6618    6633    6660       2    6603    6579    6597    6615       4
    6600    6576    6597    6615       4    6597    6615    6627    6645       4
    6597    6615    6630    6651       4    6594    6570    6588    6606       2
    6594    6570    6588    6609       1    6594    6570    6588    6612       1
    6591    6570    6588    6606       2    6591    6570    6588    6609       1
    6591    6570    6588    6612       1    6588    6606    6618    6636       2
    6588    6606    6618    6639       2    6582    6564    6579    6597       4
    6582    6564    6579    6603       4    6579    6597    6576    6600       4
    6576    6597    6579    6603       4    6573    6558    6567    6585       4
    6570    6552    6567    6585       4    6570    6588    6606    6621       2
    6570    6588    6606    6624       2    6567    6552    6570    6591       7
    6567    6552    6570    6594       7    6561    6549    6564    6582       4
    6555    6540    6552    6567       4    6555    6540    6552    6570       4
    6552    6567    6558    6573       4    6552    6570    6588    6609       8
    6552    6570    6588    6612       8    6549    6561    6576    6600       4
    6549    6564    6579    6603       4    6546    6561    6576    6600       4
    6543    6531    6540    6555       4    6543    6558    6567    6585       4
    6540    6552    6567    6585       4    6540    6552    6570    6591       7
    6540    6552    6570    6594       7    6537    6549    6564    6582       4
    6534    6543    6558    6573       4    6531    6543    6558    6573       4
    6528    6531    6540    6555       4    6900    6885    6897    6903       1
    6900    6885    6897    6906       1    6900    6885    6897    6909       1
    6894    6885    6897    6903       1    6894    6885    6897    6906       1
    6894    6885    6897    6909       1    6891    6882    6885    6894       1
    6891    6882    6885    6897       2    6891    6882    6885    6900       1
    6888    6882    6885    6894       1    6888    6882    6885    6897       2
    6888    6882    6885    6900       1    6882    6885    6897    6903       2
    6882    6885    6897    6906       2    6882    6885    6897    6909       2
    6879    6864    6882    6885       2    6879    6864    6882    6888       1
    6879    6864    6882    6891       1    6876    6864    6882    6885       2
    6876    6864    6882    6888       1    6876    6864    6882    6891       1
    6870    6846    6864    6876       1    6870    6846    6864    6879       1
    6870    6846    6864    6882       2    6867    6846    6864    6876       1
    6867    6846    6864    6879       1    6867    6846    6864    6882       2
    6864    6882    6885    6894       2    6864    6882    6885    6900       2
    6861    6840    6855    6873       4    6858    6834    6855    6873       4
    6852    6825    6846    6864       2    6852    6825    6846    6867       1
    6852    6825    6846    6870       1    6849    6825    6846    6864       2
    6849    6825    6846    6867       1    6849    6825    6846    6870       1
    6846    6864    6882    6888       2    6846    6864    6882    6891       2
    6843    6822    6840    6855       4    6843    6822    6840    6861       4
    6840    6855    6834    6858       4    6837    6819    6834    6855       4
    6837    6819    6834    6858       4    6834    6855    6840    6861       4
    6831    6810    6825    6846       2    6831    6810    6825    6849       1
    6831    6810    6825    6852       1    6828    6810    6825    6846       2
    6828    6810    6825    6849       1    6828    6810    6825    6852       1
    6825    6846    6864    6876       2    6825    6846    6864    6879       2
    6822    6807    6819    6837       4    6822    6840    6855    6873       4
    6819    6807    6822    6843       4    6819    6834    6855    6873       4
    6816    6798    6810    6825       2    6816    6798    6810    6828       1
    6816    6798    6810    6831       1    6813    6798    6810    6825       2
    6813    6798    6810    6828       1    6813    6798    6810    6831       1
    6810    6825    6846    6867       2    6810    6825    6846    6870       2
    6807    6819    6834    6858       4    6807    6822    6840    6861       4
    6804    6780    6798    6810       2    6804    6780    6798    6813       1
    6804    6780    6798    6816       1    6801    6780    6798    6810       2
    6801    6780    6798    6813       1    6801    6780    6798    6816       1
    6798    6810    6825    6849       2    6798    6810    6825    6852       2
    6795    6771    6789    6807       4    6792    6768    6789    6807       4
    6789    6807    6819    6837       4    6789    6807    6822    6843       4
    6786    6762    6780    6798       2    6786    6762    6780    6801       1
    6786    6762    6780    6804       1    6783    6762    6780    6798       2
    6783    6762    6780    6801       1    6783    6762    6780    6804       1
    6780    6798    6810    6828       2    6780    6798    6810    6831       2
    6774    6756    6771    6789       4    6774    6756    6771    6795       4
    6771    6789    6768    6792       4    6768    6789    6771    6795       4
    6765    6750    6759    6777       4    6762    6744    6759    6777       4
    6762    6780    6798    6813       2    6762    6780    6798    6816       2
    6759    6744    6762    6783       7    6759    6744    6762    6786       7
    6753    6741    6756    6774       4    6747    6732    6744    6759       4
    6747    6732    6744    6762       4    6744    6759    6750    6765       4
    6744    6762    6780    6801       8    6744    6762    6780    6804       8
    6741    6753    6768    6792       4    6741    6756    6771    6795       4
    6738    6753    6768    6792       4    6735    6723    6732    6747       4
    6735    6750    6759    6777       4    6732    6744    6759    6777       4
    6732    6744    6762    6783       7    6732    6744    6762    6786       7
    6729    6741    6756    6774       4    6726    6735    6750    6765       4
    6723    6735    6750    6765       4    6720    6723    6732    6747       4
    7092    7077    7089    7095       1    7092    7077    7089    7098       1
    7092    7077    7089    7101       1    7086    7077    7089    7095       1
    7086    7077    7089    7098       1    7086    7077    7089    7101       1
    7083    7074    7077    7086       1    7083    7074    7077    7089       2
    7083    7074    7077    7092       1    7080    7074    7077    7086       1
    7080    7074    7077    7089       2    7080    7074    7077    7092       1
    7074    7077    7089    7095       2    7074    7077    7089    7098       2
    7074    7077    7089    7101       2    7071    7056    7074    7077       2
    7071    7056    7074    7080       1    7071    7056    7074    7083       1
    7068    7056    7074    7077       2    7068    7056    7074    7080       1
    7068    7056    7074    7083       1    7062    7038    7056    7068       1
    7062    7038    7056    7071       1    7062    7038    7056    7074       2
    7059    7038    7056    7068       1    7059    7038    7056    7071       1
    7059    7038    7056    7074       2    7056    7074    7077    7086       2
    7056    7074    7077    7092       2    7053    7032    7047    7065       4
    7050    7026    7047    7065       4    7044    7017    7038    7056       2
    7044    7017    7038    7059       1    7044    7017    7038    7062       1
    7041    7017    7038    7056       2    7041    7017    7038    7059       1
    7041    7017    7038    7062       1    7038    7056    7074    7080       2
    7038    7056    7074    7083       2    7035    7014    7032    7047       4
    7035    7014    7032    7053       4    7032    7047    7026    7050       4
    7029    7011    7026    7047       4    7029    7011    7026    7050       4
    7026    7047    7032    7053       4    7023    7002    7017    7038       2
    7023    7002    7017    7041       1    7023    7002    7017    7044       1
    7020    7002    7017    7038       2    7020    7002    7017    7041       1
    7020    7002    7017    7044       1    7017    7038    7056    7068       2
    7017    7038    7056    7071       2    7014    6999    7011    7029       4
    7014    7032    7047    7065       4    7011    6999    7014    7035       4
    7011    7026    7047    7065       4    7008    6990    7002    7017       2
    7008    6990    7002    7020       1    7008    6990    7002    7023       1
    7005    6990    7002    7017       2    7005    6990    7002    7020       1
    7005    6990    7002    7023       1    7002    7017    7038    7059       2
    7002    7017    7038    7062       2    6999    7011    7026    7050       4
    6999    7014    7032    7053       4    6996    6972    6990    7002       2
    6996    6972    6990    7005       1    6996    6972    6990    7008       1
    6993    6972    6990    7002       2    6993    6972    6990    7005       1
    6993    6972    6990    7008       1    6990    7002    7017    7041       2
    6990    7002    7017    7044       2    6987    6963    6981    6999       4
    6984    6960    6981    6999       4    6981    6999    7011    7029       4
    6981    6999    7014    7035       4    6978    6954    6972    6990       2
    6978    6954    6972    6993       1    6978    6954    6972    6996       1
    6975    6954    6972    6990       2    6975    6954    6972    6993       1
    6975    6954    6972    6996       1    6972    6990    7002    7020       2
    6972    6990    7002    7023       2    6966    6948    6963    6981       4
    6966    6948    6963    6987       4    6963    6981    6960    6984       4
    6960    6981    6963    6987       4    6957    6942    6951    6969       4
    6954    6936    6951    6969       4    6954    6972    6990    7005       2
    6954    6972    6990    7008       2    6951    6936    6954    6975       7
    6951    6936    6954    6978       7    6945    6933    6948    6966       4
    6939    6924    6936    6951       4    6939    6924    6936    6954       4
    6936    6951    6942    6957       4    6936    6954    6972    6993       8
    6936    6954    6972    6996       8    6933    6945    6960    6984       4
    6933    6948    6963    6987       4    6930    6945    6960    6984       4
    6927    6915    6924    6939       4    6927    6942    6951    6969       4
    6924    6936    6951    6969       4    6924    6936    6954    6975       7
    6924    6936    6954    6978       7    6921    6933    6948    6966       4
    6918    6927    6942    6957       4    6915    6927    6942    6957       4
    6912    6915    6924    6939       4    7284    7269    7281    7287       1
    7284    7269    7281    7290       1    7284    7269    7281    7293       1
    7278    7269    7281    7287       1    7278    7269    7281    7290       1
    7278    7269    7281    7293       1    7275    7266    7269    7278       1
    7275    7266    7269    7281       2    7275    7266    7269    7284       1
    7272    7266    7269    7278       1    7272    7266    7269    7281       2
    7272    7266    7269    7284       1    7266    7269    7281    7287       2
    7266    7269    7281    7290       2    7266    7269    7281    7293       2
    7263    7248    7266    7269       2    7263    7248    7266    7272       1
    7263    7248    7266    7275       1    7260    7248    7266    7269       2
    7260    7248    7266    7272       1    7260    7248    7266    7275       1
    7254    7230    7248    7260       1    7254    7230    7248    7263       1
    7254    7230    7248    7266       2    7251    7230    7248    7260       1
    7251    7230    7248    7263       1    7251    7230    7248    7266       2
    7248    7266    7269    7278       2    7248    7266    7269    7284       2
    7245    7224    7239    7257       4    7242    7218    7239    7257       4
    7236    7209    7230    7248       2    7236    7209    7230    7251       1
    7236    7209    7230    7254       1    7233    7209    7230    7248       2
    7233    7209    7230    7251       1    7233    7209    7230    7254       1
    7230    7248    7266    7272       2    7230    7248    7266    7275       2
    7227    7206    7224    7239       4    7227    7206    7224    7245       4
    7224    7239    7218    7242       4    7221    7203    7218    7239       4
    7221    7203    7218    7242       4    7218    7239    7224    7245       4
    7215    7194    7209    7230       2    7215    7194    7209    7233       1
    7215    7194    7209    7236       1    7212    7194    7209    7230       2
    7212    7194    7209    7233       1    7212    7194    7209    7236       1
    7209    7230    7248    7260       2    7209    7230    7248    7263       2
    7206    7191    7203    7221       4    7206    7224    7239    7257       4
    7203    7191    7206    7227       4    7203    7218    7239    7257       4
    7200    7182    7194    7209       2    7200    7182    7194    7212       1
    7200    7182    7194    7215       1    7197    7182    7194    7209       2
    7197    7182    7194    7212       1    7197    7182    7194    7215       1
    7194    7209    7230    7251       2    7194    7209    7230    7254       2
    7191    7203    7218    7242       4    7191    7206    7224    7245       4
    7188    7164    7182    7194       2    7188    7164    7182    7197       1
    7188    7164    7182    7200       1    7185    7164    7182    7194       2
    7185    7164    7182    7197       1    7185    7164    7182    7200       1
    7182    7194    7209    7233       2    7182    7194    7209    7236       2
    7179    7155    7173    7191       4    7176    7152    7173    7191       4
    7173    7191    7203    7221       4    7173    7191    7206    7227       4
    7170    7146    7164    7182       2    7170    7146    7164    7185       1
    7170    7146    7164    7188       1    7167    7146    7164    7182       2
    7167    7146    7164    7185       1    7167    7146    7164    7188       1
    7164    7182    7194    7212       2    7164    7182    7194    7215       2
    7158    7140    7155    7173       4    7158    7140    7155    7179       4
    7155    7173    7152    7176       4    7152    7173    7155    7179       4
    7149    7134    7143    7161       4    7146    7128    7143    7161       4
    7146    7164    7182    7197       2    7146    7164    7182    7200       2
    7143    7128    7146    7167       7    7143    7128    7146    7170       7
    7137    7125    7140    7158       4    7131    7116    7128    7143       4
    7131    7116    7128    7146       4    7128    7143    7134    7149       4
    7128    7146    7164    7185       8    7128    7146    7164    7188       8
    7125    7137    7152    7176       4    7125    7140    7155    7179       4
    7122    7137    7152    7176       4    7119    7107    7116    7131       4
    7119    7134    7143    7161       4    7116    7128    7143    7161       4
    7116    7128    7146    7167       7    7116    7128    7146    7170       7
    7113    7125    7140    7158       4    7110    7119    7134    7149       4
    7107    7119    7134    7149       4    7104    7107    7116    7131       4
    7476    7461    7473    7479       1    7476    7461    7473    7482       1
    7476    7461    7473    7485       1    7470    7461    7473    7479       1
    7470    7461    7473    7482       1    7470    7461    7473    7485       1
    7467    7458    7461    7470       1    7467    7458    7461    7473       2
    7467    7458    7461    7476       1    7464    7458    7461    7470       1
    7464    7458    7461    7473       2    7464    7458    7461    7476       1
    7458    7461    7473    7479       2    7458    7461    7473    7482       2
    7458    7461    7473    7485       2    7455    7440    7458    7461       2
    7455    7440    7458    7464       1    7455    7440    7458    7467       1
    7452    7440    7458    7461       2    7452    7440    7458    7464       1
    7452    7440    7458    7467       1    7446    7422    7440    7452       1
    7446    7422    7440    7455       1    7446    7422    7440    7458       2
    7443    7422    7440    7452       1    7443    7422    7440    7455       1
    7443    7422    7440    7458       2    7440    7458    7461    7470       2
    7440    7458    7461    7476       2    7437    7416    7431    7449       4
    7434    7410    7431    7449       4    7428    7401    7422    7440       2
    7428    7401    7422    7443       1    7428    7401    7422    7446       1
    7425    7401    7422    7440       2    7425    7401    7422    7443       1
    7425    7401    7422    7446       1    7422    7440    7458    7464       2
    7422    7440    7458    7467       2    7419    7398    7416    7431       4
    7419    7398    7416    7437       4    7416    7431    7410    7434       4
    7413    7395    7410    7431       4    7413    7395    7410    7434       4
    7410    7431    7416    7437       4    7407    7386    7401    7422       2
    7407    7386    7401    7425       1    7407    7386    7401    7428       1
    7404    7386    7401    7422       2    7404    7386    7401    7425       1
    7404    7386    7401    7428       1    7401    7422    7440    7452       2
    7401    7422    7440    7455       2    7398    7383    7395    7413       4
    7398    7416    7431    7449       4    7395    7383    7398    7419       4
    7395    7410    7431    7449       4    7392    7374    7386    7401       2
    7392    7374    7386    7404       1    7392    7374    7386    7407       1
    7389    7374    7386    7401       2    7389    7374    7386    7404       1
    7389    7374    7386    7407       1    7386    7401    7422    7443       2
    7386    7401    7422    7446       2    7383    7395    7410    7434       4
    7383    7398    7416    7437       4    7380    7356    7374    7386       2
    7380    7356    7374    7389       1    7380    7356    7374    7392       1
    7377    7356    7374    7386       2    7377    7356    7374    7389       1
    7377    7356    7374    7392       1    7374    7386    7401    7425       2
    7374    7386    7401    7428       2    7371    7347    7365    7383       4
    7368    7344    7365    7383       4    7365    7383    7395    7413       4
    7365    7383    7398    7419       4    7362    7338    7356    7374       2
    7362    7338    7356    7377       1    7362    7338    7356    7380       1
    7359    7338    7356    7374       2    7359    7338    7356    7377       1
    7359    7338    7356    7380       1    7356    7374    7386    7404       2
    7356    7374    7386    7407       2    7350    7332    7347    7365       4
    7350    7332    7347    7371       4    7347    7365    7344    7368       4
    7344    7365    7347    7371       4    7341    7326    7335    7353       4
    7338    7320    7335    7353       4    7338    7356    7374    7389       2
    7338    7356    7374    7392       2    7335    7320    7338    7359       7
    7335    7320    7338    7362       7    7329    7317    7332    7350       4
    7323    7308    7320    7335       4    7323    7308    7320    7338       4
    7320    7335    7326    7341       4    7320    7338    7356    7377       8
    7320    7338    7356    7380       8    7317    7329    7344    7368       4
    7317    7332    7347    7371       4    7314    7329    7344    7368       4
    7311    7299    7308    7323       4    7311    7326    7335    7353       4
    7308    7320    7335    7353       4    7308    7320    7338    7359       7
    7308    7320    7338    7362       7    7305    7317    7332    7350       4
    7302    7311    7326    7341       4    7299    7311    7326    7341       4
    7296    7299    7308    7323       4    7668    7653    7665    7671       1
    7668    7653    7665    7674       1    7668    7653    7665    7677       1
    7662    7653    7665    7671       1    7662    7653    7665    7674       1
    7662    7653    7665    7677       1    7659    7650    7653    7662       1
    7659    7650    7653    7665       2    7659    7650    7653    7668       1
    7656    7650    7653    7662       1    7656    7650    7653    7665       2
    7656    7650    7653    7668       1    7650    7653    7665    7671       2
    7650    7653    7665    7674       2    7650    7653    7665    7677       2
    7647    7632    7650    7653       2    7647    7632    7650    7656       1
    7647    7632    7650    7659       1    7644    7632    7650    7653       2
    7644    7632    7650    7656       1    7644    7632    7650    7659       1
    7638    7614    7632    7644       1    7638    7614    7632    7647       1
    7638    7614    7632    7650       2    7635    7614    7632    7644       1
    7635    7614    7632    7647       1    7635    7614    7632    7650       2
    7632    7650    7653    7662       2    7632    7650    7653    7668       2
    7629    7608    7623    7641       4    7626    7602    7623    7641       4
    7620    7593    7614    7632       2    7620    7593    7614    7635       1
    7620    7593    7614    7638       1    7617    7593    7614    7632       2
    7617    7593    7614    7635       1    7617    7593    7614    7638       1
    7614    7632    7650    7656       2    7614    7632    7650    7659       2
    7611    7590    7608    7623       4    7611    7590    7608    7629       4
    7608    7623    7602    7626       4    7605    7587    7602    7623       4
    7605    7587    7602    7626       4    7602    7623    7608    7629       4
    7599    7578    7593    7614       2    7599    7578    7593    7617       1
    7599    7578    7593    7620       1    7596    7578    7593    7614       2
    7596    7578    7593    7617       1    7596    7578    7593    7620       1
    7593    7614    7632    7644       2    7593    7614    7632    7647       2
    7590    7575    7587    7605       4    7590    7608    7623    7641       4
    7587    7575    7590    7611       4    7587    7602    7623    7641       4
    7584    7566    7578    7593       2    7584    7566    7578    7596       1
    7584    7566    7578    7599       1    7581    7566    7578    7593       2
    7581    7566    7578    7596       1    7581    7566    7578    7599       1
    7578    7593    7614    7635       2    7578    7593    7614    7638       2
    7575    7587    7602    7626       4    7575    7590    7608    7629       4
    7572    7548    7566    7578       2    7572    7548    7566    7581       1
    7572    7548    7566    7584       1    7569    7548    7566    7578       2
    7569    7548    7566    7581       1    7569    7548    7566    7584       1
    7566    7578    7593    7617       2    7566    7578    7593    7620       2
    7563    7539    7557    7575       4    7560    7536    7557    7575       4
    7557    7575    7587    7605       4    7557    7575    7590    7611       4
    7554    7530    7548    7566       2    7554    7530    7548    7569       1
    7554    7530    7548    7572       1    7551    7530    7548    7566       2
    7551    7530    7548    7569       1    7551    7530    7548    7572       1
    7548    7566    7578    7596       2    7548    7566    7578    7599       2
    7542    7524    7539    7557       4    7542    7524    7539    7563       4
    7539    7557    7536    7560       4    7536    7557    7539    7563       4
    7533    7518    7527    7545       4    7530    7512    7527    7545       4
    7530    7548    7566    7581       2    7530    7548    7566    7584       2
    7527    7512    7530    7551       7    7527    7512    7530    7554       7
    7521    7509    7524    7542       4    7515    7500    7512    7527       4
    7515    7500    7512    7530       4    7512    7527    7518    7533       4
    7512    7530    7548    7569       8    7512    7530    7548    7572       8
    7509    7521    7536    7560       4    7509    7524    7539    7563       4
    7506    7521    7536    7560       4    7503    7491    7500    7515       4
    7503    7518    7527    7545       4    7500    7512    7527    7545       4
    7500    7512    7530    7551       7    7500    7512    7530    7554       7
    7497    7509    7524    7542       4    7494    7503    7518    7533       4
    7491    7503    7518    7533       4    7488    7491    7500    7515       4
    7860    7845    7857    7863       1    7860    7845    7857    7866       1
    7860    7845    7857    7869       1    7854    7845    7857    7863       1
    7854    7845    7857    7866       1    7854    7845    7857    7869       1
    7851    7842    7845    7854       1    7851    7842    7845    7857       2
    7851    7842    7845    7860       1    7848    7842    7845    7854       1
    7848    7842    7845    7857       2    7848    7842    7845    7860       1
    7842    7845    7857    7863       2    7842    7845    7857    7866       2
    7842    7845    7857    7869       2    7839    7824    7842    7845       2
    7839    7824    7842    7848       1    7839    7824    7842    7851       1
    7836    7824    7842    7845       2    7836    7824    7842    7848       1
    7836    7824    7842    7851       1    7830    7806    7824    7836       1
    7830    7806    7824    7839       1    7830    7806    7824    7842       2
    7827    7806    7824    7836       1    7827    7806    7824    7839       1
    7827    7806    7824    7842       2    7824    7842    7845    7854       2
    7824    7842    7845    7860       2    7821    7800    7815    7833       4
    7818    7794    7815    7833       4    7812    7785    7806    7824       2
    7812    7785    7806    7827       1    7812    7785    7806    7830       1
    7809    7785    7806    7824       2    7809    7785    7806    7827       1
    7809    7785    7806    7830       1    7806    7824    7842    7848       2
    7806    7824    7842    7851       2    7803    7782    7800    7815       4
    7803    7782    7800    7821       4    7800    7815    7794    7818       4
    7797    7779    7794    7815       4    7797    7779    7794    7818       4
    7794    7815    7800    7821       4    7791    7770    7785    7806       2
    7791    7770    7785    7809       1    7791    7770    7785    7812       1
    7788    7770    7785    7806       2    7788    7770    7785    7809       1
    7788    7770    7785    7812       1    7785    7806    7824    7836       2
    7785    7806    7824    7839       2    7782    7767    7779    7797       4
    7782    7800    7815    7833       4    7779    7767    7782    7803       4
    7779    7794    7815    7833       4    7776    7758    7770    7785       2
    7776    7758    7770    7788       1    7776    7758    7770    7791       1
    7773    7758    7770    7785       2    7773    7758    7770    7788       1
    7773    7758    7770    7791       1    7770    7785    7806    7827       2
    7770    7785    7806    7830       2    7767    7779    7794    7818       4
    7767    7782    7800    7821       4    7764    7740    7758    7770       2
    7764    7740    7758    7773       1    7764    7740    7758    7776       1
    7761    7740    7758    7770       2    7761    7740    7758    7773       1
    7761    7740    7758    7776       1    7758    7770    7785    7809       2
    7758    7770    7785    7812       2    7755    7731    7749    7767       4
    7752    7728    7749    7767       4    7749    7767    7779    7797       4
    7749    7767    7782    7803       4    7746    7722    7740    7758       2
    7746    7722    7740    7761       1    7746    7722    7740    7764       1
    7743    7722    7740    7758       2    7743    7722    7740    7761       1
    7743    7722    7740    7764       1    7740    7758    7770    7788       2
    7740    7758    7770    7791       2    7734    7716    7731    7749       4
    7734    7716    7731    7755       4    7731    7749    7728    7752       4
    7728    7749    7731    7755       4    7725    7710    7719    7737       4
    7722    7704    7719    7737       4    7722    7740    7758    7773       2
    7722    7740    7758    7776       2    7719    7704    7722    7743       7
    7719    7704    7722    7746       7    7713    7701    7716    7734       4
    7707    7692    7704    7719       4    7707    7692    7704    7722       4
    7704    7719    7710    7725       4    7704    7722    7740    7761       8
    7704    7722    7740    7764       8    7701    7713    7728    7752       4
    7701    7716    7731    7755       4    7698    7713    7728    7752       4
    7695    7683    7692    7707       4    7695    7710    7719    7737       4
    7692    7704    7719    7737       4    7692    7704    7722    7743       7
    7692    7704    7722    7746       7    7689    7701    7716    7734       4
    7686    7695    7710    7725       4    7683    7695    7710    7725       4
    7680    7683    7692    7707       4    8052    8037    8049    8055       1
    8052    8037    8049    8058       1    8052    8037    8049    8061       1
    8046    8037    8049    8055       1    8046    8037    8049    8058       1
    8046    8037    8049    8061       1    8043    8034    8037    8046       1
    8043    8034    8037    8049       2    8043    8034    8037    8052       1
    8040    8034    8037    8046       1    8040    8034    8037    8049       2
    8040    8034    8037    8052       1    8034    8037    8049    8055       2
    8034    8037    8049    8058       2    8034    8037    8049    8061       2
    8031    8016    8034    8037       2    8031    8016    8034    8040       1
    8031    8016    8034    8043       1    8028    8016    8034    8037       2
    8028    8016    8034    8040       1    8028    8016    8034    8043       1
    8022    7998    8016    8028       1    8022    7998    8016    8031       1
    8022    7998    8016    8034       2    8019    7998    8016    8028       1
    8019    7998    8016    8031       1    8019    7998    8016    8034       2
    8016    8034    8037    8046       2    8016    8034    8037    8052       2
    8013    7992    8007    8025       4    8010    7986    8007    8025       4
    8004    7977    7998    8016       2    8004    7977    7998    8019       1
    8004    7977    7998    8022       1    8001    7977    7998    8016       2
    8001    7977    7998    8019       1    8001    7977    7998    8022       1
    7998    8016    8034    8040       2    7998    8016    8034    8043       2
    7995    7974    7992    8007       4    7995    7974    7992    8013       4
    7992    8007    7986    8010       4    7989    7971    7986    8007       4
    7989    7971    7986    8010       4    7986    8007    7992    8013       4
    7983    7962    7977    7998       2    7983    7962    7977    8001       1
    7983    7962    7977    8004       1    7980    7962    7977    7998       2
    7980    7962    7977    8001       1    7980    7962    7977    8004       1
    7977    7998    8016    8028       2    7977    7998    8016    8031       2
    7974    7959    7971    7989       4    7974    7992    8007    8025       4
    7971    7959    7974    7995       4    7971    7986    8007    8025       4
    7968    7950    7962    7977       2    7968    7950    7962    7980       1
    7968    7950    7962    7983       1    7965    7950    7962    7977       2
    7965    7950    7962    7980       1    7965    7950    7962    7983       1
    7962    7977    7998    8019       2    7962    7977    7998    8022       2
    7959    7971    7986    8010       4    7959    7974    7992    8013       4
    7956    7932    7950    7962       2    7956    7932    7950    7965       1
    7956    7932    7950    7968       1    7953    7932    7950    7962       2
    7953    7932    7950    7965       1    7953    7932    7950    7968       1
    7950    7962    7977    8001       2    7950    7962    7977    8004       2
    7947    7923    7941    7959       4    7944    7920    7941    7959       4
    7941    7959    7971    7989       4    7941    7959    7974    7995       4
    7938    7914    7932    7950       2    7938    7914    7932    7953       1
    7938    7914    7932    7956       1    7935    7914    7932    7950       2
    7935    7914    7932    7953       1    7935    7914    7932    7956       1
    7932    7950    7962    7980       2    7932    7950    7962    7983       2
    7926    7908    7923    7941       4    7926    7908    7923    7947       4
    7923    7941    7920    7944       4    7920    7941    7923    7947       4
    7917    7902    7911    7929       4    7914    7896    7911    7929       4
    7914    7932    7950    7965       2    7914    7932    7950    7968       2
    7911    7896    7914    7935       7    7911    7896    7914    7938       7
    7905    7893    7908    7926       4    7899    7884    7896    7911       4
    7899    7884    7896    7914       4    7896    7911    7902    7917       4
    7896    7914    7932    7953       8    7896    7914    7932    7956       8
    7893    7905    7920    7944       4    7893    7908    7923    7947       4
    7890    7905    7920    7944       4    7887    7875    7884    7899       4
    7887    7902    7911    7929       4    7884    7896    7911    7929       4
    7884    7896    7914    7935       7    7884    7896    7914    7938       7
    7881    7893    7908    7926       4    7878    7887    7902    7917       4
    7875    7887    7902    7917       4    7872    7875    7884    7899       4
    8244    8229    8241    8247       1    8244    8229    8241    8250       1
    8244    8229    8241    8253       1    8238    8229    8241    8247       1
    8238    8229    8241    8250       1    8238    8229    8241    8253       1
    8235    8226    8229    8238       1    8235    8226    8229    8241       2
    8235    8226    8229    8244       1    8232    8226    8229    8238       1
    8232    8226    8229    8241       2    8232    8226    8229    8244       1
    8226    8229    8241    8247       2    8226    8229    8241    8250       2
    8226    8229    8241    8253       2    8223    8208    8226    8229       2
    8223    8208    8226    8232       1    8223    8208    8226    8235       1
    8220    8208    8226    8229       2    8220    8208    8226    8232       1
    8220    8208    8226    8235       1    8214    8190    8208    8220       1
    8214    8190    8208    8223       1    8214    8190    8208    8226       2
    8211    8190    8208    8220       1    8211    8190    8208    8223       1
    8211    8190    8208    8226       2    8208    8226    8229    8238       2
    8208    8226    8229    8244       2    8205    8184    8199    8217       4
    8202    8178    8199    8217       4    8196    8169    8190    8208       2
    8196    8169    8190    8211       1    8196    8169    8190    8214       1
    8193    8169    8190    8208       2    8193    8169    8190    8211       1
    8193    8169    8190    8214       1    8190    8208    8226    8232       2
    8190    8208    8226    8235       2    8187    8166    8184    8199       4
    8187    8166    8184    8205       4    8184    8199    8178    8202       4
    8181    8163    8178    8199       4    8181    8163    8178    8202       4
    8178    8199    8184    8205       4    8175    8154    8169    8190       2
    8175    8154    8169    8193       1    8175    8154    8169    8196       1
    8172    8154    8169    8190       2    8172    8154    8169    8193       1
    8172    8154    8169    8196       1    8169    8190    8208    8220       2
    8169    8190    8208    8223       2    8166    8151    8163    8181       4
    8166    8184    8199    8217       4    8163    8151    8166    8187       4
    8163    8178    8199    8217       4    8160    8142    8154    8169       2
    8160    8142    8154    8172       1    8160    8142    8154    8175       1
    8157    8142    8154    8169       2    8157    8142    8154    8172       1
    8157    8142    8154    8175       1    8154    8169    8190    8211       2
    8154    8169    8190    8214       2    8151    8163    8178    8202       4
    8151    8166    8184    8205       4    8148    8124    8142    8154       2
    8148    8124    8142    8157       1    8148    8124    8142    8160       1
    8145    8124    8142    8154       2    8145    8124    8142    8157       1
    8145    8124    8142    8160       1    8142    8154    8169    8193       2
    8142    8154    8169    8196       2    8139    8115    8133    8151       4
    8136    8112    8133    8151       4    8133    8151    8163    8181       4
    8133    8151    8166    8187       4    8130    8106    8124    8142       2
    8130    8106    8124    8145       1    8130    8106    8124    8148       1
    8127    8106    8124    8142       2    8127    8106    8124    8145       1
    8127    8106    8124    8148       1    8124    8142    8154    8172       2
    8124    8142    8154    8175       2    8118    8100    8115    8133       4
    8118    8100    8115    8139       4    8115    8133    8112    8136       4
    8112    8133    8115    8139       4    8109    8094    8103    8121       4
    8106    8088    8103    8121       4    8106    8124    8142    8157       2
    8106    8124    8142    8160       2    8103    8088    8106    8127       7
    8103    8088    8106    8130       7    8097    8085    8100    8118       4
    8091    8076    8088    8103       4    8091    8076    8088    8106       4
    8088    8103    8094    8109       4    8088    8106    8124    8145       8
    8088    8106    8124    8148       8    8085    8097    8112    8136       4
    8085    8100    8115    8139       4    8082    8097    8112    8136       4
    8079    8067    8076    8091       4    8079    8094    8103    8121       4
    8076    8088    8103    8121       4    8076    8088    8106    8127       7
    8076    8088    8106    8130       7    8073    8085    8100    8118       4
    8070    8079    8094    8109       4    8067    8079    8094    8109       4
    8064    8067    8076    8091       4    8436    8421    8433    8439       1
    8436    8421    8433    8442       1    8436    8421    8433    8445       1
    8430    8421    8433    8439       1    8430    8421    8433    8442       1
    8430    8421    8433    8445       1    8427    8418    8421    8430       1
    8427    8418    8421    8433       2    8427    8418    8421    8436       1
    8424    8418    8421    8430       1    8424    8418    8421    8433       2
    8424    8418    8421    8436       1    8418    8421    8433    8439       2
    8418    8421    8433    8442       2    8418    8421    8433    8445       2
    8415    8400    8418    8421       2    8415    8400    8418    8424       1
    8415    8400    8418    8427       1    8412    8400    8418    8421       2
    8412    8400    8418    8424       1    8412    8400    8418    8427       1
    8406    8382    8400    8412       1    8406    8382    8400    8415       1
    8406    8382    8400    8418       2    8403    8382    8400    8412       1
    8403    8382    8400    8415       1    8403    8382    8400    8418       2
    8400    8418    8421    8430       2    8400    8418    8421    8436       2
    8397    8376    8391    8409       4    8394    8370    8391    8409       4
    8388    8361    8382    8400       2    8388    8361    8382    8403       1
    8388    8361    8382    8406       1    8385    8361    8382    8400       2
    8385    8361    8382    8403       1    8385    8361    8382    8406       1
    8382    8400    8418    8424       2    8382    8400    8418    8427       2
    8379    8358    8376    8391       4    8379    8358    8376    8397       4
    8376    8391    8370    8394       4    8373    8355    8370    8391       4
    8373    8355    8370    8394       4    8370    8391    8376    8397       4
    8367    8346    8361    8382       2    8367    8346    8361    8385       1
    8367    8346    8361    8388       1    8364    8346    8361    8382       2
    8364    8346    8361    8385       1    8364    8346    8361    8388       1
    8361    8382    8400    8412       2    8361    8382    8400    8415       2
    8358    8343    8355    8373       4    8358    8376    8391    8409       4
    8355    8343    8358    8379       4    8355    8370    8391    8409       4
    8352    8334    8346    8361       2    8352    8334    8346    8364       1
    8352    8334    8346    8367       1    8349    8334    8346    8361       2
    8349    8334    8346    8364       1    8349    8334    8346    8367       1
    8346    8361    8382    8403       2    8346    8361    8382    8406       2
    8343    8355    8370    8394       4    8343    8358    8376    8397       4
    8340    8316    8334    8346       2    8340    8316    8334    8349       1
    8340    8316    8334    8352       1    8337    8316    8334    8346       2
    8337    8316    8334    8349       1    8337    8316    8334    8352       1
    8334    8346    8361    8385       2    8334    8346    8361    8388       2
    8331    8307    8325    8343       4    8328    8304    8325    8343       4
    8325    8343    8355    8373       4    8325    8343    8358    8379       4
    8322    8298    8316    8334       2    8322    8298    8316    8337       1
    8322    8298    8316    8340       1    8319    8298    8316    8334       2
    8319    8298    8316    8337       1    8319    8298    8316    8340       1
    8316    8334    8346    8364       2    8316    8334    8346    8367       2
    8310    8292    8307    8325       4    8310    8292    8307    8331       4
    8307    8325    8304    8328       4    8304    8325    8307    8331       4
    8301    8286    8295    8313       4    8298    8280    8295    8313       4
    8298    8316    8334    8349       2    8298    8316    8334    8352       2
    8295    8280    8298    8319       7    8295    8280    8298    8322       7
    8289    8277    8292    8310       4    8283    8268    8280    8295       4
    8283    8268    8280    8298       4    8280    8295    8286    8301       4
    8280    8298    8316    8337       8    8280    8298    8316    8340       8
    8277    8289    8304    8328       4    8277    8292    8307    8331       4
    8274    8289    8304    8328       4    8271    8259    8268    8283       4
    8271    8286    8295    8313       4    8268    8280    8295    8313       4
    8268    8280    8298    8319       7    8268    8280    8298    8322       7
    8265    8277    8292    8310       4    8262    8271    8286    8301       4
    8259    8271    8286    8301       4    8256    8259    8268    8283       4
    8628    8613    8625    8631       1    8628    8613    8625    8634       1
    8628    8613    8625    8637       1    8622    8613    8625    8631       1
    8622    8613    8625    8634       1    8622    8613    8625    8637       1
    8619    8610    8613    8622       1    8619    8610    8613    8625       2
    8619    8610    8613    8628       1    8616    8610    8613    8622       1
    8616    8610    8613    8625       2    8616    8610    8613    8628       1
    8610    8613    8625    8631       2    8610    8613    8625    8634       2
    8610    8613    8625    8637       2    8607    8592    8610    8613       2
    8607    8592    8610    8616       1    8607    8592    8610    8619       1
    8604    8592    8610    8613       2    8604    8592    8610    8616       1
    8604    8592    8610    8619       1    8598    8574    8592    8604       1
    8598    8574    8592    8607       1    8598    8574    8592    8610       2
    8595    8574    8592    8604       1    8595    8574    8592    8607       1
    8595    8574    8592    8610       2    8592    8610    8613    8622       2
    8592    8610    8613    8628       2    8589    8568    8583    8601       4
    8586    8562    8583    8601       4    8580    8553    8574    8592       2
    8580    8553    8574    8595       1    8580    8553    8574    8598       1
    8577    8553    8574    8592       2    8577    8553    8574    8595       1
    8577    8553    8574    8598       1    8574    8592    8610    8616       2
    8574    8592    8610    8619       2    8571    8550    8568    8583       4
    8571    8550    8568    8589       4    8568    8583    8562    8586       4
    8565    8547    8562    8583       4    8565    8547    8562    8586       4
    8562    8583    8568    8589       4    8559    8538    8553    8574       2
    8559    8538    8553    8577       1    8559    8538    8553    8580       1
    8556    8538    8553    8574       2    8556    8538    8553    8577       1
    8556    8538    8553    8580       1    8553    8574    8592    8604       2
    8553    8574    8592    8607       2    8550    8535    8547    8565       4
    8550    8568    8583    8601       4    8547    8535    8550    8571       4
    8547    8562    8583    8601       4    8544    8526    8538    8553       2
    8544    8526    8538    8556       1    8544    8526    8538    8559       1
    8541    8526    8538    8553       2    8541    8526    8538    8556       1
    8541    8526    8538    8559       1    8538    8553    8574    8595       2
    8538    8553    8574    8598       2    8535    8547    8562    8586       4
    8535    8550    8568    8589       4    8532    8508    8526    8538       2
    8532    8508    8526    8541       1    8532    8508    8526    8544       1
    8529    8508    8526    8538       2    8529    8508    8526    8541       1
    8529    8508    8526    8544       1    8526    8538    8553    8577       2
    8526    8538    8553    8580       2    8523    8499    8517    8535       4
    8520    8496    8517    8535       4    8517    8535    8547    8565       4
    8517    8535    8550    8571       4    8514    8490    8508    8526       2
    8514    8490    8508    8529       1    8514    8490    8508    8532       1
    8511    8490    8508    8526       2    8511    8490    8508    8529       1
    8511    8490    8508    8532       1    8508    8526    8538    8556       2
    8508    8526    8538    8559       2    8502    8484    8499    8517       4
    8502    8484    8499    8523       4    8499    8517    8496    8520       4
    8496    8517    8499    8523       4    8493    8478    8487    8505       4
    8490    8472    8487    8505       4    8490    8508    8526    8541       2
    8490    8508    8526    8544       2    8487    8472    8490    8511       7
    8487    8472    8490    8514       7    8481    8469    8484    8502       4
    8475    8460    8472    8487       4    8475    8460    8472    8490       4
    8472    8487    8478    8493       4    8472    8490    8508    8529       8
    8472    8490    8508    8532       8    8469    8481    8496    8520       4
    8469    8484    8499    8523       4    8466    8481    8496    8520       4
    8463    8451    8460    8475       4    8463    8478    8487    8505       4
    8460    8472    8487    8505       4    8460    8472    8490    8511       7
    8460    8472    8490    8514       7    8457    8469    8484    8502       4
    8454    8463    8478    8493       4    8451    8463    8478    8493       4
    8448    8451    8460    8475       4    8820    8805    8817    8823       1
    8820    8805    8817    8826       1    8820    8805    8817    8829       1
    8814    8805    8817    8823       1    8814    8805    8817    8826       1
    8814    8805    8817    8829       1    8811    8802    8805    8814       1
    8811    8802    8805    8817       2    8811    8802    8805    8820       1
    8808    8802    8805    8814       1    8808    8802    8805    8817       2
    8808    8802    8805    8820       1    8802    8805    8817    8823       2
    8802    8805    8817    8826       2    8802    8805    8817    8829       2
    8799    8784    8802    8805       2    8799    8784    8802    8808       1
    8799    8784    8802    8811       1    8796    8784    8802    8805       2
    8796    8784    8802    8808       1    8796    8784    8802    8811       1
    8790    8766    8784    8796       1    8790    8766    8784    8799       1
    8790    8766    8784    8802       2    8787    8766    8784    8796       1
    8787    8766    8784    8799       1    8787    8766    8784    8802       2
    8784    8802    8805    8814       2    8784    8802    8805    8820       2
    8781    8760    8775    8793       4    8778    8754    8775    8793       4
    8772    8745    8766    8784       2    8772    8745    8766    8787       1
    8772    8745    8766    8790       1    8769    8745    8766    8784       2
    8769    8745    8766    8787       1    8769    8745    8766    8790       1
    8766    8784    8802    8808       2    8766    8784    8802    8811       2
    8763    8742    8760    8775       4    8763    8742    8760    8781       4
    8760    8775    8754    8778       4    8757    8739    8754    8775       4
    8757    8739    8754    8778       4    8754    8775    8760    8781       4
    8751    8730    8745    8766       2    8751    8730    8745    8769       1
    8751    8730    8745    8772       1    8748    8730    8745    8766       2
    8748    8730    8745    8769       1    8748    8730    8745    8772       1
    8745    8766    8784    8796       2    8745    8766    8784    8799       2
    8742    8727    8739    8757       4    8742    8760    8775    8793       4
    8739    8727    8742    8763       4    8739    8754    8775    8793       4
    8736    8718    8730    8745       2    8736    8718    8730    8748       1
    8736    8718    8730    8751       1    8733    8718    8730    8745       2
    8733    8718    8730    8748       1    8733    8718    8730    8751       1
    8730    8745    8766    8787       2    8730    8745    8766    8790       2
    8727    8739    8754    8778       4    8727    8742    8760    8781       4
    8724    8700    8718    8730       2    8724    8700    8718    8733       1
    8724    8700    8718    8736       1    8721    8700    8718    8730       2
    8721    8700    8718    8733       1    8721    8700    8718    8736       1
    8718    8730    8745    8769       2    8718    8730    8745    8772       2
    8715    8691    8709    8727       4    8712    8688    8709    8727       4
    8709    8727    8739    8757       4    8709    8727    8742    8763       4
    8706    8682    8700    8718       2    8706    8682    8700    8721       1
    8706    8682    8700    8724       1    8703    8682    8700    8718       2
    8703    8682    8700    8721       1    8703    8682    8700    8724       1
    8700    8718    8730    8748       2    8700    8718    8730    8751       2
    8694    8676    8691    8709       4    8694    8676    8691    8715       4
    8691    8709    8688    8712       4    8688    8709    8691    8715       4
    8685    8670    8679    8697       4    8682    8664    8679    8697       4
    8682    8700    8718    8733       2    8682    8700    8718    8736       2
    8679    8664    8682    8703       7    8679    8664    8682    8706       7
    8673    8661    8676    8694       4    8667    8652    8664    8679       4
    8667    8652    8664    8682       4    8664    8679    8670    8685       4
    8664    8682    8700    8721       8    8664    8682    8700    8724       8
    8661    8673    8688    8712       4    8661    8676    8691    8715       4
    8658    8673    8688    8712       4    8655    8643    8652    8667       4
    8655    8670    8679    8697       4    8652    8664    8679    8697       4
    8652    8664    8682    8703       7    8652    8664    8682    8706       7
    8649    8661    8676    8694       4    8646    8655    8670    8685       4
    8643    8655    8670    8685       4    8640    8643    8652    8667       4
    9012    8997    9009    9015       1    9012    8997    9009    9018       1
    9012    8997    9009    9021       1    9006    8997    9009    9015       1
    9006    8997    9009    9018       1    9006    8997    9009    9021       1
    9003    8994    8997    9006       1    9003    8994    8997    9009       2
    9003    8994    8997    9012       1    9000    8994    8997    9006       1
    9000    8994    8997    9009       2    9000    8994    8997    9012       1
    8994    8997    9009    9015       2    8994    8997    9009    9018       2
    8994    8997    9009    9021       2    8991    8976    8994    8997       2
    8991    8976    8994    9000       1    8991    8976    8994    9003       1
    8988    8976    8994    8997       2    8988    8976    8994    9000       1
    8988    8976    8994    9003       1    8982    8958    8976    8988       1
    8982    8958    8976    8991       1    8982    8958    8976    8994       2
    8979    8958    8976    8988       1    8979    8958    8976    8991       1
    8979    8958    8976    8994       2    8976    8994    8997    9006       2
    8976    8994    8997    9012       2    8973    8952    8967    8985       4
    8970    8946    8967    8985       4    8964    8937    8958    8976       2
    8964    8937    8958    8979       1    8964    8937    8958    8982       1
    8961    8937    8958    8976       2    8961    8937    8958    8979       1
    8961    8937    8958    8982       1    8958    8976    8994    9000       2
    8958    8976    8994    9003       2    8955    8934    8952    8967       4
    8955    8934    8952    8973       4    8952    8967    8946    8970       4
    8949    8931    8946    8967       4    8949    8931    8946    8970       4
    8946    8967    8952    8973       4    8943    8922    8937    8958       2
    8943    8922    8937    8961       1    8943    8922    8937    8964       1
    8940    8922    8937    8958       2    8940    8922    8937    8961       1
    8940    8922    8937    8964       1    8937    8958    8976    8988       2
    8937    8958    8976    8991       2    8934    8919    8931    8949       4
    8934    8952    8967    8985       4    8931    8919    8934    8955       4
    8931    8946    8967    8985       4    8928    8910    8922    8937       2
    8928    8910    8922    8940       1    8928    8910    8922    8943       1
    8925    8910    8922    8937       2    8925    8910    8922    8940       1
    8925    8910    8922    8943       1    8922    8937    8958    8979       2
    8922    8937    8958    8982       2    8919    8931    8946    8970       4
    8919    8934    8952    8973       4    8916    8892    8910    8922       2
    8916    8892    8910    8925       1    8916    8892    8910    8928       1
    8913    8892    8910    8922       2    8913    8892    8910    8925       1
    8913    8892    8910    8928       1    8910    8922    8937    8961       2
    8910    8922    8937    8964       2    8907    8883    8901    8919       4
    8904    8880    8901    8919       4    8901    8919    8931    8949       4
    8901    8919    8934    8955       4    8898    8874    8892    8910       2
    8898    8874    8892    8913       1    8898    8874    8892    8916       1
    8895    8874    8892    8910       2    8895    8874    8892    8913       1
    8895    8874    8892    8916       1    8892    8910    8922    8940       2
    8892    8910    8922    8943       2    8886    8868    8883    8901       4
    8886    8868    8883    8907       4    8883    8901    8880    8904       4
    8880    8901    8883    8907       4    8877    8862    8871    8889       4
    8874    8856    8871    8889       4    8874    8892    8910    8925       2
    8874    8892    8910    8928       2    8871    8856    8874    8895       7
    8871    8856    8874    8898       7    8865    8853    8868    8886       4
    8859    8844    8856    8871       4    8859    8844    8856    8874       4
    8856    8871    8862    8877       4    8856    8874    8892    8913       8
    8856    8874    8892    8916       8    8853    8865    8880    8904       4
    8853    8868    8883    8907       4    8850    8865    8880    8904       4
    8847    8835    8844    8859       4    8847    8862    8871    8889       4
    8844    8856    8871    8889       4    8844    8856    8874    8895       7
    8844    8856    8874    8898       7    8841    8853    8868    8886       4
    8838    8847    8862    8877       4    8835    8847    8862    8877       4
    8832    8835    8844    8859       4    9204    9189    9201    9207       1
    9204    9189    9201    9210       1    9204    9189    9201    9213       1
    9198    9189    9201    9207       1    9198    9189    9201    9210       1
    9198    9189    9201    9213       1    9195    9186    9189    9198       1
    9195    9186    9189    9201       2    9195    9186    9189    9204       1
    9192    9186    9189    9198       1    9192    9186    9189    9201       2
    9192    9186    9189    9204       1    9186    9189    9201    9207       2
    9186    9189    9201    9210       2    9186    9189    9201    9213       2
    9183    9168    9186    9189       2    9183    9168    9186    9192       1
    9183    9168    9186    9195       1    9180    9168    9186    9189       2
    9180    9168    9186    9192       1    9180    9168    9186    9195       1
    9174    9150    9168    9180       1    9174    9150    9168    9183       1
    9174    9150    9168    9186       2    9171    9150    9168    9180       1
    9171    9150    9168    9183       1    9171    9150    9168    9186       2
    9168    9186    9189    9198       2    9168    9186    9189    9204       2
    9165    9144    9159    9177       4    9162    9138    9159    9177       4
    9156    9129    9150    9168       2    9156    9129    9150    9171       1
    9156    9129    9150    9174       1    9153    9129    9150    9168       2
    9153    9129    9150    9171       1    9153    9129    9150    9174       1
    9150    9168    9186    9192       2    9150    9168    9186    9195       2
    9147    9126    9144    9159       4    9147    9126    9144    9165       4
    9144    9159    9138    9162       4    9141    9123    9138    9159       4
    9141    9123    9138    9162       4    9138    9159    9144    9165       4
    9135    9114    9129    9150       2    9135    9114    9129    9153       1
    9135    9114    9129    9156       1    9132    9114    9129    9150       2
    9132    9114    9129    9153       1    9132    9114    9129    9156       1
    9129    9150    9168    9180       2    9129    9150    9168    9183       2
    9126    9111    9123    9141       4    9126    9144    9159    9177       4
    9123    9111    9126    9147       4    9123    9138    9159    9177       4
    9120    9102    9114    9129       2    9120    9102    9114    9132       1
    9120    9102    9114    9135       1    9117    9102    9114    9129       2
    9117    9102    9114    9132       1    9117    9102    9114    9135       1
    9114    9129    9150    9171       2    9114    9129    9150    9174       2
    9111    9123    9138    9162       4    9111    9126    9144    9165       4
    9108    9084    9102    9114       2    9108    9084    9102    9117       1
    9108    9084    9102    9120       1    9105    9084    9102    9114       2
    9105    9084    9102    9117       1    9105    9084    9102    9120       1
    9102    9114    9129    9153       2    9102    9114    9129    9156       2
    9099    9075    9093    9111       4    9096    9072    9093    9111       4
    9093    9111    9123    9141       4    9093    9111    9126    9147       4
    9090    9066    9084    9102       2    9090    9066    9084    9105       1
    9090    9066    9084    9108       1    9087    9066    9084    9102       2
    9087    9066    9084    9105       1    9087    9066    9084    9108       1
    9084    9102    9114    9132       2    9084    9102    9114    9135       2
    9078    9060    9075    9093       4    9078    9060    9075    9099       4
    9075    9093    9072    9096       4    9072    9093    9075    9099       4
    9069    9054    9063    9081       4    9066    9048    9063    9081       4
    9066    9084    9102    9117       2    9066    9084    9102    9120       2
    9063    9048    9066    9087       7    9063    9048    9066    9090       7
    9057    9045    9060    9078       4    9051    9036    9048    9063       4
    9051    9036    9048    9066       4    9048    9063    9054    9069       4
    9048    9066    9084    9105       8    9048    9066    9084    9108       8
    9045    9057    9072    9096       4    9045    9060    9075    9099       4
    9042    9057    9072    9096       4    9039    9027    9036    9051       4
    9039    9054    9063    9081       4    9036    9048    9063    9081       4
    9036    9048    9066    9087       7    9036    9048    9066    9090       7
    9033    9045    9060    9078       4    9030    9039    9054    9069       4
    9027    9039    9054    9069       4    9024    9027    9036    9051       4
    9396    9381    9393    9399       1    9396    9381    9393    9402       1
    9396    9381    9393    9405       1    9390    9381    9393    9399       1
    9390    9381    9393    9402       1    9390    9381    9393    9405       1
    9387    9378    9381    9390       1    9387    9378    9381    9393       2
    9387    9378    9381    9396       1    9384    9378    9381    9390       1
    9384    9378    9381    9393       2    9384    9378    9381    9396       1
    9378    9381    9393    9399       2    9378    9381    9393    9402       2
    9378    9381    9393    9405       2    9375    9360    9378    9381       2
    9375    9360    9378    9384       1    9375    9360    9378    9387       1
    9372    9360    9378    9381       2    9372    9360    9378    9384       1
    9372    9360    9378    9387       1    9366    9342    9360    9372       1
    9366    9342    9360    9375       1    9366    9342    9360    9378       2
    9363    9342    9360    9372       1    9363    9342    9360    9375       1
    9363    9342    9360    9378       2    9360    9378    9381    9390       2
    9360    9378    9381    9396       2    9357    9336    9351    9369       4
    9354    9330    9351    9369       4    9348    9321    9342    9360       2
    9348    9321    9342    9363       1    9348    9321    9342    9366       1
    9345    9321    9342    9360       2    9345    9321    9342    9363       1
    9345    9321    9342    9366       1    9342    9360    9378    9384       2
    9342    9360    9378    9387       2    9339    9318    9336    9351       4
    9339    9318    9336    9357       4    9336    9351    9330    9354       4
    9333    9315    9330    9351       4    9333    9315    9330    9354       4
    9330    9351    9336    9357       4    9327    9306    9321    9342       2
    9327    9306    9321    9345       1    9327    9306    9321    9348       1
    9324    9306    9321    9342       2    9324    9306    9321    9345       1
    9324    9306    9321    9348       1    9321    9342    9360    9372       2
    9321    9342    9360    9375       2    9318    9303    9315    9333       4
    9318    9336    9351    9369       4    9315    9303    9318    9339       4
    9315    9330    9351    9369       4    9312    9294    9306    9321       2
    9312    9294    9306    9324       1    9312    9294    9306    9327       1
    9309    9294    9306    9321       2    9309    9294    9306    9324       1
    9309    9294    9306    9327       1    9306    9321    9342    9363       2
    9306    9321    9342    9366       2    9303    9315    9330    9354       4
    9303    9318    9336    9357       4    9300    9276    9294    9306       2
    9300    9276    9294    9309       1    9300    9276    9294    9312       1
    9297    9276    9294    9306       2    9297    9276    9294    9309       1
    9297    9276    9294    9312       1    9294    9306    9321    9345       2
    9294    9306    9321    9348       2    9291    9267    9285    9303       4
    9288    9264    9285    9303       4    9285    9303    9315    9333       4
    9285    9303    9318    9339       4    9282    9258    9276    9294       2
    9282    9258    9276    9297       1    9282    9258    9276    9300       1
    9279    9258    9276    9294       2    9279    9258    9276    9297       1
    9279    9258    9276    9300       1    9276    9294    9306    9324       2
    9276    9294    9306    9327       2    9270    9252    9267    9285       4
    9270    9252    9267    9291       4    9267    9285    9264    9288       4
    9264    9285    9267    9291       4    9261    9246    9255    9273       4
    9258    9240    9255    9273       4    9258    9276    9294    9309       2
    9258    9276    9294    9312       2    9255    9240    9258    9279       7
    9255    9240    9258    9282       7    9249    9237    9252    9270       4
    9243    9228    9240    9255       4    9243    9228    9240    9258       4
    9240    9255    9246    9261       4    9240    9258    9276    9297       8
    9240    9258    9276    9300       8    9237    9249    9264    9288       4
    9237    9252    9267    9291       4    9234    9249    9264    9288       4
    9231    9219    9228    9243       4    9231    9246    9255    9273       4
    9228    9240    9255    9273       4    9228    9240    9258    9279       7
    9228    9240    9258    9282       7    9225    9237    9252    9270       4
    9222    9231    9246    9261       4    9219    9231    9246    9261       4
    9216    9219    9228    9243       4    9588    9573    9585    9591       1
    9588    9573    9585    9594       1    9588    9573    9585    9597       1
    9582    9573    9585    9591       1    9582    9573    9585    9594       1
    9582    9573    9585    9597       1    9579    9570    9573    9582       1
    9579    9570    9573    9585       2    9579    9570    9573    9588       1
    9576    9570    9573    9582       1    9576    9570    9573    9585       2
    9576    9570    9573    9588       1    9570    9573    9585    9591       2
    9570    9573    9585    9594       2    9570    9573    9585    9597       2
    9567    9552    9570    9573       2    9567    9552    9570    9576       1
    9567    9552    9570    9579       1    9564    9552    9570    9573       2
    9564    9552    9570    9576       1    9564    9552    9570    9579       1
    9558    9534    9552    9564       1    9558    9534    9552    9567       1
    9558    9534    9552    9570       2    9555    9534    9552    9564       1
    9555    9534    9552    9567       1    9555    9534    9552    9570       2
    9552    9570    9573    9582       2    9552    9570    9573    9588       2
    9549    9528    9543    9561       4    9546    9522    9543    9561       4
    9540    9513    9534    9552       2    9540    9513    9534    9555       1
    9540    9513    9534    9558       1    9537    9513    9534    9552       2
    9537    9513    9534    9555       1    9537    9513    9534    9558       1
    9534    9552    9570    9576       2    9534    9552    9570    9579       2
    9531    9510    9528    9543       4    9531    9510    9528    9549       4
    9528    9543    9522    9546       4    9525    9507    9522    9543       4
    9525    9507    9522    9546       4    9522    9543    9528    9549       4
    9519    9498    9513    9534       2    9519    9498    9513    9537       1
    9519    9498    9513    9540       1    9516    9498    9513    9534       2
    9516    9498    9513    9537       1    9516    9498    9513    9540       1
    9513    9534    9552    9564       2    9513    9534    9552    9567       2
    9510    9495    9507    9525       4    9510    9528    9543    9561       4
    9507    9495    9510    9531       4    9507    9522    9543    9561       4
    9504    9486    9498    9513       2    9504    9486    9498    9516       1
    9504    9486    9498    9519       1    9501    9486    9498    9513       2
    9501    9486    9498    9516       1    9501    9486    9498    9519       1
    9498    9513    9534    9555       2    9498    9513    9534    9558       2
    9495    9507    9522    9546       4    9495    9510    9528    9549       4
    9492    9468    9486    9498       2    9492    9468    9486    9501       1
    9492    9468    9486    9504       1    9489    9468    9486    9498       2
    9489    9468    9486    9501       1    9489    9468    9486    9504       1
    9486    9498    9513    9537       2    9486    9498    9513    9540       2
    9483    9459    9477    9495       4    9480    9456    9477    9495       4
    9477    9495    9507    9525       4    9477    9495    9510    9531       4
    9474    9450    9468    9486       2    9474    9450    9468    9489       1
    9474    9450    9468    9492       1    9471    9450    9468    9486       2
    9471    9450    9468    9489       1    9471    9450    9468    9492       1
    9468    9486    9498    9516       2    9468    9486    9498    9519       2
    9462    9444    9459    9477       4    9462    9444    9459    9483       4
    9459    9477    9456    9480       4    9456    9477    9459    9483       4
    9453    9438    9447    9465       4    9450    9432    9447    9465       4
    9450    9468    9486    9501       2    9450    9468    9486    9504       2
    9447    9432    9450    9471       7    9447    9432    9450    9474       7
    9441    9429    9444    9462       4    9435    9420    9432    9447       4
    9435    9420    9432    9450       4    9432    9447    9438    9453       4
    9432    9450    9468    9489       8    9432    9450    9468    9492       8
    9429    9441    9456    9480       4    9429    9444    9459    9483       4
    9426    9441    9456    9480       4    9423    9411    9420    9435       4
    9423    9438    9447    9465       4    9420    9432    9447    9465       4
    9420    9432    9450    9471       7    9420    9432    9450    9474       7
    9417    9429    9444    9462       4    9414    9423    9438    9453       4
    9411    9423    9438    9453       4    9408    9411    9420    9435       4
    9780    9765    9777    9783       1    9780    9765    9777    9786       1
    9780    9765    9777    9789       1    9774    9765    9777    9783       1
    9774    9765    9777    9786       1    9774    9765    9777    9789       1
    9771    9762    9765    9774       1    9771    9762    9765    9777       2
    9771    9762    9765    9780       1    9768    9762    9765    9774       1
    9768    9762    9765    9777       2    9768    9762    9765    9780       1
    9762    9765    9777    9783       2    9762    9765    9777    9786       2
    9762    9765    9777    9789       2    9759    9744    9762    9765       2
    9759    9744    9762    9768       1    9759    9744    9762    9771       1
    9756    9744    9762    9765       2    9756    9744    9762    9768       1
    9756    9744    9762    9771       1    9750    9726    9744    9756       1
    9750    9726    9744    9759       1    9750    9726    9744    9762       2
    9747    9726    9744    9756       1    9747    9726    9744    9759       1
    9747    9726    9744    9762       2    9744    9762    9765    9774       2
    9744    9762    9765    9780       2    9741    9720    9735    9753       4
    9738    9714    9735    9753       4    9732    9705    9726    9744       2
    9732    9705    9726    9747       1    9732    9705    9726    9750       1
    9729    9705    9726    9744       2    9729    9705    9726    9747       1
    9729    9705    9726    9750       1    9726    9744    9762    9768       2
    9726    9744    9762    9771       2    9723    9702    9720    9735       4
    9723    9702    9720    9741       4    9720    9735    9714    9738       4
    9717    9699    9714    9735       4    9717    9699    9714    9738       4
    9714    9735    9720    9741       4    9711    9690    9705    9726       2
    9711    9690    9705    9729       1    9711    9690    9705    9732       1
    9708    9690    9705    9726       2    9708    9690    9705    9729       1
    9708    9690    9705    9732       1    9705    9726    9744    9756       2
    9705    9726    9744    9759       2    9702    9687    9699    9717       4
    9702    9720    9735    9753       4    9699    9687    9702    9723       4
    9699    9714    9735    9753       4    9696    9678    9690    9705       2
    9696    9678    9690    9708       1    9696    9678    9690    9711       1
    9693    9678    9690    9705       2    9693    9678    9690    9708       1
    9693    9678    9690    9711       1    9690    9705    9726    9747       2
    9690    9705    9726    9750       2    9687    9699    9714    9738       4
    9687    9702    9720    9741       4    9684    9660    9678    9690       2
    9684    9660    9678    9693       1    9684    9660    9678    9696       1
    9681    9660    9678    9690       2    9681    9660    9678    9693       1
    9681    9660    9678    9696       1    9678    9690    9705    9729       2
    9678    9690    9705    9732       2    9675    9651    9669    9687       4
    9672    9648    9669    9687       4    9669    9687    9699    9717       4
    9669    9687    9702    9723       4    9666    9642    9660    9678       2
    9666    9642    9660    9681       1    9666    9642    9660    9684       1
    9663    9642    9660    9678       2    9663    9642    9660    9681       1
    9663    9642    9660    9684       1    9660    9678    9690    9708       2
    9660    9678    9690    9711       2    9654    9636    9651    9669       4
    9654    9636    9651    9675       4    9651    9669    9648    9672       4
    9648    9669    9651    9675       4    9645    9630    9639    9657       4
    9642    9624    9639    9657       4    9642    9660    9678    9693       2
    9642    9660    9678    9696       2    9639    9624    9642    9663       7
    9639    9624    9642    9666       7    9633    9621    9636    9654       4
    9627    9612    9624    9639       4    9627    9612    9624    9642       4
    9624    9639    9630    9645       4    9624    9642    9660    9681       8
    9624    9642    9660    9684       8    9621    9633    9648    9672       4
    9621    9636    9651    9675       4    9618    9633    9648    9672       4
    9615    9603    9612    9627       4    9615    9630    9639    9657       4
    9612    9624    9639    9657       4    9612    9624    9642    9663       7
    9612    9624    9642    9666       7    9609    9621    9636    9654       4
    9606    9615    9630    9645       4    9603    9615    9630    9645       4
    9600    9603    9612    9627       4    9972    9957    9969    9975       1
    9972    9957    9969    9978       1    9972    9957    9969    9981       1
    9966    9957    9969    9975       1    9966    9957    9969    9978       1
    9966    9957    9969    9981       1    9963    9954    9957    9966       1
    9963    9954    9957    9969       2    9963    9954    9957    9972       1
    9960    9954    9957    9966       1    9960    9954    9957    9969       2
    9960    9954    9957    9972       1    9954    9957    9969    9975       2
    9954    9957    9969    9978       2    9954    9957    9969    9981       2
    9951    9936    9954    9957       2    9951    9936    9954    9960       1
    9951    9936    9954    9963       1    9948    9936    9954    9957       2
    9948    9936    9954    9960       1    9948    9936    9954    9963       1
    9942    9918    9936    9948       1    9942    9918    9936    9951       1
    9942    9918    9936    9954       2    9939    9918    9936    9948       1
    9939    9918    9936    9951       1    9939    9918    9936    9954       2
    9936    9954    9957    9966       2    9936    9954    9957    9972       2
    9933    9912    9927    9945       4    9930    9906    9927    9945       4
    9924    9897    9918    9936       2    9924    9897    9918    9939       1
    9924    9897    9918    9942       1    9921    9897    9918    9936       2
    9921    9897    9918    9939       1    9921    9897    9918    9942       1
    9918    9936    9954    9960       2    9918    9936    9954    9963       2
    9915    9894    9912    9927       4    9915    9894    9912    9933       4
    9912    9927    9906    9930       4    9909    9891    9906    9927       4
    9909    9891    9906    9930       4    9906    9927    9912    9933       4
    9903    9882    9897    9918       2    9903    9882    9897    9921       1
    9903    9882    9897    9924       1    9900    9882    9897    9918       2
    9900    9882    9897    9921       1    9900    9882    9897    9924       1
    9897    9918    9936    9948       2    9897    9918    9936    9951       2
    9894    9879    9891    9909       4    9894    9912    9927    9945       4
    9891    9879    9894    9915       4    9891    9906    9927    9945       4
    9888    9870    9882    9897       2    9888    9870    9882    9900       1
    9888    9870    9882    9903       1    9885    9870    9882    9897       2
    9885    9870    9882    9900       1    9885    9870    9882    9903       1
    9882    9897    9918    9939       2    9882    9897    9918    9942       2
    9879    9891    9906    9930       4    9879    9894    9912    9933       4
    9876    9852    9870    9882       2    9876    9852    9870    9885       1
    9876    9852    9870    9888       1    9873    9852    9870    9882       2
    9873    9852    9870    9885       1    9873    9852    9870    9888       1
    9870    9882    9897    9921       2    9870    9882    9897    9924       2
    9867    9843    9861    9879       4    9864    9840    9861    9879       4
    9861    9879    9891    9909       4    9861    9879    9894    9915       4
    9858    9834    9852    9870       2    9858    9834    9852    9873       1
    9858    9834    9852    9876       1    9855    9834    9852    9870       2
    9855    9834    9852    9873       1    9855    9834    9852    9876       1
    9852    9870    9882    9900       2    9852    9870    9882    9903       2
    9846    9828    9843    9861       4    9846    9828    9843    9867       4
    9843    9861    9840    9864       4    9840    9861    9843    9867       4
    9837    9822    9831    9849       4    9834    9816    9831    9849       4
    9834    9852    9870    9885       2    9834    9852    9870    9888       2
    9831    9816    9834    9855       7    9831    9816    9834    9858       7
    9825    9813    9828    9846       4    9819    9804    9816    9831       4
    9819    9804    9816    9834       4    9816    9831    9822    9837       4
    9816    9834    9852    9873       8    9816    9834    9852    9876       8
    9813    9825    9840    9864       4    9813    9828    9843    9867       4
    9810    9825    9840    9864       4    9807    9795    9804    9819       4
    9807    9822    9831    9849       4    9804    9816    9831    9849       4
    9804    9816    9834    9855       7    9804    9816    9834    9858       7
    9801    9813    9828    9846       4    9798    9807    9822    9837       4
    9795    9807    9822    9837       4    9792    9795    9804    9819       4
   10164   10149   10161   10167       1   10164   10149   10161   10170       1
   10164   10149   10161   10173       1   10158   10149   10161   10167       1
   10158   10149   10161   10170       1   10158   10149   10161   10173       1
   10155   10146   10149   10158       1   10155   10146   10149   10161       2
   10155   10146   10149   10164       1   10152   10146   10149   10158       1
   10152   10146   10149   10161       2   10152   10146   10149   10164       1
   10146   10149   10161   10167       2   10146   10149   10161   10170       2
   10146   10149   10161   10173       2   10143   10128   10146   10149       2
   10143   10128   10146   10152       1   10143   10128   10146   10155       1
   10140   10128   10146   10149       2   10140   10128   10146   10152       1
   10140   10128   10146   10155       1   10134   10110   10128   10140       1
   10134   10110   10128   10143       1   10134   10110   10128   10146       2
   10131   10110   10128   10140       1   10131   10110   10128   10143       1
   10131   10110   10128   10146       2   10128   10146   10149   10158       2
   10128   10146   10149   10164       2   10125   10104   10119   10137       4
   10122   10098   10119   10137       4   10116   10089   10110   10128       2
   10116   10089   10110   10131       1   10116   10089   10110   10134       1
   10113   10089   10110   10128       2   10113   10089   10110   10131       1
   10113   10089   10110   10134       1   10110   10128   10146   10152       2
   10110   10128   10146   10155       2   10107   10086   10104   10119       4
   10107   10086   10104   10125       4   10104   10119   10098   10122       4
   10101   10083   10098   10119       4   10101   10083   10098   10122       4
   10098   10119   10104   10125       4   10095   10074   10089   10110       2
   10095   10074   10089   10113       1   10095   10074   10089   10116       1
   10092   10074   10089   10110       2   10092   10074   10089   10113       1
   10092   10074   10089   10116       1   10089   10110   10128   10140       2
   10089   10110   10128   10143       2   10086   10071   10083   10101       4
   10086   10104   10119   10137       4   10083   10071   10086   10107       4
   10083   10098   10119   10137       4   10080   10062   10074   10089       2
   10080   10062   10074   10092       1   10080   10062   10074   10095       1
   10077   10062   10074   10089       2   10077   10062   10074   10092       1
   10077   10062   10074   10095       1   10074   10089   10110   10131       2
   10074   10089   10110   10134       2   10071   10083   10098   10122       4
   10071   10086   10104   10125       4   10068   10044   10062   10074       2
   10068   10044   10062   10077       1   10068   10044   10062   10080       1
   10065   10044   10062   10074       2   10065   10044   10062   10077       1
   10065   10044   10062   10080       1   10062   10074   10089   10113       2
   10062   10074   10089   10116       2   10059   10035   10053   10071       4
   10056   10032   10053   10071       4   10053   10071   10083   10101       4
   10053   10071   10086   10107       4   10050   10026   10044   10062       2
   10050   10026   10044   10065       1   10050   10026   10044   10068       1
   10047   10026   10044   10062       2   10047   10026   10044   10065       1
   10047   10026   10044   10068       1   10044   10062   10074   10092       2
   10044   10062   10074   10095       2   10038   10020   10035   10053       4
   10038   10020   10035   10059       4   10035   10053   10032   10056       4
   10032   10053   10035   10059       4   10029   10014   10023   10041       4
   10026   10008   10023   10041       4   10026   10044   10062   10077       2
   10026   10044   10062   10080       2   10023   10008   10026   10047       7
   10023   10008   10026   10050       7   10017   10005   10020   10038       4
   10011    9996   10008   10023       4   10011    9996   10008   10026       4
   10008   10023   10014   10029       4   10008   10026   10044   10065       8
   10008   10026   10044   10068       8   10005   10017   10032   10056       4
   10005   10020   10035   10059       4   10002   10017   10032   10056       4
    9999    9987    9996   10011       4    9999   10014   10023   10041       4
    9996   10008   10023   10041       4    9996   10008   10026   10047       7
    9996   10008   10026   10050       7    9993   10005   10020   10038       4
    9990    9999   10014   10029       4    9987    9999   10014   10029       4
    9984    9987    9996   10011       4   10356   10341   10353   10359       1
   10356   10341   10353   10362       1   10356   10341   10353   10365       1
   10350   10341   10353   10359       1   10350   10341   10353   10362       1
   10350   10341   10353   10365       1   10347   10338   10341   10350       1
   10347   10338   10341   10353       2   10347   10338   10341   10356       1
   10344   10338   10341   10350       1   10344   10338   10341   10353       2
   10344   10338   10341   10356       1   10338   10341   10353   10359       2
   10338   10341   10353   10362       2   10338   10341   10353   10365       2
   10335   10320   10338   10341       2   10335   10320   10338   10344       1
   10335   10320   10338   10347       1   10332   10320   10338   10341       2
   10332   10320   10338   10344       1   10332   10320   10338   10347       1
   10326   10302   10320   10332       1   10326   10302   10320   10335       1
   10326   10302   10320   10338       2   10323   10302   10320   10332       1
   10323   10302   10320   10335       1   10323   10302   10320   10338       2
   10320   10338   10341   10350       2   10320   10338   10341   10356       2
   10317   10296   10311   10329       4   10314   10290   10311   10329       4
   10308   10281   10302   10320       2   10308   10281   10302   10323       1
   10308   10281   10302   10326       1   10305   10281   10302   10320       2
   10305   10281   10302   10323       1   10305   10281   10302   10326       1
   10302   10320   10338   10344       2   10302   10320   10338   10347       2
   10299   10278   10296   10311       4   10299   10278   10296   10317       4
   10296   10311   10290   10314       4   10293   10275   10290   10311       4
   10293   10275   10290   10314       4   10290   10311   10296   10317       4
   10287   10266   10281   10302       2   10287   10266   10281   10305       1
   10287   10266   10281   10308       1   10284   10266   10281   10302       2
   10284   10266   10281   10305       1   10284   10266   10281   10308       1
   10281   10302   10320   10332       2   10281   10302   10320   10335       2
   10278   10263   10275   10293       4   10278   10296   10311   10329       4
   10275   10263   10278   10299       4   10275   10290   10311   10329       4
   10272   10254   10266   10281       2   10272   10254   10266   10284       1
   10272   10254   10266   10287       1   10269   10254   10266   10281       2
   10269   10254   10266   10284       1   10269   10254   10266   10287       1
   10266   10281   10302   10323       2   10266   10281   10302   10326       2
   10263   10275   10290   10314       4   10263   10278   10296   10317       4
   10260   10236   10254   10266       2   10260   10236   10254   10269       1
   10260   10236   10254   10272       1   10257   10236   10254   10266       2
   10257   10236   10254   10269       1   10257   10236   10254   10272       1
   10254   10266   10281   10305       2   10254   10266   10281   10308       2
   10251   10227   10245   10263       4   10248   10224   10245   10263       4
   10245   10263   10275   10293       4   10245   10263   10278   10299       4
   10242   10218   10236   10254       2   10242   10218   10236   10257       1
   10242   10218   10236   10260       1   10239   10218   10236   10254       2
   10239   10218   10236   10257       1   10239   10218   10236   10260       1
   10236   10254   10266   10284       2   10236   10254   10266   10287       2
   10230   10212   10227   10245       4   10230   10212   10227   10251       4
   10227   10245   10224   10248       4   10224   10245   10227   10251       4
   10221   10206   10215   10233       4   10218   10200   10215   10233       4
   10218   10236   10254   10269       2   10218   10236   10254   10272       2
   10215   10200   10218   10239       7   10215   10200   10218   10242       7
   10209   10197   10212   10230       4   10203   10188   10200   10215       4
   10203   10188   10200   10218       4   10200   10215   10206   10221       4
   10200   10218   10236   10257       8   10200   10218   10236   10260       8
   10197   10209   10224   10248       4   10197   10212   10227   10251       4
   10194   10209   10224   10248       4   10191   10179   10188   10203       4
   10191   10206   10215   10233       4   10188   10200   10215   10233       4
   10188   10200   10218   10239       7   10188   10200   10218   10242       7
   10185   10197   10212   10230       4   10182   10191   10206   10221       4
   10179   10191   10206   10221       4   10176   10179   10188   10203       4
   10548   10533   10545   10551       1   10548   10533   10545   10554       1
   10548   10533   10545   10557       1   10542   10533   10545   10551       1
   10542   10533   10545   10554       1   10542   10533   10545   10557       1
   10539   10530   10533   10542       1   10539   10530   10533   10545       2
   10539   10530   10533   10548       1   10536   10530   10533   10542       1
   10536   10530   10533   10545       2   10536   10530   10533   10548       1
   10530   10533   10545   10551       2   10530   10533   10545   10554       2
   10530   10533   10545   10557       2   10527   10512   10530   10533       2
   10527   10512   10530   10536       1   10527   10512   10530   10539       1
   10524   10512   10530   10533       2   10524   10512   10530   10536       1
   10524   10512   10530   10539       1   10518   10494   10512   10524       1
   10518   10494   10512   10527       1   10518   10494   10512   10530       2
   10515   10494   10512   10524       1   10515   10494   10512   10527       1
   10515   10494   10512   10530       2   10512   10530   10533   10542       2
   10512   10530   10533   10548       2   10509   10488   10503   10521       4
   10506   10482   10503   10521       4   10500   10473   10494   10512       2
   10500   10473   10494   10515       1   10500   10473   10494   10518       1
   10497   10473   10494   10512       2   10497   10473   10494   10515       1
   10497   10473   10494   10518       1   10494   10512   10530   10536       2
   10494   10512   10530   10539       2   10491   10470   10488   10503       4
   10491   10470   10488   10509       4   10488   10503   10482   10506       4
   10485   10467   10482   10503       4   10485   10467   10482   10506       4
   10482   10503   10488   10509       4   10479   10458   10473   10494       2
   10479   10458   10473   10497       1   10479   10458   10473   10500       1
   10476   10458   10473   10494       2   10476   10458   10473   10497       1
   10476   10458   10473   10500       1   10473   10494   10512   10524       2
   10473   10494   10512   10527       2   10470   10455   10467   10485       4
   10470   10488   10503   10521       4   10467   10455   10470   10491       4
   10467   10482   10503   10521       4   10464   10446   10458   10473       2
   10464   10446   10458   10476       1   10464   10446   10458   10479       1
   10461   10446   10458   10473       2   10461   10446   10458   10476       1
   10461   10446   10458   10479       1   10458   10473   10494   10515       2
   10458   10473   10494   10518       2   10455   10467   10482   10506       4
   10455   10470   10488   10509       4   10452   10428   10446   10458       2
   10452   10428   10446   10461       1   10452   10428   10446   10464       1
   10449   10428   10446   10458       2   10449   10428   10446   10461       1
   10449   10428   10446   10464       1   10446   10458   10473   10497       2
   10446   10458   10473   10500       2   10443   10419   10437   10455       4
   10440   10416   10437   10455       4   10437   10455   10467   10485       4
   10437   10455   10470   10491       4   10434   10410   10428   10446       2
   10434   10410   10428   10449       1   10434   10410   10428   10452       1
   10431   10410   10428   10446       2   10431   10410   10428   10449       1
   10431   10410   10428   10452       1   10428   10446   10458   10476       2
   10428   10446   10458   10479       2   10422   10404   10419   10437       4
   10422   10404   10419   10443       4   10419   10437   10416   10440       4
   10416   10437   10419   10443       4   10413   10398   10407   10425       4
   10410   10392   10407   10425       4   10410   10428   10446   10461       2
   10410   10428   10446   10464       2   10407   10392   10410   10431       7
   10407   10392   10410   10434       7   10401   10389   10404   10422       4
   10395   10380   10392   10407       4   10395   10380   10392   10410       4
   10392   10407   10398   10413       4   10392   10410   10428   10449       8
   10392   10410   10428   10452       8   10389   10401   10416   10440       4
   10389   10404   10419   10443       4   10386   10401   10416   10440       4
   10383   10371   10380   10395       4   10383   10398   10407   10425       4
   10380   10392   10407   10425       4   10380   10392   10410   10431       7
   10380   10392   10410   10434       7   10377   10389   10404   10422       4
   10374   10383   10398   10413       4   10371   10383   10398   10413       4
   10368   10371   10380   10395       4   10740   10725   10737   10743       1
   10740   10725   10737   10746       1   10740   10725   10737   10749       1
   10734   10725   10737   10743       1   10734   10725   10737   10746       1
   10734   10725   10737   10749       1   10731   10722   10725   10734       1
   10731   10722   10725   10737       2   10731   10722   10725   10740       1
   10728   10722   10725   10734       1   10728   10722   10725   10737       2
   10728   10722   10725   10740       1   10722   10725   10737   10743       2
   10722   10725   10737   10746       2   10722   10725   10737   10749       2
   10719   10704   10722   10725       2   10719   10704   10722   10728       1
   10719   10704   10722   10731       1   10716   10704   10722   10725       2
   10716   10704   10722   10728       1   10716   10704   10722   10731       1
   10710   10686   10704   10716       1   10710   10686   10704   10719       1
   10710   10686   10704   10722       2   10707   10686   10704   10716       1
   10707   10686   10704   10719       1   10707   10686   10704   10722       2
   10704   10722   10725   10734       2   10704   10722   10725   10740       2
   10701   10680   10695   10713       4   10698   10674   10695   10713       4
   10692   10665   10686   10704       2   10692   10665   10686   10707       1
   10692   10665   10686   10710       1   10689   10665   10686   10704       2
   10689   10665   10686   10707       1   10689   10665   10686   10710       1
   10686   10704   10722   10728       2   10686   10704   10722   10731       2
   10683   10662   10680   10695       4   10683   10662   10680   10701       4
   10680   10695   10674   10698       4   10677   10659   10674   10695       4
   10677   10659   10674   10698       4   10674   10695   10680   10701       4
   10671   10650   10665   10686       2   10671   10650   10665   10689       1
   10671   10650   10665   10692       1   10668   10650   10665   10686       2
   10668   10650   10665   10689       1   10668   10650   10665   10692       1
   10665   10686   10704   10716       2   10665   10686   10704   10719       2
   10662   10647   10659   10677       4   10662   10680   10695   10713       4
   10659   10647   10662   10683       4   10659   10674   10695   10713       4
   10656   10638   10650   10665       2   10656   10638   10650   10668       1
   10656   10638   10650   10671       1   10653   10638   10650   10665       2
   10653   10638   10650   10668       1   10653   10638   10650   10671       1
   10650   10665   10686   10707       2   10650   10665   10686   10710       2
   10647   10659   10674   10698       4   10647   10662   10680   10701       4
   10644   10620   10638   10650       2   10644   10620   10638   10653       1
   10644   10620   10638   10656       1   10641   10620   10638   10650       2
   10641   10620   10638   10653       1   10641   10620   10638   10656       1
   10638   10650   10665   10689       2   10638   10650   10665   10692       2
   10635   10611   10629   10647       4   10632   10608   10629   10647       4
   10629   10647   10659   10677       4   10629   10647   10662   10683       4
   10626   10602   10620   10638       2   10626   10602   10620   10641       1
   10626   10602   10620   10644       1   10623   10602   10620   10638       2
   10623   10602   10620   10641       1   10623   10602   10620   10644       1
   10620   10638   10650   10668       2   10620   10638   10650   10671       2
   10614   10596   10611   10629       4   10614   10596   10611   10635       4
   10611   10629   10608   10632       4   10608   10629   10611   10635       4
   10605   10590   10599   10617       4   10602   10584   10599   10617       4
   10602   10620   10638   10653       2   10602   10620   10638   10656       2
   10599   10584   10602   10623       7   10599   10584   10602   10626       7
   10593   10581   10596   10614       4   10587   10572   10584   10599       4
   10587   10572   10584   10602       4   10584   10599   10590   10605       4
   10584   10602   10620   10641       8   10584   10602   10620   10644       8
   10581   10593   10608   10632       4   10581   10596   10611   10635       4
   10578   10593   10608   10632       4   10575   10563   10572   10587       4
   10575   10590   10599   10617       4   10572   10584   10599   10617       4
   10572   10584   10602   10623       7   10572   10584   10602   10626       7
   10569   10581   10596   10614       4   10566   10575   10590   10605       4
   10563   10575   10590   10605       4   10560   10563   10572   10587       4
   10932   10917   10929   10935       1   10932   10917   10929   10938       1
   10932   10917   10929   10941       1   10926   10917   10929   10935       1
   10926   10917   10929   10938       1   10926   10917   10929   10941       1
   10923   10914   10917   10926       1   10923   10914   10917   10929       2
   10923   10914   10917   10932       1   10920   10914   10917   10926       1
   10920   10914   10917   10929       2   10920   10914   10917   10932       1
   10914   10917   10929   10935       2   10914   10917   10929   10938       2
   10914   10917   10929   10941       2   10911   10896   10914   10917       2
   10911   10896   10914   10920       1   10911   10896   10914   10923       1
   10908   10896   10914   10917       2   10908   10896   10914   10920       1
   10908   10896   10914   10923       1   10902   10878   10896   10908       1
   10902   10878   10896   10911       1   10902   10878   10896   10914       2
   10899   10878   10896   10908       1   10899   10878   10896   10911       1
   10899   10878   10896   10914       2   10896   10914   10917   10926       2
   10896   10914   10917   10932       2   10893   10872   10887   10905       4
   10890   10866   10887   10905       4   10884   10857   10878   10896       2
   10884   10857   10878   10899       1   10884   10857   10878   10902       1
   10881   10857   10878   10896       2   10881   10857   10878   10899       1
   10881   10857   10878   10902       1   10878   10896   10914   10920       2
   10878   10896   10914   10923       2   10875   10854   10872   10887       4
   10875   10854   10872   10893       4   10872   10887   10866   10890       4
   10869   10851   10866   10887       4   10869   10851   10866   10890       4
   10866   10887   10872   10893       4   10863   10842   10857   10878       2
   10863   10842   10857   10881       1   10863   10842   10857   10884       1
   10860   10842   10857   10878       2   10860   10842   10857   10881       1
   10860   10842   10857   10884       1   10857   10878   10896   10908       2
   10857   10878   10896   10911       2   10854   10839   10851   10869       4
   10854   10872   10887   10905       4   10851   10839   10854   10875       4
   10851   10866   10887   10905       4   10848   10830   10842   10857       2
   10848   10830   10842   10860       1   10848   10830   10842   10863       1
   10845   10830   10842   10857       2   10845   10830   10842   10860       1
   10845   10830   10842   10863       1   10842   10857   10878   10899       2
   10842   10857   10878   10902       2   10839   10851   10866   10890       4
   10839   10854   10872   10893       4   10836   10812   10830   10842       2
   10836   10812   10830   10845       1   10836   10812   10830   10848       1
   10833   10812   10830   10842       2   10833   10812   10830   10845       1
   10833   10812   10830   10848       1   10830   10842   10857   10881       2
   10830   10842   10857   10884       2   10827   10803   10821   10839       4
   10824   10800   10821   10839       4   10821   10839   10851   10869       4
   10821   10839   10854   10875       4   10818   10794   10812   10830       2
   10818   10794   10812   10833       1   10818   10794   10812   10836       1
   10815   10794   10812   10830       2   10815   10794   10812   10833       1
   10815   10794   10812   10836       1   10812   10830   10842   10860       2
   10812   10830   10842   10863       2   10806   10788   10803   10821       4
   10806   10788   10803   10827       4   10803   10821   10800   10824       4
   10800   10821   10803   10827       4   10797   10782   10791   10809       4
   10794   10776   10791   10809       4   10794   10812   10830   10845       2
   10794   10812   10830   10848       2   10791   10776   10794   10815       7
   10791   10776   10794   10818       7   10785   10773   10788   10806       4
   10779   10764   10776   10791       4   10779   10764   10776   10794       4
   10776   10791   10782   10797       4   10776   10794   10812   10833       8
   10776   10794   10812   10836       8   10773   10785   10800   10824       4
   10773   10788   10803   10827       4   10770   10785   10800   10824       4
   10767   10755   10764   10779       4   10767   10782   10791   10809       4
   10764   10776   10791   10809       4   10764   10776   10794   10815       7
   10764   10776   10794   10818       7   10761   10773   10788   10806       4
   10758   10767   10782   10797       4   10755   10767   10782   10797       4
   10752   10755   10764   10779       4   11124   11109   11121   11127       1
   11124   11109   11121   11130       1   11124   11109   11121   11133       1
   11118   11109   11121   11127       1   11118   11109   11121   11130       1
   11118   11109   11121   11133       1   11115   11106   11109   11118       1
   11115   11106   11109   11121       2   11115   11106   11109   11124       1
   11112   11106   11109   11118       1   11112   11106   11109   11121       2
   11112   11106   11109   11124       1   11106   11109   11121   11127       2
   11106   11109   11121   11130       2   11106   11109   11121   11133       2
   11103   11088   11106   11109       2   11103   11088   11106   11112       1
   11103   11088   11106   11115       1   11100   11088   11106   11109       2
   11100   11088   11106   11112       1   11100   11088   11106   11115       1
   11094   11070   11088   11100       1   11094   11070   11088   11103       1
   11094   11070   11088   11106       2   11091   11070   11088   11100       1
   11091   11070   11088   11103       1   11091   11070   11088   11106       2
   11088   11106   11109   11118       2   11088   11106   11109   11124       2
   11085   11064   11079   11097       4   11082   11058   11079   11097       4
   11076   11049   11070   11088       2   11076   11049   11070   11091       1
   11076   11049   11070   11094       1   11073   11049   11070   11088       2
   11073   11049   11070   11091       1   11073   11049   11070   11094       1
   11070   11088   11106   11112       2   11070   11088   11106   11115       2
   11067   11046   11064   11079       4   11067   11046   11064   11085       4
   11064   11079   11058   11082       4   11061   11043   11058   11079       4
   11061   11043   11058   11082       4   11058   11079   11064   11085       4
   11055   11034   11049   11070       2   11055   11034   11049   11073       1
   11055   11034   11049   11076       1   11052   11034   11049   11070       2
   11052   11034   11049   11073       1   11052   11034   11049   11076       1
   11049   11070   11088   11100       2   11049   11070   11088   11103       2
   11046   11031   11043   11061       4   11046   11064   11079   11097       4
   11043   11031   11046   11067       4   11043   11058   11079   11097       4
   11040   11022   11034   11049       2   11040   11022   11034   11052       1
   11040   11022   11034   11055       1   11037   11022   11034   11049       2
   11037   11022   11034   11052       1   11037   11022   11034   11055       1
   11034   11049   11070   11091       2   11034   11049   11070   11094       2
   11031   11043   11058   11082       4   11031   11046   11064   11085       4
   11028   11004   11022   11034       2   11028   11004   11022   11037       1
   11028   11004   11022   11040       1   11025   11004   11022   11034       2
   11025   11004   11022   11037       1   11025   11004   11022   11040       1
   11022   11034   11049   11073       2   11022   11034   11049   11076       2
   11019   10995   11013   11031       4   11016   10992   11013   11031       4
   11013   11031   11043   11061       4   11013   11031   11046   11067       4
   11010   10986   11004   11022       2   11010   10986   11004   11025       1
   11010   10986   11004   11028       1   11007   10986   11004   11022       2
   11007   10986   11004   11025       1   11007   10986   11004   11028       1
   11004   11022   11034   11052       2   11004   11022   11034   11055       2
   10998   10980   10995   11013       4   10998   10980   10995   11019       4
   10995   11013   10992   11016       4   10992   11013   10995   11019       4
   10989   10974   10983   11001       4   10986   10968   10983   11001       4
   10986   11004   11022   11037       2   10986   11004   11022   11040       2
   10983   10968   10986   11007       7   10983   10968   10986   11010       7
   10977   10965   10980   10998       4   10971   10956   10968   10983       4
   10971   10956   10968   10986       4   10968   10983   10974   10989       4
   10968   10986   11004   11025       8   10968   10986   11004   11028       8
   10965   10977   10992   11016       4   10965   10980   10995   11019       4
   10962   10977   10992   11016       4   10959   10947   10956   10971       4
   10959   10974   10983   11001       4   10956   10968   10983   11001       4
   10956   10968   10986   11007       7   10956   10968   10986   11010       7
   10953   10965   10980   10998       4   10950   10959   10974   10989       4
   10947   10959   10974   10989       4   10944   10947   10956   10971       4
   11316   11301   11313   11319       1   11316   11301   11313   11322       1
   11316   11301   11313   11325       1   11310   11301   11313   11319       1
   11310   11301   11313   11322       1   11310   11301   11313   11325       1
   11307   11298   11301   11310       1   11307   11298   11301   11313       2
   11307   11298   11301   11316       1   11304   11298   11301   11310       1
   11304   11298   11301   11313       2   11304   11298   11301   11316       1
   11298   11301   11313   11319       2   11298   11301   11313   11322       2
   11298   11301   11313   11325       2   11295   11280   11298   11301       2
   11295   11280   11298   11304       1   11295   11280   11298   11307       1
   11292   11280   11298   11301       2   11292   11280   11298   11304       1
   11292   11280   11298   11307       1   11286   11262   11280   11292       1
   11286   11262   11280   11295       1   11286   11262   11280   11298       2
   11283   11262   11280   11292       1   11283   11262   11280   11295       1
   11283   11262   11280   11298       2   11280   11298   11301   11310       2
   11280   11298   11301   11316       2   11277   11256   11271   11289       4
   11274   11250   11271   11289       4   11268   11241   11262   11280       2
   11268   11241   11262   11283       1   11268   11241   11262   11286       1
   11265   11241   11262   11280       2   11265   11241   11262   11283       1
   11265   11241   11262   11286       1   11262   11280   11298   11304       2
   11262   11280   11298   11307       2   11259   11238   11256   11271       4
   11259   11238   11256   11277       4   11256   11271   11250   11274       4
   11253   11235   11250   11271       4   11253   11235   11250   11274       4
   11250   11271   11256   11277       4   11247   11226   11241   11262       2
   11247   11226   11241   11265       1   11247   11226   11241   11268       1
   11244   11226   11241   11262       2   11244   11226   11241   11265       1
   11244   11226   11241   11268       1   11241   11262   11280   11292       2
   11241   11262   11280   11295       2   11238   11223   11235   11253       4
   11238   11256   11271   11289       4   11235   11223   11238   11259       4
   11235   11250   11271   11289       4   11232   11214   11226   11241       2
   11232   11214   11226   11244       1   11232   11214   11226   11247       1
   11229   11214   11226   11241       2   11229   11214   11226   11244       1
   11229   11214   11226   11247       1   11226   11241   11262   11283       2
   11226   11241   11262   11286       2   11223   11235   11250   11274       4
   11223   11238   11256   11277       4   11220   11196   11214   11226       2
   11220   11196   11214   11229       1   11220   11196   11214   11232       1
   11217   11196   11214   11226       2   11217   11196   11214   11229       1
   11217   11196   11214   11232       1   11214   11226   11241   11265       2
   11214   11226   11241   11268       2   11211   11187   11205   11223       4
   11208   11184   11205   11223       4   11205   11223   11235   11253       4
   11205   11223   11238   11259       4   11202   11178   11196   11214       2
   11202   11178   11196   11217       1   11202   11178   11196   11220       1
   11199   11178   11196   11214       2   11199   11178   11196   11217       1
   11199   11178   11196   11220       1   11196   11214   11226   11244       2
   11196   11214   11226   11247       2   11190   11172   11187   11205       4
   11190   11172   11187   11211       4   11187   11205   11184   11208       4
   11184   11205   11187   11211       4   11181   11166   11175   11193       4
   11178   11160   11175   11193       4   11178   11196   11214   11229       2
   11178   11196   11214   11232       2   11175   11160   11178   11199       7
   11175   11160   11178   11202       7   11169   11157   11172   11190       4
   11163   11148   11160   11175       4   11163   11148   11160   11178       4
   11160   11175   11166   11181       4   11160   11178   11196   11217       8
   11160   11178   11196   11220       8   11157   11169   11184   11208       4
   11157   11172   11187   11211       4   11154   11169   11184   11208       4
   11151   11139   11148   11163       4   11151   11166   11175   11193       4
   11148   11160   11175   11193       4   11148   11160   11178   11199       7
   11148   11160   11178   11202       7   11145   11157   11172   11190       4
   11142   11151   11166   11181       4   11139   11151   11166   11181       4
   11136   11139   11148   11163       4   11508   11493   11505   11511       1
   11508   11493   11505   11514       1   11508   11493   11505   11517       1
   11502   11493   11505   11511       1   11502   11493   11505   11514       1
   11502   11493   11505   11517       1   11499   11490   11493   11502       1
   11499   11490   11493   11505       2   11499   11490   11493   11508       1
   11496   11490   11493   11502       1   11496   11490   11493   11505       2
   11496   11490   11493   11508       1   11490   11493   11505   11511       2
   11490   11493   11505   11514       2   11490   11493   11505   11517       2
   11487   11472   11490   11493       2   11487   11472   11490   11496       1
   11487   11472   11490   11499       1   11484   11472   11490   11493       2
   11484   11472   11490   11496       1   11484   11472   11490   11499       1
   11478   11454   11472   11484       1   11478   11454   11472   11487       1
   11478   11454   11472   11490       2   11475   11454   11472   11484       1
   11475   11454   11472   11487       1   11475   11454   11472   11490       2
   11472   11490   11493   11502       2   11472   11490   11493   11508       2
   11469   11448   11463   11481       4   11466   11442   11463   11481       4
   11460   11433   11454   11472       2   11460   11433   11454   11475       1
   11460   11433   11454   11478       1   11457   11433   11454   11472       2
   11457   11433   11454   11475       1   11457   11433   11454   11478       1
   11454   11472   11490   11496       2   11454   11472   11490   11499       2
   11451   11430   11448   11463       4   11451   11430   11448   11469       4
   11448   11463   11442   11466       4   11445   11427   11442   11463       4
   11445   11427   11442   11466       4   11442   11463   11448   11469       4
   11439   11418   11433   11454       2   11439   11418   11433   11457       1
   11439   11418   11433   11460       1   11436   11418   11433   11454       2
   11436   11418   11433   11457       1   11436   11418   11433   11460       1
   11433   11454   11472   11484       2   11433   11454   11472   11487       2
   11430   11415   11427   11445       4   11430   11448   11463   11481       4
   11427   11415   11430   11451       4   11427   11442   11463   11481       4
   11424   11406   11418   11433       2   11424   11406   11418   11436       1
   11424   11406   11418   11439       1   11421   11406   11418   11433       2
   11421   11406   11418   11436       1   11421   11406   11418   11439       1
   11418   11433   11454   11475       2   11418   11433   11454   11478       2
   11415   11427   11442   11466       4   11415   11430   11448   11469       4
   11412   11388   11406   11418       2   11412   11388   11406   11421       1
   11412   11388   11406   11424       1   11409   11388   11406   11418       2
   11409   11388   11406   11421       1   11409   11388   11406   11424       1
   11406   11418   11433   11457       2   11406   11418   11433   11460       2
   11403   11379   11397   11415       4   11400   11376   11397   11415       4
   11397   11415   11427   11445       4   11397   11415   11430   11451       4
   11394   11370   11388   11406       2   11394   11370   11388   11409       1
   11394   11370   11388   11412       1   11391   11370   11388   11406       2
   11391   11370   11388   11409       1   11391   11370   11388   11412       1
   11388   11406   11418   11436       2   11388   11406   11418   11439       2
   11382   11364   11379   11397       4   11382   11364   11379   11403       4
   11379   11397   11376   11400       4   11376   11397   11379   11403       4
   11373   11358   11367   11385       4   11370   11352   11367   11385       4
   11370   11388   11406   11421       2   11370   11388   11406   11424       2
   11367   11352   11370   11391       7   11367   11352   11370   11394       7
   11361   11349   11364   11382       4   11355   11340   11352   11367       4
   11355   11340   11352   11370       4   11352   11367   11358   11373       4
   11352   11370   11388   11409       8   11352   11370   11388   11412       8
   11349   11361   11376   11400       4   11349   11364   11379   11403       4
   11346   11361   11376   11400       4   11343   11331   11340   11355       4
   11343   11358   11367   11385       4   11340   11352   11367   11385       4
   11340   11352   11370   11391       7   11340   11352   11370   11394       7
   11337   11349   11364   11382       4   11334   11343   11358   11373       4
   11331   11343   11358   11373       4   11328   11331   11340   11355       4
   11700   11685   11697   11703       1   11700   11685   11697   11706       1
   11700   11685   11697   11709       1   11694   11685   11697   11703       1
   11694   11685   11697   11706       1   11694   11685   11697   11709       1
   11691   11682   11685   11694       1   11691   11682   11685   11697       2
   11691   11682   11685   11700       1   11688   11682   11685   11694       1
   11688   11682   11685   11697       2   11688   11682   11685   11700       1
   11682   11685   11697   11703       2   11682   11685   11697   11706       2
   11682   11685   11697   11709       2   11679   11664   11682   11685       2
   11679   11664   11682   11688       1   11679   11664   11682   11691       1
   11676   11664   11682   11685       2   11676   11664   11682   11688       1
   11676   11664   11682   11691       1   11670   11646   11664   11676       1
   11670   11646   11664   11679       1   11670   11646   11664   11682       2
   11667   11646   11664   11676       1   11667   11646   11664   11679       1
   11667   11646   11664   11682       2   11664   11682   11685   11694       2
   11664   11682   11685   11700       2   11661   11640   11655   11673       4
   11658   11634   11655   11673       4   11652   11625   11646   11664       2
   11652   11625   11646   11667       1   11652   11625   11646   11670       1
   11649   11625   11646   11664       2   11649   11625   11646   11667       1
   11649   11625   11646   11670       1   11646   11664   11682   11688       2
   11646   11664   11682   11691       2   11643   11622   11640   11655       4
   11643   11622   11640   11661       4   11640   11655   11634   11658       4
   11637   11619   11634   11655       4   11637   11619   11634   11658       4
   11634   11655   11640   11661       4   11631   11610   11625   11646       2
   11631   11610   11625   11649       1   11631   11610   11625   11652       1
   11628   11610   11625   11646       2   11628   11610   11625   11649       1
   11628   11610   11625   11652       1   11625   11646   11664   11676       2
   11625   11646   11664   11679       2   11622   11607   11619   11637       4
   11622   11640   11655   11673       4   11619   11607   11622   11643       4
   11619   11634   11655   11673       4   11616   11598   11610   11625       2
   11616   11598   11610   11628       1   11616   11598   11610   11631       1
   11613   11598   11610   11625       2   11613   11598   11610   11628       1
   11613   11598   11610   11631       1   11610   11625   11646   11667       2
   11610   11625   11646   11670       2   11607   11619   11634   11658       4
   11607   11622   11640   11661       4   11604   11580   11598   11610       2
   11604   11580   11598   11613       1   11604   11580   11598   11616       1
   11601   11580   11598   11610       2   11601   11580   11598   11613       1
   11601   11580   11598   11616       1   11598   11610   11625   11649       2
   11598   11610   11625   11652       2   11595   11571   11589   11607       4
   11592   11568   11589   11607       4   11589   11607   11619   11637       4
   11589   11607   11622   11643       4   11586   11562   11580   11598       2
   11586   11562   11580   11601       1   11586   11562   11580   11604       1
   11583   11562   11580   11598       2   11583   11562   11580   11601       1
   11583   11562   11580   11604       1   11580   11598   11610   11628       2
   11580   11598   11610   11631       2   11574   11556   11571   11589       4
   11574   11556   11571   11595       4   11571   11589   11568   11592       4
   11568   11589   11571   11595       4   11565   11550   11559   11577       4
   11562   11544   11559   11577       4   11562   11580   11598   11613       2
   11562   11580   11598   11616       2   11559   11544   11562   11583       7
   11559   11544   11562   11586       7   11553   11541   11556   11574       4
   11547   11532   11544   11559       4   11547   11532   11544   11562       4
   11544   11559   11550   11565       4   11544   11562   11580   11601       8
   11544   11562   11580   11604       8   11541   11553   11568   11592       4
   11541   11556   11571   11595       4   11538   11553   11568   11592       4
   11535   11523   11532   11547       4   11535   11550   11559   11577       4
   11532   11544   11559   11577       4   11532   11544   11562   11583       7
   11532   11544   11562   11586       7   11529   11541   11556   11574       4
   11526   11535   11550   11565       4   11523   11535   11550   11565       4
   11520   11523   11532   11547       4   11892   11877   11889   11895       1
   11892   11877   11889   11898       1   11892   11877   11889   11901       1
   11886   11877   11889   11895       1   11886   11877   11889   11898       1
   11886   11877   11889   11901       1   11883   11874   11877   11886       1
   11883   11874   11877   11889       2   11883   11874   11877   11892       1
   11880   11874   11877   11886       1   11880   11874   11877   11889       2
   11880   11874   11877   11892       1   11874   11877   11889   11895       2
   11874   11877   11889   11898       2   11874   11877   11889   11901       2
   11871   11856   11874   11877       2   11871   11856   11874   11880       1
   11871   11856   11874   11883       1   11868   11856   11874   11877       2
   11868   11856   11874   11880       1   11868   11856   11874   11883       1
   11862   11838   11856   11868       1   11862   11838   11856   11871       1
   11862   11838   11856   11874       2   11859   11838   11856   11868       1
   11859   11838   11856   11871       1   11859   11838   11856   11874       2
   11856   11874   11877   11886       2   11856   11874   11877   11892       2
   11853   11832   11847   11865       4   11850   11826   11847   11865       4
   11844   11817   11838   11856       2   11844   11817   11838   11859       1
   11844   11817   11838   11862       1   11841   11817   11838   11856       2
   11841   11817   11838   11859       1   11841   11817   11838   11862       1
   11838   11856   11874   11880       2   11838   11856   11874   11883       2
   11835   11814   11832   11847       4   11835   11814   11832   11853       4
   11832   11847   11826   11850       4   11829   11811   11826   11847       4
   11829   11811   11826   11850       4   11826   11847   11832   11853       4
   11823   11802   11817   11838       2   11823   11802   11817   11841       1
   11823   11802   11817   11844       1   11820   11802   11817   11838       2
   11820   11802   11817   11841       1   11820   11802   11817   11844       1
   11817   11838   11856   11868       2   11817   11838   11856   11871       2
   11814   11799   11811   11829       4   11814   11832   11847   11865       4
   11811   11799   11814   11835       4   11811   11826   11847   11865       4
   11808   11790   11802   11817       2   11808   11790   11802   11820       1
   11808   11790   11802   11823       1   11805   11790   11802   11817       2
   11805   11790   11802   11820       1   11805   11790   11802   11823       1
   11802   11817   11838   11859       2   11802   11817   11838   11862       2
   11799   11811   11826   11850       4   11799   11814   11832   11853       4
   11796   11772   11790   11802       2   11796   11772   11790   11805       1
   11796   11772   11790   11808       1   11793   11772   11790   11802       2
   11793   11772   11790   11805       1   11793   11772   11790   11808       1
   11790   11802   11817   11841       2   11790   11802   11817   11844       2
   11787   11763   11781   11799       4   11784   11760   11781   11799       4
   11781   11799   11811   11829       4   11781   11799   11814   11835       4
   11778   11754   11772   11790       2   11778   11754   11772   11793       1
   11778   11754   11772   11796       1   11775   11754   11772   11790       2
   11775   11754   11772   11793       1   11775   11754   11772   11796       1
   11772   11790   11802   11820       2   11772   11790   11802   11823       2
   11766   11748   11763   11781       4   11766   11748   11763   11787       4
   11763   11781   11760   11784       4   11760   11781   11763   11787       4
   11757   11742   11751   11769       4   11754   11736   11751   11769       4
   11754   11772   11790   11805       2   11754   11772   11790   11808       2
   11751   11736   11754   11775       7   11751   11736   11754   11778       7
   11745   11733   11748   11766       4   11739   11724   11736   11751       4
   11739   11724   11736   11754       4   11736   11751   11742   11757       4
   11736   11754   11772   11793       8   11736   11754   11772   11796       8
   11733   11745   11760   11784       4   11733   11748   11763   11787       4
   11730   11745   11760   11784       4   11727   11715   11724   11739       4
   11727   11742   11751   11769       4   11724   11736   11751   11769       4
   11724   11736   11754   11775       7   11724   11736   11754   11778       7
   11721   11733   11748   11766       4   11718   11727   11742   11757       4
   11715   11727   11742   11757       4   11712   11715   11724   11739       4
   12084   12069   12081   12087       1   12084   12069   12081   12090       1
   12084   12069   12081   12093       1   12078   12069   12081   12087       1
   12078   12069   12081   12090       1   12078   12069   12081   12093       1
   12075   12066   12069   12078       1   12075   12066   12069   12081       2
   12075   12066   12069   12084       1   12072   12066   12069   12078       1
   12072   12066   12069   12081       2   12072   12066   12069   12084       1
   12066   12069   12081   12087       2   12066   12069   12081   12090       2
   12066   12069   12081   12093       2   12063   12048   12066   12069       2
   12063   12048   12066   12072       1   12063   12048   12066   12075       1
   12060   12048   12066   12069       2   12060   12048   12066   12072       1
   12060   12048   12066   12075       1   12054   12030   12048   12060       1
   12054   12030   12048   12063       1   12054   12030   12048   12066       2
   12051   12030   12048   12060       1   12051   12030   12048   12063       1
   12051   12030   12048   12066       2   12048   12066   12069   12078       2
   12048   12066   12069   12084       2   12045   12024   12039   12057       4
   12042   12018   12039   12057       4   12036   12009   12030   12048       2
   12036   12009   12030   12051       1   12036   12009   12030   12054       1
   12033   12009   12030   12048       2   12033   12009   12030   12051       1
   12033   12009   12030   12054       1   12030   12048   12066   12072       2
   12030   12048   12066   12075       2   12027   12006   12024   12039       4
   12027   12006   12024   12045       4   12024   12039   12018   12042       4
   12021   12003   12018   12039       4   12021   12003   12018   12042       4
   12018   12039   12024   12045       4   12015   11994   12009   12030       2
   12015   11994   12009   12033       1   12015   11994   12009   12036       1
   12012   11994   12009   12030       2   12012   11994   12009   12033       1
   12012   11994   12009   12036       1   12009   12030   12048   12060       2
   12009   12030   12048   12063       2   12006   11991   12003   12021       4
   12006   12024   12039   12057       4   12003   11991   12006   12027       4
   12003   12018   12039   12057       4   12000   11982   11994   12009       2
   12000   11982   11994   12012       1   12000   11982   11994   12015       1
   11997   11982   11994   12009       2   11997   11982   11994   12012       1
   11997   11982   11994   12015       1   11994   12009   12030   12051       2
   11994   12009   12030   12054       2   11991   12003   12018   12042       4
   11991   12006   12024   12045       4   11988   11964   11982   11994       2
   11988   11964   11982   11997       1   11988   11964   11982   12000       1
   11985   11964   11982   11994       2   11985   11964   11982   11997       1
   11985   11964   11982   12000       1   11982   11994   12009   12033       2
   11982   11994   12009   12036       2   11979   11955   11973   11991       4
   11976   11952   11973   11991       4   11973   11991   12003   12021       4
   11973   11991   12006   12027       4   11970   11946   11964   11982       2
   11970   11946   11964   11985       1   11970   11946   11964   11988       1
   11967   11946   11964   11982       2   11967   11946   11964   11985       1
   11967   11946   11964   11988       1   11964   11982   11994   12012       2
   11964   11982   11994   12015       2   11958   11940   11955   11973       4
   11958   11940   11955   11979       4   11955   11973   11952   11976       4
   11952   11973   11955   11979       4   11949   11934   11943   11961       4
   11946   11928   11943   11961       4   11946   11964   11982   11997       2
   11946   11964   11982   12000       2   11943   11928   11946   11967       7
   11943   11928   11946   11970       7   11937   11925   11940   11958       4
   11931   11916   11928   11943       4   11931   11916   11928   11946       4
   11928   11943   11934   11949       4   11928   11946   11964   11985       8
   11928   11946   11964   11988       8   11925   11937   11952   11976       4
   11925   11940   11955   11979       4   11922   11937   11952   11976       4
   11919   11907   11916   11931       4   11919   11934   11943   11961       4
   11916   11928   11943   11961       4   11916   11928   11946   11967       7
   11916   11928   11946   11970       7   11913   11925   11940   11958       4
   11910   11919   11934   11949       4   11907   11919   11934   11949       4
   11904   11907   11916   11931       4   12276   12261   12273   12279       1
   12276   12261   12273   12282       1   12276   12261   12273   12285       1
   12270   12261   12273   12279       1   12270   12261   12273   12282       1
   12270   12261   12273   12285       1   12267   12258   12261   12270       1
   12267   12258   12261   12273       2   12267   12258   12261   12276       1
   12264   12258   12261   12270       1   12264   12258   12261   12273       2
   12264   12258   12261   12276       1   12258   12261   12273   12279       2
   12258   12261   12273   12282       2   12258   12261   12273   12285       2
   12255   12240   12258   12261       2   12255   12240   12258   12264       1
   12255   12240   12258   12267       1   12252   12240   12258   12261       2
   12252   12240   12258   12264       1   12252   12240   12258   12267       1
   12246   12222   12240   12252       1   12246   12222   12240   12255       1
   12246   12222   12240   12258       2   12243   12222   12240   12252       1
   12243   12222   12240   12255       1   12243   12222   12240   12258       2
   12240   12258   12261   12270       2   12240   12258   12261   12276       2
   12237   12216   12231   12249       4   12234   12210   12231   12249       4
   12228   12201   12222   12240       2   12228   12201   12222   12243       1
   12228   12201   12222   12246       1   12225   12201   12222   12240       2
   12225   12201   12222   12243       1   12225   12201   12222   12246       1
   12222   12240   12258   12264       2   12222   12240   12258   12267       2
   12219   12198   12216   12231       4   12219   12198   12216   12237       4
   12216   12231   12210   12234       4   12213   12195   12210   12231       4
   12213   12195   12210   12234       4   12210   12231   12216   12237       4
   12207   12186   12201   12222       2   12207   12186   12201   12225       1
   12207   12186   12201   12228       1   12204   12186   12201   12222       2
   12204   12186   12201   12225       1   12204   12186   12201   12228       1
   12201   12222   12240   12252       2   12201   12222   12240   12255       2
   12198   12183   12195   12213       4   12198   12216   12231   12249       4
   12195   12183   12198   12219       4   12195   12210   12231   12249       4
   12192   12174   12186   12201       2   12192   12174   12186   12204       1
   12192   12174   12186   12207       1   12189   12174   12186   12201       2
   12189   12174   12186   12204       1   12189   12174   12186   12207       1
   12186   12201   12222   12243       2   12186   12201   12222   12246       2
   12183   12195   12210   12234       4   12183   12198   12216   12237       4
   12180   12156   12174   12186       2   12180   12156   12174   12189       1
   12180   12156   12174   12192       1   12177   12156   12174   12186       2
   12177   12156   12174   12189       1   12177   12156   12174   12192       1
   12174   12186   12201   12225       2   12174   12186   12201   12228       2
   12171   12147   12165   12183       4   12168   12144   12165   12183       4
   12165   12183   12195   12213       4   12165   12183   12198   12219       4
   12162   12138   12156   12174       2   12162   12138   12156   12177       1
   12162   12138   12156   12180       1   12159   12138   12156   12174       2
   12159   12138   12156   12177       1   12159   12138   12156   12180       1
   12156   12174   12186   12204       2   12156   12174   12186   12207       2
   12150   12132   12147   12165       4   12150   12132   12147   12171       4
   12147   12165   12144   12168       4   12144   12165   12147   12171       4
   12141   12126   12135   12153       4   12138   12120   12135   12153       4
   12138   12156   12174   12189       2   12138   12156   12174   12192       2
   12135   12120   12138   12159       7   12135   12120   12138   12162       7
   12129   12117   12132   12150       4   12123   12108   12120   12135       4
   12123   12108   12120   12138       4   12120   12135   12126   12141       4
   12120   12138   12156   12177       8   12120   12138   12156   12180       8
   12117   12129   12144   12168       4   12117   12132   12147   12171       4
   12114   12129   12144   12168       4   12111   12099   12108   12123       4
   12111   12126   12135   12153       4   12108   12120   12135   12153       4
   12108   12120   12138   12159       7   12108   12120   12138   12162       7
   12105   12117   12132   12150       4   12102   12111   12126   12141       4
   12099   12111   12126   12141       4   12096   12099   12108   12123       4
   12468   12453   12465   12471       1   12468   12453   12465   12474       1
   12468   12453   12465   12477       1   12462   12453   12465   12471       1
   12462   12453   12465   12474       1   12462   12453   12465   12477       1
   12459   12450   12453   12462       1   12459   12450   12453   12465       2
   12459   12450   12453   12468       1   12456   12450   12453   12462       1
   12456   12450   12453   12465       2   12456   12450   12453   12468       1
   12450   12453   12465   12471       2   12450   12453   12465   12474       2
   12450   12453   12465   12477       2   12447   12432   12450   12453       2
   12447   12432   12450   12456       1   12447   12432   12450   12459       1
   12444   12432   12450   12453       2   12444   12432   12450   12456       1
   12444   12432   12450   12459       1   12438   12414   12432   12444       1
   12438   12414   12432   12447       1   12438   12414   12432   12450       2
   12435   12414   12432   12444       1   12435   12414   12432   12447       1
   12435   12414   12432   12450       2   12432   12450   12453   12462       2
   12432   12450   12453   12468       2   12429   12408   12423   12441       4
   12426   12402   12423   12441       4   12420   12393   12414   12432       2
   12420   12393   12414   12435       1   12420   12393   12414   12438       1
   12417   12393   12414   12432       2   12417   12393   12414   12435       1
   12417   12393   12414   12438       1   12414   12432   12450   12456       2
   12414   12432   12450   12459       2   12411   12390   12408   12423       4
   12411   12390   12408   12429       4   12408   12423   12402   12426       4
   12405   12387   12402   12423       4   12405   12387   12402   12426       4
   12402   12423   12408   12429       4   12399   12378   12393   12414       2
   12399   12378   12393   12417       1   12399   12378   12393   12420       1
   12396   12378   12393   12414       2   12396   12378   12393   12417       1
   12396   12378   12393   12420       1   12393   12414   12432   12444       2
   12393   12414   12432   12447       2   12390   12375   12387   12405       4
   12390   12408   12423   12441       4   12387   12375   12390   12411       4
   12387   12402   12423   12441       4   12384   12366   12378   12393       2
   12384   12366   12378   12396       1   12384   12366   12378   12399       1
   12381   12366   12378   12393       2   12381   12366   12378   12396       1
   12381   12366   12378   12399       1   12378   12393   12414   12435       2
   12378   12393   12414   12438       2   12375   12387   12402   12426       4
   12375   12390   12408   12429       4   12372   12348   12366   12378       2
   12372   12348   12366   12381       1   12372   12348   12366   12384       1
   12369   12348   12366   12378       2   12369   12348   12366   12381       1
   12369   12348   12366   12384       1   12366   12378   12393   12417       2
   12366   12378   12393   12420       2   12363   12339   12357   12375       4
   12360   12336   12357   12375       4   12357   12375   12387   12405       4
   12357   12375   12390   12411       4   12354   12330   12348   12366       2
   12354   12330   12348   12369       1   12354   12330   12348   12372       1
   12351   12330   12348   12366       2   12351   12330   12348   12369       1
   12351   12330   12348   12372       1   12348   12366   12378   12396       2
   12348   12366   12378   12399       2   12342   12324   12339   12357       4
   12342   12324   12339   12363       4   12339   12357   12336   12360       4
   12336   12357   12339   12363       4   12333   12318   12327   12345       4
   12330   12312   12327   12345       4   12330   12348   12366   12381       2
   12330   12348   12366   12384       2   12327   12312   12330   12351       7
   12327   12312   12330   12354       7   12321   12309   12324   12342       4
   12315   12300   12312   12327       4   12315   12300   12312   12330       4
   12312   12327   12318   12333       4   12312   12330   12348   12369       8
   12312   12330   12348   12372       8   12309   12321   12336   12360       4
   12309   12324   12339   12363       4   12306   12321   12336   12360       4
   12303   12291   12300   12315       4   12303   12318   12327   12345       4
   12300   12312   12327   12345       4   12300   12312   12330   12351       7
   12300   12312   12330   12354       7   12297   12309   12324   12342       4
   12294   12303   12318   12333       4   12291   12303   12318   12333       4
   12288   12291   12300   12315       4   12660   12645   12657   12663       1
   12660   12645   12657   12666       1   12660   12645   12657   12669       1
   12654   12645   12657   12663       1   12654   12645   12657   12666       1
   12654   12645   12657   12669       1   12651   12642   12645   12654       1
   12651   12642   12645   12657       2   12651   12642   12645   12660       1
   12648   12642   12645   12654       1   12648   12642   12645   12657       2
   12648   12642   12645   12660       1   12642   12645   12657   12663       2
   12642   12645   12657   12666       2   12642   12645   12657   12669       2
   12639   12624   12642   12645       2   12639   12624   12642   12648       1
   12639   12624   12642   12651       1   12636   12624   12642   12645       2
   12636   12624   12642   12648       1   12636   12624   12642   12651       1
   12630   12606   12624   12636       1   12630   12606   12624   12639       1
   12630   12606   12624   12642       2   12627   12606   12624   12636       1
   12627   12606   12624   12639       1   12627   12606   12624   12642       2
   12624   12642   12645   12654       2   12624   12642   12645   12660       2
   12621   12600   12615   12633       4   12618   12594   12615   12633       4
   12612   12585   12606   12624       2   12612   12585   12606   12627       1
   12612   12585   12606   12630       1   12609   12585   12606   12624       2
   12609   12585   12606   12627       1   12609   12585   12606   12630       1
   12606   12624   12642   12648       2   12606   12624   12642   12651       2
   12603   12582   12600   12615       4   12603   12582   12600   12621       4
   12600   12615   12594   12618       4   12597   12579   12594   12615       4
   12597   12579   12594   12618       4   12594   12615   12600   12621       4
   12591   12570   12585   12606       2   12591   12570   12585   12609       1
   12591   12570   12585   12612       1   12588   12570   12585   12606       2
   12588   12570   12585   12609       1   12588   12570   12585   12612       1
   12585   12606   12624   12636       2   12585   12606   12624   12639       2
   12582   12567   12579   12597       4   12582   12600   12615   12633       4
   12579   12567   12582   12603       4   12579   12594   12615   12633       4
   12576   12558   12570   12585       2   12576   12558   12570   12588       1
   12576   12558   12570   12591       1   12573   12558   12570   12585       2
   12573   12558   12570   12588       1   12573   12558   12570   12591       1
   12570   12585   12606   12627       2   12570   12585   12606   12630       2
   12567   12579   12594   12618       4   12567   12582   12600   12621       4
   12564   12540   12558   12570       2   12564   12540   12558   12573       1
   12564   12540   12558   12576       1   12561   12540   12558   12570       2
   12561   12540   12558   12573       1   12561   12540   12558   12576       1
   12558   12570   12585   12609       2   12558   12570   12585   12612       2
   12555   12531   12549   12567       4   12552   12528   12549   12567       4
   12549   12567   12579   12597       4   12549   12567   12582   12603       4
   12546   12522   12540   12558       2   12546   12522   12540   12561       1
   12546   12522   12540   12564       1   12543   12522   12540   12558       2
   12543   12522   12540   12561       1   12543   12522   12540   12564       1
   12540   12558   12570   12588       2   12540   12558   12570   12591       2
   12534   12516   12531   12549       4   12534   12516   12531   12555       4
   12531   12549   12528   12552       4   12528   12549   12531   12555       4
   12525   12510   12519   12537       4   12522   12504   12519   12537       4
   12522   12540   12558   12573       2   12522   12540   12558   12576       2
   12519   12504   12522   12543       7   12519   12504   12522   12546       7
   12513   12501   12516   12534       4   12507   12492   12504   12519       4
   12507   12492   12504   12522       4   12504   12519   12510   12525       4
   12504   12522   12540   12561       8   12504   12522   12540   12564       8
   12501   12513   12528   12552       4   12501   12516   12531   12555       4
   12498   12513   12528   12552       4   12495   12483   12492   12507       4
   12495   12510   12519   12537       4   12492   12504   12519   12537       4
   12492   12504   12522   12543       7   12492   12504   12522   12546       7
   12489   12501   12516   12534       4   12486   12495   12510   12525       4
   12483   12495   12510   12525       4   12480   12483   12492   12507       4
   12852   12837   12849   12855       1   12852   12837   12849   12858       1
   12852   12837   12849   12861       1   12846   12837   12849   12855       1
   12846   12837   12849   12858       1   12846   12837   12849   12861       1
   12843   12834   12837   12846       1   12843   12834   12837   12849       2
   12843   12834   12837   12852       1   12840   12834   12837   12846       1
   12840   12834   12837   12849       2   12840   12834   12837   12852       1
   12834   12837   12849   12855       2   12834   12837   12849   12858       2
   12834   12837   12849   12861       2   12831   12816   12834   12837       2
   12831   12816   12834   12840       1   12831   12816   12834   12843       1
   12828   12816   12834   12837       2   12828   12816   12834   12840       1
   12828   12816   12834   12843       1   12822   12798   12816   12828       1
   12822   12798   12816   12831       1   12822   12798   12816   12834       2
   12819   12798   12816   12828       1   12819   12798   12816   12831       1
   12819   12798   12816   12834       2   12816   12834   12837   12846       2
   12816   12834   12837   12852       2   12813   12792   12807   12825       4
   12810   12786   12807   12825       4   12804   12777   12798   12816       2
   12804   12777   12798   12819       1   12804   12777   12798   12822       1
   12801   12777   12798   12816       2   12801   12777   12798   12819       1
   12801   12777   12798   12822       1   12798   12816   12834   12840       2
   12798   12816   12834   12843       2   12795   12774   12792   12807       4
   12795   12774   12792   12813       4   12792   12807   12786   12810       4
   12789   12771   12786   12807       4   12789   12771   12786   12810       4
   12786   12807   12792   12813       4   12783   12762   12777   12798       2
   12783   12762   12777   12801       1   12783   12762   12777   12804       1
   12780   12762   12777   12798       2   12780   12762   12777   12801       1
   12780   12762   12777   12804       1   12777   12798   12816   12828       2
   12777   12798   12816   12831       2   12774   12759   12771   12789       4
   12774   12792   12807   12825       4   12771   12759   12774   12795       4
   12771   12786   12807   12825       4   12768   12750   12762   12777       2
   12768   12750   12762   12780       1   12768   12750   12762   12783       1
   12765   12750   12762   12777       2   12765   12750   12762   12780       1
   12765   12750   12762   12783       1   12762   12777   12798   12819       2
   12762   12777   12798   12822       2   12759   12771   12786   12810       4
   12759   12774   12792   12813       4   12756   12732   12750   12762       2
   12756   12732   12750   12765       1   12756   12732   12750   12768       1
   12753   12732   12750   12762       2   12753   12732   12750   12765       1
   12753   12732   12750   12768       1   12750   12762   12777   12801       2
   12750   12762   12777   12804       2   12747   12723   12741   12759       4
   12744   12720   12741   12759       4   12741   12759   12771   12789       4
   12741   12759   12774   12795       4   12738   12714   12732   12750       2
   12738   12714   12732   12753       1   12738   12714   12732   12756       1
   12735   12714   12732   12750       2   12735   12714   12732   12753       1
   12735   12714   12732   12756       1   12732   12750   12762   12780       2
   12732   12750   12762   12783       2   12726   12708   12723   12741       4
   12726   12708   12723   12747       4   12723   12741   12720   12744       4
   12720   12741   12723   12747       4   12717   12702   12711   12729       4
   12714   12696   12711   12729       4   12714   12732   12750   12765       2
   12714   12732   12750   12768       2   12711   12696   12714   12735       7
   12711   12696   12714   12738       7   12705   12693   12708   12726       4
   12699   12684   12696   12711       4   12699   12684   12696   12714       4
   12696   12711   12702   12717       4   12696   12714   12732   12753       8
   12696   12714   12732   12756       8   12693   12705   12720   12744       4
   12693   12708   12723   12747       4   12690   12705   12720   12744       4
   12687   12675   12684   12699       4   12687   12702   12711   12729       4
   12684   12696   12711   12729       4   12684   12696   12714   12735       7
   12684   12696   12714   12738       7   12681   12693   12708   12726       4
   12678   12687   12702   12717       4   12675   12687   12702   12717       4
   12672   12675   12684   12699       4   13044   13029   13041   13047       1
   13044   13029   13041   13050       1   13044   13029   13041   13053       1
   13038   13029   13041   13047       1   13038   13029   13041   13050       1
   13038   13029   13041   13053       1   13035   13026   13029   13038       1
   13035   13026   13029   13041       2   13035   13026   13029   13044       1
   13032   13026   13029   13038       1   13032   13026   13029   13041       2
   13032   13026   13029   13044       1   13026   13029   13041   13047       2
   13026   13029   13041   13050       2   13026   13029   13041   13053       2
   13023   13008   13026   13029       2   13023   13008   13026   13032       1
   13023   13008   13026   13035       1   13020   13008   13026   13029       2
   13020   13008   13026   13032       1   13020   13008   13026   13035       1
   13014   12990   13008   13020       1   13014   12990   13008   13023       1
   13014   12990   13008   13026       2   13011   12990   13008   13020       1
   13011   12990   13008   13023       1   13011   12990   13008   13026       2
   13008   13026   13029   13038       2   13008   13026   13029   13044       2
   13005   12984   12999   13017       4   13002   12978   12999   13017       4
   12996   12969   12990   13008       2   12996   12969   12990   13011       1
   12996   12969   12990   13014       1   12993   12969   12990   13008       2
   12993   12969   12990   13011       1   12993   12969   12990   13014       1
   12990   13008   13026   13032       2   12990   13008   13026   13035       2
   12987   12966   12984   12999       4   12987   12966   12984   13005       4
   12984   12999   12978   13002       4   12981   12963   12978   12999       4
   12981   12963   12978   13002       4   12978   12999   12984   13005       4
   12975   12954   12969   12990       2   12975   12954   12969   12993       1
   12975   12954   12969   12996       1   12972   12954   12969   12990       2
   12972   12954   12969   12993       1   12972   12954   12969   12996       1
   12969   12990   13008   13020       2   12969   12990   13008   13023       2
   12966   12951   12963   12981       4   12966   12984   12999   13017       4
   12963   12951   12966   12987       4   12963   12978   12999   13017       4
   12960   12942   12954   12969       2   12960   12942   12954   12972       1
   12960   12942   12954   12975       1   12957   12942   12954   12969       2
   12957   12942   12954   12972       1   12957   12942   12954   12975       1
   12954   12969   12990   13011       2   12954   12969   12990   13014       2
   12951   12963   12978   13002       4   12951   12966   12984   13005       4
   12948   12924   12942   12954       2   12948   12924   12942   12957       1
   12948   12924   12942   12960       1   12945   12924   12942   12954       2
   12945   12924   12942   12957       1   12945   12924   12942   12960       1
   12942   12954   12969   12993       2   12942   12954   12969   12996       2
   12939   12915   12933   12951       4   12936   12912   12933   12951       4
   12933   12951   12963   12981       4   12933   12951   12966   12987       4
   12930   12906   12924   12942       2   12930   12906   12924   12945       1
   12930   12906   12924   12948       1   12927   12906   12924   12942       2
   12927   12906   12924   12945       1   12927   12906   12924   12948       1
   12924   12942   12954   12972       2   12924   12942   12954   12975       2
   12918   12900   12915   12933       4   12918   12900   12915   12939       4
   12915   12933   12912   12936       4   12912   12933   12915   12939       4
   12909   12894   12903   12921       4   12906   12888   12903   12921       4
   12906   12924   12942   12957       2   12906   12924   12942   12960       2
   12903   12888   12906   12927       7   12903   12888   12906   12930       7
   12897   12885   12900   12918       4   12891   12876   12888   12903       4
   12891   12876   12888   12906       4   12888   12903   12894   12909       4
   12888   12906   12924   12945       8   12888   12906   12924   12948       8
   12885   12897   12912   12936       4   12885   12900   12915   12939       4
   12882   12897   12912   12936       4   12879   12867   12876   12891       4
   12879   12894   12903   12921       4   12876   12888   12903   12921       4
   12876   12888   12906   12927       7   12876   12888   12906   12930       7
   12873   12885   12900   12918       4   12870   12879   12894   12909       4
   12867   12879   12894   12909       4   12864   12867   12876   12891       4
   13236   13221   13233   13239       1   13236   13221   13233   13242       1
   13236   13221   13233   13245       1   13230   13221   13233   13239       1
   13230   13221   13233   13242       1   13230   13221   13233   13245       1
   13227   13218   13221   13230       1   13227   13218   13221   13233       2
   13227   13218   13221   13236       1   13224   13218   13221   13230       1
   13224   13218   13221   13233       2   13224   13218   13221   13236       1
   13218   13221   13233   13239       2   13218   13221   13233   13242       2
   13218   13221   13233   13245       2   13215   13200   13218   13221       2
   13215   13200   13218   13224       1   13215   13200   13218   13227       1
   13212   13200   13218   13221       2   13212   13200   13218   13224       1
   13212   13200   13218   13227       1   13206   13182   13200   13212       1
   13206   13182   13200   13215       1   13206   13182   13200   13218       2
   13203   13182   13200   13212       1   13203   13182   13200   13215       1
   13203   13182   13200   13218       2   13200   13218   13221   13230       2
   13200   13218   13221   13236       2   13197   13176   13191   13209       4
   13194   13170   13191   13209       4   13188   13161   13182   13200       2
   13188   13161   13182   13203       1   13188   13161   13182   13206       1
   13185   13161   13182   13200       2   13185   13161   13182   13203       1
   13185   13161   13182   13206       1   13182   13200   13218   13224       2
   13182   13200   13218   13227       2   13179   13158   13176   13191       4
   13179   13158   13176   13197       4   13176   13191   13170   13194       4
   13173   13155   13170   13191       4   13173   13155   13170   13194       4
   13170   13191   13176   13197       4   13167   13146   13161   13182       2
   13167   13146   13161   13185       1   13167   13146   13161   13188       1
   13164   13146   13161   13182       2   13164   13146   13161   13185       1
   13164   13146   13161   13188       1   13161   13182   13200   13212       2
   13161   13182   13200   13215       2   13158   13143   13155   13173       4
   13158   13176   13191   13209       4   13155   13143   13158   13179       4
   13155   13170   13191   13209       4   13152   13134   13146   13161       2
   13152   13134   13146   13164       1   13152   13134   13146   13167       1
   13149   13134   13146   13161       2   13149   13134   13146   13164       1
   13149   13134   13146   13167       1   13146   13161   13182   13203       2
   13146   13161   13182   13206       2   13143   13155   13170   13194       4
   13143   13158   13176   13197       4   13140   13116   13134   13146       2
   13140   13116   13134   13149       1   13140   13116   13134   13152       1
   13137   13116   13134   13146       2   13137   13116   13134   13149       1
   13137   13116   13134   13152       1   13134   13146   13161   13185       2
   13134   13146   13161   13188       2   13131   13107   13125   13143       4
   13128   13104   13125   13143       4   13125   13143   13155   13173       4
   13125   13143   13158   13179       4   13122   13098   13116   13134       2
   13122   13098   13116   13137       1   13122   13098   13116   13140       1
   13119   13098   13116   13134       2   13119   13098   13116   13137       1
   13119   13098   13116   13140       1   13116   13134   13146   13164       2
   13116   13134   13146   13167       2   13110   13092   13107   13125       4
   13110   13092   13107   13131       4   13107   13125   13104   13128       4
   13104   13125   13107   13131       4   13101   13086   13095   13113       4
   13098   13080   13095   13113       4   13098   13116   13134   13149       2
   13098   13116   13134   13152       2   13095   13080   13098   13119       7
   13095   13080   13098   13122       7   13089   13077   13092   13110       4
   13083   13068   13080   13095       4   13083   13068   13080   13098       4
   13080   13095   13086   13101       4   13080   13098   13116   13137       8
   13080   13098   13116   13140       8   13077   13089   13104   13128       4
   13077   13092   13107   13131       4   13074   13089   13104   13128       4
   13071   13059   13068   13083       4   13071   13086   13095   13113       4
   13068   13080   13095   13113       4   13068   13080   13098   13119       7
   13068   13080   13098   13122       7   13065   13077   13092   13110       4
   13062   13071   13086   13101       4   13059   13071   13086   13101       4
   13056   13059   13068   13083       4   13428   13413   13425   13431       1
   13428   13413   13425   13434       1   13428   13413   13425   13437       1
   13422   13413   13425   13431       1   13422   13413   13425   13434       1
   13422   13413   13425   13437       1   13419   13410   13413   13422       1
   13419   13410   13413   13425       2   13419   13410   13413   13428       1
   13416   13410   13413   13422       1   13416   13410   13413   13425       2
   13416   13410   13413   13428       1   13410   13413   13425   13431       2
   13410   13413   13425   13434       2   13410   13413   13425   13437       2
   13407   13392   13410   13413       2   13407   13392   13410   13416       1
   13407   13392   13410   13419       1   13404   13392   13410   13413       2
   13404   13392   13410   13416       1   13404   13392   13410   13419       1
   13398   13374   13392   13404       1   13398   13374   13392   13407       1
   13398   13374   13392   13410       2   13395   13374   13392   13404       1
   13395   13374   13392   13407       1   13395   13374   13392   13410       2
   13392   13410   13413   13422       2   13392   13410   13413   13428       2
   13389   13368   13383   13401       4   13386   13362   13383   13401       4
   13380   13353   13374   13392       2   13380   13353   13374   13395       1
   13380   13353   13374   13398       1   13377   13353   13374   13392       2
   13377   13353   13374   13395       1   13377   13353   13374   13398       1
   13374   13392   13410   13416       2   13374   13392   13410   13419       2
   13371   13350   13368   13383       4   13371   13350   13368   13389       4
   13368   13383   13362   13386       4   13365   13347   13362   13383       4
   13365   13347   13362   13386       4   13362   13383   13368   13389       4
   13359   13338   13353   13374       2   13359   13338   13353   13377       1
   13359   13338   13353   13380       1   13356   13338   13353   13374       2
   13356   13338   13353   13377       1   13356   13338   13353   13380       1
   13353   13374   13392   13404       2   13353   13374   13392   13407       2
   13350   13335   13347   13365       4   13350   13368   13383   13401       4
   13347   13335   13350   13371       4   13347   13362   13383   13401       4
   13344   13326   13338   13353       2   13344   13326   13338   13356       1
   13344   13326   13338   13359       1   13341   13326   13338   13353       2
   13341   13326   13338   13356       1   13341   13326   13338   13359       1
   13338   13353   13374   13395       2   13338   13353   13374   13398       2
   13335   13347   13362   13386       4   13335   13350   13368   13389       4
   13332   13308   13326   13338       2   13332   13308   13326   13341       1
   13332   13308   13326   13344       1   13329   13308   13326   13338       2
   13329   13308   13326   13341       1   13329   13308   13326   13344       1
   13326   13338   13353   13377       2   13326   13338   13353   13380       2
   13323   13299   13317   13335       4   13320   13296   13317   13335       4
   13317   13335   13347   13365       4   13317   13335   13350   13371       4
   13314   13290   13308   13326       2   13314   13290   13308   13329       1
   13314   13290   13308   13332       1   13311   13290   13308   13326       2
   13311   13290   13308   13329       1   13311   13290   13308   13332       1
   13308   13326   13338   13356       2   13308   13326   13338   13359       2
   13302   13284   13299   13317       4   13302   13284   13299   13323       4
   13299   13317   13296   13320       4   13296   13317   13299   13323       4
   13293   13278   13287   13305       4   13290   13272   13287   13305       4
   13290   13308   13326   13341       2   13290   13308   13326   13344       2
   13287   13272   13290   13311       7   13287   13272   13290   13314       7
   13281   13269   13284   13302       4   13275   13260   13272   13287       4
   13275   13260   13272   13290       4   13272   13287   13278   13293       4
   13272   13290   13308   13329       8   13272   13290   13308   13332       8
   13269   13281   13296   13320       4   13269   13284   13299   13323       4
   13266   13281   13296   13320       4   13263   13251   13260   13275       4
   13263   13278   13287   13305       4   13260   13272   13287   13305       4
   13260   13272   13290   13311       7   13260   13272   13290   13314       7
   13257   13269   13284   13302       4   13254   13263   13278   13293       4
   13251   13263   13278   13293       4   13248   13251   13260   13275       4
   13620   13605   13617   13623       1   13620   13605   13617   13626       1
   13620   13605   13617   13629       1   13614   13605   13617   13623       1
   13614   13605   13617   13626       1   13614   13605   13617   13629       1
   13611   13602   13605   13614       1   13611   13602   13605   13617       2
   13611   13602   13605   13620       1   13608   13602   13605   13614       1
   13608   13602   13605   13617       2   13608   13602   13605   13620       1
   13602   13605   13617   13623       2   13602   13605   13617   13626       2
   13602   13605   13617   13629       2   13599   13584   13602   13605       2
   13599   13584   13602   13608       1   13599   13584   13602   13611       1
   13596   13584   13602   13605       2   13596   13584   13602   13608       1
   13596   13584   13602   13611       1   13590   13566   13584   13596       1
   13590   13566   13584   13599       1   13590   13566   13584   13602       2
   13587   13566   13584   13596       1   13587   13566   13584   13599       1
   13587   13566   13584   13602       2   13584   13602   13605   13614       2
   13584   13602   13605   13620       2   13581   13560   13575   13593       4
   13578   13554   13575   13593       4   13572   13545   13566   13584       2
   13572   13545   13566   13587       1   13572   13545   13566   13590       1
   13569   13545   13566   13584       2   13569   13545   13566   13587       1
   13569   13545   13566   13590       1   13566   13584   13602   13608       2
   13566   13584   13602   13611       2   13563   13542   13560   13575       4
   13563   13542   13560   13581       4   13560   13575   13554   13578       4
   13557   13539   13554   13575       4   13557   13539   13554   13578       4
   13554   13575   13560   13581       4   13551   13530   13545   13566       2
   13551   13530   13545   13569       1   13551   13530   13545   13572       1
   13548   13530   13545   13566       2   13548   13530   13545   13569       1
   13548   13530   13545   13572       1   13545   13566   13584   13596       2
   13545   13566   13584   13599       2   13542   13527   13539   13557       4
   13542   13560   13575   13593       4   13539   13527   13542   13563       4
   13539   13554   13575   13593       4   13536   13518   13530   13545       2
   13536   13518   13530   13548       1   13536   13518   13530   13551       1
   13533   13518   13530   13545       2   13533   13518   13530   13548       1
   13533   13518   13530   13551       1   13530   13545   13566   13587       2
   13530   13545   13566   13590       2   13527   13539   13554   13578       4
   13527   13542   13560   13581       4   13524   13500   13518   13530       2
   13524   13500   13518   13533       1   13524   13500   13518   13536       1
   13521   13500   13518   13530       2   13521   13500   13518   13533       1
   13521   13500   13518   13536       1   13518   13530   13545   13569       2
   13518   13530   13545   13572       2   13515   13491   13509   13527       4
   13512   13488   13509   13527       4   13509   13527   13539   13557       4
   13509   13527   13542   13563       4   13506   13482   13500   13518       2
   13506   13482   13500   13521       1   13506   13482   13500   13524       1
   13503   13482   13500   13518       2   13503   13482   13500   13521       1
   13503   13482   13500   13524       1   13500   13518   13530   13548       2
   13500   13518   13530   13551       2   13494   13476   13491   13509       4
   13494   13476   13491   13515       4   13491   13509   13488   13512       4
   13488   13509   13491   13515       4   13485   13470   13479   13497       4
   13482   13464   13479   13497       4   13482   13500   13518   13533       2
   13482   13500   13518   13536       2   13479   13464   13482   13503       7
   13479   13464   13482   13506       7   13473   13461   13476   13494       4
   13467   13452   13464   13479       4   13467   13452   13464   13482       4
   13464   13479   13470   13485       4   13464   13482   13500   13521       8
   13464   13482   13500   13524       8   13461   13473   13488   13512       4
   13461   13476   13491   13515       4   13458   13473   13488   13512       4
   13455   13443   13452   13467       4   13455   13470   13479   13497       4
   13452   13464   13479   13497       4   13452   13464   13482   13503       7
   13452   13464   13482   13506       7   13449   13461   13476   13494       4
   13446   13455   13470   13485       4   13443   13455   13470   13485       4
   13440   13443   13452   13467       4   13812   13797   13809   13815       1
   13812   13797   13809   13818       1   13812   13797   13809   13821       1
   13806   13797   13809   13815       1   13806   13797   13809   13818       1
   13806   13797   13809   13821       1   13803   13794   13797   13806       1
   13803   13794   13797   13809       2   13803   13794   13797   13812       1
   13800   13794   13797   13806       1   13800   13794   13797   13809       2
   13800   13794   13797   13812       1   13794   13797   13809   13815       2
   13794   13797   13809   13818       2   13794   13797   13809   13821       2
   13791   13776   13794   13797       2   13791   13776   13794   13800       1
   13791   13776   13794   13803       1   13788   13776   13794   13797       2
   13788   13776   13794   13800       1   13788   13776   13794   13803       1
   13782   13758   13776   13788       1   13782   13758   13776   13791       1
   13782   13758   13776   13794       2   13779   13758   13776   13788       1
   13779   13758   13776   13791       1   13779   13758   13776   13794       2
   13776   13794   13797   13806       2   13776   13794   13797   13812       2
   13773   13752   13767   13785       4   13770   13746   13767   13785       4
   13764   13737   13758   13776       2   13764   13737   13758   13779       1
   13764   13737   13758   13782       1   13761   13737   13758   13776       2
   13761   13737   13758   13779       1   13761   13737   13758   13782       1
   13758   13776   13794   13800       2   13758   13776   13794   13803       2
   13755   13734   13752   13767       4   13755   13734   13752   13773       4
   13752   13767   13746   13770       4   13749   13731   13746   13767       4
   13749   13731   13746   13770       4   13746   13767   13752   13773       4
   13743   13722   13737   13758       2   13743   13722   13737   13761       1
   13743   13722   13737   13764       1   13740   13722   13737   13758       2
   13740   13722   13737   13761       1   13740   13722   13737   13764       1
   13737   13758   13776   13788       2   13737   13758   13776   13791       2
   13734   13719   13731   13749       4   13734   13752   13767   13785       4
   13731   13719   13734   13755       4   13731   13746   13767   13785       4
   13728   13710   13722   13737       2   13728   13710   13722   13740       1
   13728   13710   13722   13743       1   13725   13710   13722   13737       2
   13725   13710   13722   13740       1   13725   13710   13722   13743       1
   13722   13737   13758   13779       2   13722   13737   13758   13782       2
   13719   13731   13746   13770       4   13719   13734   13752   13773       4
   13716   13692   13710   13722       2   13716   13692   13710   13725       1
   13716   13692   13710   13728       1   13713   13692   13710   13722       2
   13713   13692   13710   13725       1   13713   13692   13710   13728       1
   13710   13722   13737   13761       2   13710   13722   13737   13764       2
   13707   13683   13701   13719       4   13704   13680   13701   13719       4
   13701   13719   13731   13749       4   13701   13719   13734   13755       4
   13698   13674   13692   13710       2   13698   13674   13692   13713       1
   13698   13674   13692   13716       1   13695   13674   13692   13710       2
   13695   13674   13692   13713       1   13695   13674   13692   13716       1
   13692   13710   13722   13740       2   13692   13710   13722   13743       2
   13686   13668   13683   13701       4   13686   13668   13683   13707       4
   13683   13701   13680   13704       4   13680   13701   13683   13707       4
   13677   13662   13671   13689       4   13674   13656   13671   13689       4
   13674   13692   13710   13725       2   13674   13692   13710   13728       2
   13671   13656   13674   13695       7   13671   13656   13674   13698       7
   13665   13653   13668   13686       4   13659   13644   13656   13671       4
   13659   13644   13656   13674       4   13656   13671   13662   13677       4
   13656   13674   13692   13713       8   13656   13674   13692   13716       8
   13653   13665   13680   13704       4   13653   13668   13683   13707       4
   13650   13665   13680   13704       4   13647   13635   13644   13659       4
   13647   13662   13671   13689       4   13644   13656   13671   13689       4
   13644   13656   13674   13695       7   13644   13656   13674   13698       7
   13641   13653   13668   13686       4   13638   13647   13662   13677       4
   13635   13647   13662   13677       4   13632   13635   13644   13659       4
   14004   13989   14001   14007       1   14004   13989   14001   14010       1
   14004   13989   14001   14013       1   13998   13989   14001   14007       1
   13998   13989   14001   14010       1   13998   13989   14001   14013       1
   13995   13986   13989   13998       1   13995   13986   13989   14001       2
   13995   13986   13989   14004       1   13992   13986   13989   13998       1
   13992   13986   13989   14001       2   13992   13986   13989   14004       1
   13986   13989   14001   14007       2   13986   13989   14001   14010       2
   13986   13989   14001   14013       2   13983   13968   13986   13989       2
   13983   13968   13986   13992       1   13983   13968   13986   13995       1
   13980   13968   13986   13989       2   13980   13968   13986   13992       1
   13980   13968   13986   13995       1   13974   13950   13968   13980       1
   13974   13950   13968   13983       1   13974   13950   13968   13986       2
   13971   13950   13968   13980       1   13971   13950   13968   13983       1
   13971   13950   13968   13986       2   13968   13986   13989   13998       2
   13968   13986   13989   14004       2   13965   13944   13959   13977       4
   13962   13938   13959   13977       4   13956   13929   13950   13968       2
   13956   13929   13950   13971       1   13956   13929   13950   13974       1
   13953   13929   13950   13968       2   13953   13929   13950   13971       1
   13953   13929   13950   13974       1   13950   13968   13986   13992       2
   13950   13968   13986   13995       2   13947   13926   13944   13959       4
   13947   13926   13944   13965       4   13944   13959   13938   13962       4
   13941   13923   13938   13959       4   13941   13923   13938   13962       4
   13938   13959   13944   13965       4   13935   13914   13929   13950       2
   13935   13914   13929   13953       1   13935   13914   13929   13956       1
   13932   13914   13929   13950       2   13932   13914   13929   13953       1
   13932   13914   13929   13956       1   13929   13950   13968   13980       2
   13929   13950   13968   13983       2   13926   13911   13923   13941       4
   13926   13944   13959   13977       4   13923   13911   13926   13947       4
   13923   13938   13959   13977       4   13920   13902   13914   13929       2
   13920   13902   13914   13932       1   13920   13902   13914   13935       1
   13917   13902   13914   13929       2   13917   13902   13914   13932       1
   13917   13902   13914   13935       1   13914   13929   13950   13971       2
   13914   13929   13950   13974       2   13911   13923   13938   13962       4
   13911   13926   13944   13965       4   13908   13884   13902   13914       2
   13908   13884   13902   13917       1   13908   13884   13902   13920       1
   13905   13884   13902   13914       2   13905   13884   13902   13917       1
   13905   13884   13902   13920       1   13902   13914   13929   13953       2
   13902   13914   13929   13956       2   13899   13875   13893   13911       4
   13896   13872   13893   13911       4   13893   13911   13923   13941       4
   13893   13911   13926   13947       4   13890   13866   13884   13902       2
   13890   13866   13884   13905       1   13890   13866   13884   13908       1
   13887   13866   13884   13902       2   13887   13866   13884   13905       1
   13887   13866   13884   13908       1   13884   13902   13914   13932       2
   13884   13902   13914   13935       2   13878   13860   13875   13893       4
   13878   13860   13875   13899       4   13875   13893   13872   13896       4
   13872   13893   13875   13899       4   13869   13854   13863   13881       4
   13866   13848   13863   13881       4   13866   13884   13902   13917       2
   13866   13884   13902   13920       2   13863   13848   13866   13887       7
   13863   13848   13866   13890       7   13857   13845   13860   13878       4
   13851   13836   13848   13863       4   13851   13836   13848   13866       4
   13848   13863   13854   13869       4   13848   13866   13884   13905       8
   13848   13866   13884   13908       8   13845   13857   13872   13896       4
   13845   13860   13875   13899       4   13842   13857   13872   13896       4
   13839   13827   13836   13851       4   13839   13854   13863   13881       4
   13836   13848   13863   13881       4   13836   13848   13866   13887       7
   13836   13848   13866   13890       7   13833   13845   13860   13878       4
   13830   13839   13854   13869       4   13827   13839   13854   13869       4
   13824   13827   13836   13851       4   14196   14181   14193   14199       1
   14196   14181   14193   14202       1   14196   14181   14193   14205       1
   14190   14181   14193   14199       1   14190   14181   14193   14202       1
   14190   14181   14193   14205       1   14187   14178   14181   14190       1
   14187   14178   14181   14193       2   14187   14178   14181   14196       1
   14184   14178   14181   14190       1   14184   14178   14181   14193       2
   14184   14178   14181   14196       1   14178   14181   14193   14199       2
   14178   14181   14193   14202       2   14178   14181   14193   14205       2
   14175   14160   14178   14181       2   14175   14160   14178   14184       1
   14175   14160   14178   14187       1   14172   14160   14178   14181       2
   14172   14160   14178   14184       1   14172   14160   14178   14187       1
   14166   14142   14160   14172       1   14166   14142   14160   14175       1
   14166   14142   14160   14178       2   14163   14142   14160   14172       1
   14163   14142   14160   14175       1   14163   14142   14160   14178       2
   14160   14178   14181   14190       2   14160   14178   14181   14196       2
   14157   14136   14151   14169       4   14154   14130   14151   14169       4
   14148   14121   14142   14160       2   14148   14121   14142   14163       1
   14148   14121   14142   14166       1   14145   14121   14142   14160       2
   14145   14121   14142   14163       1   14145   14121   14142   14166       1
   14142   14160   14178   14184       2   14142   14160   14178   14187       2
   14139   14118   14136   14151       4   14139   14118   14136   14157       4
   14136   14151   14130   14154       4   14133   14115   14130   14151       4
   14133   14115   14130   14154       4   14130   14151   14136   14157       4
   14127   14106   14121   14142       2   14127   14106   14121   14145       1
   14127   14106   14121   14148       1   14124   14106   14121   14142       2
   14124   14106   14121   14145       1   14124   14106   14121   14148       1
   14121   14142   14160   14172       2   14121   14142   14160   14175       2
   14118   14103   14115   14133       4   14118   14136   14151   14169       4
   14115   14103   14118   14139       4   14115   14130   14151   14169       4
   14112   14094   14106   14121       2   14112   14094   14106   14124       1
   14112   14094   14106   14127       1   14109   14094   14106   14121       2
   14109   14094   14106   14124       1   14109   14094   14106   14127       1
   14106   14121   14142   14163       2   14106   14121   14142   14166       2
   14103   14115   14130   14154       4   14103   14118   14136   14157       4
   14100   14076   14094   14106       2   14100   14076   14094   14109       1
   14100   14076   14094   14112       1   14097   14076   14094   14106       2
   14097   14076   14094   14109       1   14097   14076   14094   14112       1
   14094   14106   14121   14145       2   14094   14106   14121   14148       2
   14091   14067   14085   14103       4   14088   14064   14085   14103       4
   14085   14103   14115   14133       4   14085   14103   14118   14139       4
   14082   14058   14076   14094       2   14082   14058   14076   14097       1
   14082   14058   14076   14100       1   14079   14058   14076   14094       2
   14079   14058   14076   14097       1   14079   14058   14076   14100       1
   14076   14094   14106   14124       2   14076   14094   14106   14127       2
   14070   14052   14067   14085       4   14070   14052   14067   14091       4
   14067   14085   14064   14088       4   14064   14085   14067   14091       4
   14061   14046   14055   14073       4   14058   14040   14055   14073       4
   14058   14076   14094   14109       2   14058   14076   14094   14112       2
   14055   14040   14058   14079       7   14055   14040   14058   14082       7
   14049   14037   14052   14070       4   14043   14028   14040   14055       4
   14043   14028   14040   14058       4   14040   14055   14046   14061       4
   14040   14058   14076   14097       8   14040   14058   14076   14100       8
   14037   14049   14064   14088       4   14037   14052   14067   14091       4
   14034   14049   14064   14088       4   14031   14019   14028   14043       4
   14031   14046   14055   14073       4   14028   14040   14055   14073       4
   14028   14040   14058   14079       7   14028   14040   14058   14082       7
   14025   14037   14052   14070       4   14022   14031   14046   14061       4
   14019   14031   14046   14061       4   14016   14019   14028   14043       4
   14388   14373   14385   14391       1   14388   14373   14385   14394       1
   14388   14373   14385   14397       1   14382   14373   14385   14391       1
   14382   14373   14385   14394       1   14382   14373   14385   14397       1
   14379   14370   14373   14382       1   14379   14370   14373   14385       2
   14379   14370   14373   14388       1   14376   14370   14373   14382       1
   14376   14370   14373   14385       2   14376   14370   14373   14388       1
   14370   14373   14385   14391       2   14370   14373   14385   14394       2
   14370   14373   14385   14397       2   14367   14352   14370   14373       2
   14367   14352   14370   14376       1   14367   14352   14370   14379       1
   14364   14352   14370   14373       2   14364   14352   14370   14376       1
   14364   14352   14370   14379       1   14358   14334   14352   14364       1
   14358   14334   14352   14367       1   14358   14334   14352   14370       2
   14355   14334   14352   14364       1   14355   14334   14352   14367       1
   14355   14334   14352   14370       2   14352   14370   14373   14382       2
   14352   14370   14373   14388       2   14349   14328   14343   14361       4
   14346   14322   14343   14361       4   14340   14313   14334   14352       2
   14340   14313   14334   14355       1   14340   14313   14334   14358       1
   14337   14313   14334   14352       2   14337   14313   14334   14355       1
   14337   14313   14334   14358       1   14334   14352   14370   14376       2
   14334   14352   14370   14379       2   14331   14310   14328   14343       4
   14331   14310   14328   14349       4   14328   14343   14322   14346       4
   14325   14307   14322   14343       4   14325   14307   14322   14346       4
   14322   14343   14328   14349       4   14319   14298   14313   14334       2
   14319   14298   14313   14337       1   14319   14298   14313   14340       1
   14316   14298   14313   14334       2   14316   14298   14313   14337       1
   14316   14298   14313   14340       1   14313   14334   14352   14364       2
   14313   14334   14352   14367       2   14310   14295   14307   14325       4
   14310   14328   14343   14361       4   14307   14295   14310   14331       4
   14307   14322   14343   14361       4   14304   14286   14298   14313       2
   14304   14286   14298   14316       1   14304   14286   14298   14319       1
   14301   14286   14298   14313       2   14301   14286   14298   14316       1
   14301   14286   14298   14319       1   14298   14313   14334   14355       2
   14298   14313   14334   14358       2   14295   14307   14322   14346       4
   14295   14310   14328   14349       4   14292   14268   14286   14298       2
   14292   14268   14286   14301       1   14292   14268   14286   14304       1
   14289   14268   14286   14298       2   14289   14268   14286   14301       1
   14289   14268   14286   14304       1   14286   14298   14313   14337       2
   14286   14298   14313   14340       2   14283   14259   14277   14295       4
   14280   14256   14277   14295       4   14277   14295   14307   14325       4
   14277   14295   14310   14331       4   14274   14250   14268   14286       2
   14274   14250   14268   14289       1   14274   14250   14268   14292       1
   14271   14250   14268   14286       2   14271   14250   14268   14289       1
   14271   14250   14268   14292       1   14268   14286   14298   14316       2
   14268   14286   14298   14319       2   14262   14244   14259   14277       4
   14262   14244   14259   14283       4   14259   14277   14256   14280       4
   14256   14277   14259   14283       4   14253   14238   14247   14265       4
   14250   14232   14247   14265       4   14250   14268   14286   14301       2
   14250   14268   14286   14304       2   14247   14232   14250   14271       7
   14247   14232   14250   14274       7   14241   14229   14244   14262       4
   14235   14220   14232   14247       4   14235   14220   14232   14250       4
   14232   14247   14238   14253       4   14232   14250   14268   14289       8
   14232   14250   14268   14292       8   14229   14241   14256   14280       4
   14229   14244   14259   14283       4   14226   14241   14256   14280       4
   14223   14211   14220   14235       4   14223   14238   14247   14265       4
   14220   14232   14247   14265       4   14220   14232   14250   14271       7
   14220   14232   14250   14274       7   14217   14229   14244   14262       4
   14214   14223   14238   14253       4   14211   14223   14238   14253       4
   14208   14211   14220   14235       4   14580   14565   14577   14583       1
   14580   14565   14577   14586       1   14580   14565   14577   14589       1
   14574   14565   14577   14583       1   14574   14565   14577   14586       1
   14574   14565   14577   14589       1   14571   14562   14565   14574       1
   14571   14562   14565   14577       2   14571   14562   14565   14580       1
   14568   14562   14565   14574       1   14568   14562   14565   14577       2
   14568   14562   14565   14580       1   14562   14565   14577   14583       2
   14562   14565   14577   14586       2   14562   14565   14577   14589       2
   14559   14544   14562   14565       2   14559   14544   14562   14568       1
   14559   14544   14562   14571       1   14556   14544   14562   14565       2
   14556   14544   14562   14568       1   14556   14544   14562   14571       1
   14550   14526   14544   14556       1   14550   14526   14544   14559       1
   14550   14526   14544   14562       2   14547   14526   14544   14556       1
   14547   14526   14544   14559       1   14547   14526   14544   14562       2
   14544   14562   14565   14574       2   14544   14562   14565   14580       2
   14541   14520   14535   14553       4   14538   14514   14535   14553       4
   14532   14505   14526   14544       2   14532   14505   14526   14547       1
   14532   14505   14526   14550       1   14529   14505   14526   14544       2
   14529   14505   14526   14547       1   14529   14505   14526   14550       1
   14526   14544   14562   14568       2   14526   14544   14562   14571       2
   14523   14502   14520   14535       4   14523   14502   14520   14541       4
   14520   14535   14514   14538       4   14517   14499   14514   14535       4
   14517   14499   14514   14538       4   14514   14535   14520   14541       4
   14511   14490   14505   14526       2   14511   14490   14505   14529       1
   14511   14490   14505   14532       1   14508   14490   14505   14526       2
   14508   14490   14505   14529       1   14508   14490   14505   14532       1
   14505   14526   14544   14556       2   14505   14526   14544   14559       2
   14502   14487   14499   14517       4   14502   14520   14535   14553       4
   14499   14487   14502   14523       4   14499   14514   14535   14553       4
   14496   14478   14490   14505       2   14496   14478   14490   14508       1
   14496   14478   14490   14511       1   14493   14478   14490   14505       2
   14493   14478   14490   14508       1   14493   14478   14490   14511       1
   14490   14505   14526   14547       2   14490   14505   14526   14550       2
   14487   14499   14514   14538       4   14487   14502   14520   14541       4
   14484   14460   14478   14490       2   14484   14460   14478   14493       1
   14484   14460   14478   14496       1   14481   14460   14478   14490       2
   14481   14460   14478   14493       1   14481   14460   14478   14496       1
   14478   14490   14505   14529       2   14478   14490   14505   14532       2
   14475   14451   14469   14487       4   14472   14448   14469   14487       4
   14469   14487   14499   14517       4   14469   14487   14502   14523       4
   14466   14442   14460   14478       2   14466   14442   14460   14481       1
   14466   14442   14460   14484       1   14463   14442   14460   14478       2
   14463   14442   14460   14481       1   14463   14442   14460   14484       1
   14460   14478   14490   14508       2   14460   14478   14490   14511       2
   14454   14436   14451   14469       4   14454   14436   14451   14475       4
   14451   14469   14448   14472       4   14448   14469   14451   14475       4
   14445   14430   14439   14457       4   14442   14424   14439   14457       4
   14442   14460   14478   14493       2   14442   14460   14478   14496       2
   14439   14424   14442   14463       7   14439   14424   14442   14466       7
   14433   14421   14436   14454       4   14427   14412   14424   14439       4
   14427   14412   14424   14442       4   14424   14439   14430   14445       4
   14424   14442   14460   14481       8   14424   14442   14460   14484       8
   14421   14433   14448   14472       4   14421   14436   14451   14475       4
   14418   14433   14448   14472       4   14415   14403   14412   14427       4
   14415   14430   14439   14457       4   14412   14424   14439   14457       4
   14412   14424   14442   14463       7   14412   14424   14442   14466       7
   14409   14421   14436   14454       4   14406   14415   14430   14445       4
   14403   14415   14430   14445       4   14400   14403   14412   14427       4
   14772   14757   14769   14775       1   14772   14757   14769   14778       1
   14772   14757   14769   14781       1   14766   14757   14769   14775       1
   14766   14757   14769   14778       1   14766   14757   14769   14781       1
   14763   14754   14757   14766       1   14763   14754   14757   14769       2
   14763   14754   14757   14772       1   14760   14754   14757   14766       1
   14760   14754   14757   14769       2   14760   14754   14757   14772       1
   14754   14757   14769   14775       2   14754   14757   14769   14778       2
   14754   14757   14769   14781       2   14751   14736   14754   14757       2
   14751   14736   14754   14760       1   14751   14736   14754   14763       1
   14748   14736   14754   14757       2   14748   14736   14754   14760       1
   14748   14736   14754   14763       1   14742   14718   14736   14748       1
   14742   14718   14736   14751       1   14742   14718   14736   14754       2
   14739   14718   14736   14748       1   14739   14718   14736   14751       1
   14739   14718   14736   14754       2   14736   14754   14757   14766       2
   14736   14754   14757   14772       2   14733   14712   14727   14745       4
   14730   14706   14727   14745       4   14724   14697   14718   14736       2
   14724   14697   14718   14739       1   14724   14697   14718   14742       1
   14721   14697   14718   14736       2   14721   14697   14718   14739       1
   14721   14697   14718   14742       1   14718   14736   14754   14760       2
   14718   14736   14754   14763       2   14715   14694   14712   14727       4
   14715   14694   14712   14733       4   14712   14727   14706   14730       4
   14709   14691   14706   14727       4   14709   14691   14706   14730       4
   14706   14727   14712   14733       4   14703   14682   14697   14718       2
   14703   14682   14697   14721       1   14703   14682   14697   14724       1
   14700   14682   14697   14718       2   14700   14682   14697   14721       1
   14700   14682   14697   14724       1   14697   14718   14736   14748       2
   14697   14718   14736   14751       2   14694   14679   14691   14709       4
   14694   14712   14727   14745       4   14691   14679   14694   14715       4
   14691   14706   14727   14745       4   14688   14670   14682   14697       2
   14688   14670   14682   14700       1   14688   14670   14682   14703       1
   14685   14670   14682   14697       2   14685   14670   14682   14700       1
   14685   14670   14682   14703       1   14682   14697   14718   14739       2
   14682   14697   14718   14742       2   14679   14691   14706   14730       4
   14679   14694   14712   14733       4   14676   14652   14670   14682       2
   14676   14652   14670   14685       1   14676   14652   14670   14688       1
   14673   14652   14670   14682       2   14673   14652   14670   14685       1
   14673   14652   14670   14688       1   14670   14682   14697   14721       2
   14670   14682   14697   14724       2   14667   14643   14661   14679       4
   14664   14640   14661   14679       4   14661   14679   14691   14709       4
   14661   14679   14694   14715       4   14658   14634   14652   14670       2
   14658   14634   14652   14673       1   14658   14634   14652   14676       1
   14655   14634   14652   14670       2   14655   14634   14652   14673       1
   14655   14634   14652   14676       1   14652   14670   14682   14700       2
   14652   14670   14682   14703       2   14646   14628   14643   14661       4
   14646   14628   14643   14667       4   14643   14661   14640   14664       4
   14640   14661   14643   14667       4   14637   14622   14631   14649       4
   14634   14616   14631   14649       4   14634   14652   14670   14685       2
   14634   14652   14670   14688       2   14631   14616   14634   14655       7
   14631   14616   14634   14658       7   14625   14613   14628   14646       4
   14619   14604   14616   14631       4   14619   14604   14616   14634       4
   14616   14631   14622   14637       4   14616   14634   14652   14673       8
   14616   14634   14652   14676       8   14613   14625   14640   14664       4
   14613   14628   14643   14667       4   14610   14625   14640   14664       4
   14607   14595   14604   14619       4   14607   14622   14631   14649       4
   14604   14616   14631   14649       4   14604   14616   14634   14655       7
   14604   14616   14634   14658       7   14601   14613   14628   14646       4
   14598   14607   14622   14637       4   14595   14607   14622   14637       4
   14592   14595   14604   14619       4   14964   14949   14961   14967       1
   14964   14949   14961   14970       1   14964   14949   14961   14973       1
   14958   14949   14961   14967       1   14958   14949   14961   14970       1
   14958   14949   14961   14973       1   14955   14946   14949   14958       1
   14955   14946   14949   14961       2   14955   14946   14949   14964       1
   14952   14946   14949   14958       1   14952   14946   14949   14961       2
   14952   14946   14949   14964       1   14946   14949   14961   14967       2
   14946   14949   14961   14970       2   14946   14949   14961   14973       2
   14943   14928   14946   14949       2   14943   14928   14946   14952       1
   14943   14928   14946   14955       1   14940   14928   14946   14949       2
   14940   14928   14946   14952       1   14940   14928   14946   14955       1
   14934   14910   14928   14940       1   14934   14910   14928   14943       1
   14934   14910   14928   14946       2   14931   14910   14928   14940       1
   14931   14910   14928   14943       1   14931   14910   14928   14946       2
   14928   14946   14949   14958       2   14928   14946   14949   14964       2
   14925   14904   14919   14937       4   14922   14898   14919   14937       4
   14916   14889   14910   14928       2   14916   14889   14910   14931       1
   14916   14889   14910   14934       1   14913   14889   14910   14928       2
   14913   14889   14910   14931       1   14913   14889   14910   14934       1
   14910   14928   14946   14952       2   14910   14928   14946   14955       2
   14907   14886   14904   14919       4   14907   14886   14904   14925       4
   14904   14919   14898   14922       4   14901   14883   14898   14919       4
   14901   14883   14898   14922       4   14898   14919   14904   14925       4
   14895   14874   14889   14910       2   14895   14874   14889   14913       1
   14895   14874   14889   14916       1   14892   14874   14889   14910       2
   14892   14874   14889   14913       1   14892   14874   14889   14916       1
   14889   14910   14928   14940       2   14889   14910   14928   14943       2
   14886   14871   14883   14901       4   14886   14904   14919   14937       4
   14883   14871   14886   14907       4   14883   14898   14919   14937       4
   14880   14862   14874   14889       2   14880   14862   14874   14892       1
   14880   14862   14874   14895       1   14877   14862   14874   14889       2
   14877   14862   14874   14892       1   14877   14862   14874   14895       1
   14874   14889   14910   14931       2   14874   14889   14910   14934       2
   14871   14883   14898   14922       4   14871   14886   14904   14925       4
   14868   14844   14862   14874       2   14868   14844   14862   14877       1
   14868   14844   14862   14880       1   14865   14844   14862   14874       2
   14865   14844   14862   14877       1   14865   14844   14862   14880       1
   14862   14874   14889   14913       2   14862   14874   14889   14916       2
   14859   14835   14853   14871       4   14856   14832   14853   14871       4
   14853   14871   14883   14901       4   14853   14871   14886   14907       4
   14850   14826   14844   14862       2   14850   14826   14844   14865       1
   14850   14826   14844   14868       1   14847   14826   14844   14862       2
   14847   14826   14844   14865       1   14847   14826   14844   14868       1
   14844   14862   14874   14892       2   14844   14862   14874   14895       2
   14838   14820   14835   14853       4   14838   14820   14835   14859       4
   14835   14853   14832   14856       4   14832   14853   14835   14859       4
   14829   14814   14823   14841       4   14826   14808   14823   14841       4
   14826   14844   14862   14877       2   14826   14844   14862   14880       2
   14823   14808   14826   14847       7   14823   14808   14826   14850       7
   14817   14805   14820   14838       4   14811   14796   14808   14823       4
   14811   14796   14808   14826       4   14808   14823   14814   14829       4
   14808   14826   14844   14865       8   14808   14826   14844   14868       8
   14805   14817   14832   14856       4   14805   14820   14835   14859       4
   14802   14817   14832   14856       4   14799   14787   14796   14811       4
   14799   14814   14823   14841       4   14796   14808   14823   14841       4
   14796   14808   14826   14847       7   14796   14808   14826   14850       7
   14793   14805   14820   14838       4   14790   14799   14814   14829       4
   14787   14799   14814   14829       4   14784   14787   14796   14811       4
   15156   15141   15153   15159       1   15156   15141   15153   15162       1
   15156   15141   15153   15165       1   15150   15141   15153   15159       1
   15150   15141   15153   15162       1   15150   15141   15153   15165       1
   15147   15138   15141   15150       1   15147   15138   15141   15153       2
   15147   15138   15141   15156       1   15144   15138   15141   15150       1
   15144   15138   15141   15153       2   15144   15138   15141   15156       1
   15138   15141   15153   15159       2   15138   15141   15153   15162       2
   15138   15141   15153   15165       2   15135   15120   15138   15141       2
   15135   15120   15138   15144       1   15135   15120   15138   15147       1
   15132   15120   15138   15141       2   15132   15120   15138   15144       1
   15132   15120   15138   15147       1   15126   15102   15120   15132       1
   15126   15102   15120   15135       1   15126   15102   15120   15138       2
   15123   15102   15120   15132       1   15123   15102   15120   15135       1
   15123   15102   15120   15138       2   15120   15138   15141   15150       2
   15120   15138   15141   15156       2   15117   15096   15111   15129       4
   15114   15090   15111   15129       4   15108   15081   15102   15120       2
   15108   15081   15102   15123       1   15108   15081   15102   15126       1
   15105   15081   15102   15120       2   15105   15081   15102   15123       1
   15105   15081   15102   15126       1   15102   15120   15138   15144       2
   15102   15120   15138   15147       2   15099   15078   15096   15111       4
   15099   15078   15096   15117       4   15096   15111   15090   15114       4
   15093   15075   15090   15111       4   15093   15075   15090   15114       4
   15090   15111   15096   15117       4   15087   15066   15081   15102       2
   15087   15066   15081   15105       1   15087   15066   15081   15108       1
   15084   15066   15081   15102       2   15084   15066   15081   15105       1
   15084   15066   15081   15108       1   15081   15102   15120   15132       2
   15081   15102   15120   15135       2   15078   15063   15075   15093       4
   15078   15096   15111   15129       4   15075   15063   15078   15099       4
   15075   15090   15111   15129       4   15072   15054   15066   15081       2
   15072   15054   15066   15084       1   15072   15054   15066   15087       1
   15069   15054   15066   15081       2   15069   15054   15066   15084       1
   15069   15054   15066   15087       1   15066   15081   15102   15123       2
   15066   15081   15102   15126       2   15063   15075   15090   15114       4
   15063   15078   15096   15117       4   15060   15036   15054   15066       2
   15060   15036   15054   15069       1   15060   15036   15054   15072       1
   15057   15036   15054   15066       2   15057   15036   15054   15069       1
   15057   15036   15054   15072       1   15054   15066   15081   15105       2
   15054   15066   15081   15108       2   15051   15027   15045   15063       4
   15048   15024   15045   15063       4   15045   15063   15075   15093       4
   15045   15063   15078   15099       4   15042   15018   15036   15054       2
   15042   15018   15036   15057       1   15042   15018   15036   15060       1
   15039   15018   15036   15054       2   15039   15018   15036   15057       1
   15039   15018   15036   15060       1   15036   15054   15066   15084       2
   15036   15054   15066   15087       2   15030   15012   15027   15045       4
   15030   15012   15027   15051       4   15027   15045   15024   15048       4
   15024   15045   15027   15051       4   15021   15006   15015   15033       4
   15018   15000   15015   15033       4   15018   15036   15054   15069       2
   15018   15036   15054   15072       2   15015   15000   15018   15039       7
   15015   15000   15018   15042       7   15009   14997   15012   15030       4
   15003   14988   15000   15015       4   15003   14988   15000   15018       4
   15000   15015   15006   15021       4   15000   15018   15036   15057       8
   15000   15018   15036   15060       8   14997   15009   15024   15048       4
   14997   15012   15027   15051       4   14994   15009   15024   15048       4
   14991   14979   14988   15003       4   14991   15006   15015   15033       4
   14988   15000   15015   15033       4   14988   15000   15018   15039       7
   14988   15000   15018   15042       7   14985   14997   15012   15030       4
   14982   14991   15006   15021       4   14979   14991   15006   15021       4
   14976   14979   14988   15003       4   15348   15333   15345   15351       1
   15348   15333   15345   15354       1   15348   15333   15345   15357       1
   15342   15333   15345   15351       1   15342   15333   15345   15354       1
   15342   15333   15345   15357       1   15339   15330   15333   15342       1
   15339   15330   15333   15345       2   15339   15330   15333   15348       1
   15336   15330   15333   15342       1   15336   15330   15333   15345       2
   15336   15330   15333   15348       1   15330   15333   15345   15351       2
   15330   15333   15345   15354       2   15330   15333   15345   15357       2
   15327   15312   15330   15333       2   15327   15312   15330   15336       1
   15327   15312   15330   15339       1   15324   15312   15330   15333       2
   15324   15312   15330   15336       1   15324   15312   15330   15339       1
   15318   15294   15312   15324       1   15318   15294   15312   15327       1
   15318   15294   15312   15330       2   15315   15294   15312   15324       1
   15315   15294   15312   15327       1   15315   15294   15312   15330       2
   15312   15330   15333   15342       2   15312   15330   15333   15348       2
   15309   15288   15303   15321       4   15306   15282   15303   15321       4
   15300   15273   15294   15312       2   15300   15273   15294   15315       1
   15300   15273   15294   15318       1   15297   15273   15294   15312       2
   15297   15273   15294   15315       1   15297   15273   15294   15318       1
   15294   15312   15330   15336       2   15294   15312   15330   15339       2
   15291   15270   15288   15303       4   15291   15270   15288   15309       4
   15288   15303   15282   15306       4   15285   15267   15282   15303       4
   15285   15267   15282   15306       4   15282   15303   15288   15309       4
   15279   15258   15273   15294       2   15279   15258   15273   15297       1
   15279   15258   15273   15300       1   15276   15258   15273   15294       2
   15276   15258   15273   15297       1   15276   15258   15273   15300       1
   15273   15294   15312   15324       2   15273   15294   15312   15327       2
   15270   15255   15267   15285       4   15270   15288   15303   15321       4
   15267   15255   15270   15291       4   15267   15282   15303   15321       4
   15264   15246   15258   15273       2   15264   15246   15258   15276       1
   15264   15246   15258   15279       1   15261   15246   15258   15273       2
   15261   15246   15258   15276       1   15261   15246   15258   15279       1
   15258   15273   15294   15315       2   15258   15273   15294   15318       2
   15255   15267   15282   15306       4   15255   15270   15288   15309       4
   15252   15228   15246   15258       2   15252   15228   15246   15261       1
   15252   15228   15246   15264       1   15249   15228   15246   15258       2
   15249   15228   15246   15261       1   15249   15228   15246   15264       1
   15246   15258   15273   15297       2   15246   15258   15273   15300       2
   15243   15219   15237   15255       4   15240   15216   15237   15255       4
   15237   15255   15267   15285       4   15237   15255   15270   15291       4
   15234   15210   15228   15246       2   15234   15210   15228   15249       1
   15234   15210   15228   15252       1   15231   15210   15228   15246       2
   15231   15210   15228   15249       1   15231   15210   15228   15252       1
   15228   15246   15258   15276       2   15228   15246   15258   15279       2
   15222   15204   15219   15237       4   15222   15204   15219   15243       4
   15219   15237   15216   15240       4   15216   15237   15219   15243       4
   15213   15198   15207   15225       4   15210   15192   15207   15225       4
   15210   15228   15246   15261       2   15210   15228   15246   15264       2
   15207   15192   15210   15231       7   15207   15192   15210   15234       7
   15201   15189   15204   15222       4   15195   15180   15192   15207       4
   15195   15180   15192   15210       4   15192   15207   15198   15213       4
   15192   15210   15228   15249       8   15192   15210   15228   15252       8
   15189   15201   15216   15240       4   15189   15204   15219   15243       4
   15186   15201   15216   15240       4   15183   15171   15180   15195       4
   15183   15198   15207   15225       4   15180   15192   15207   15225       4
   15180   15192   15210   15231       7   15180   15192   15210   15234       7
   15177   15189   15204   15222       4   15174   15183   15198   15213       4
   15171   15183   15198   15213       4   15168   15171   15180   15195       4
   15540   15525   15537   15543       1   15540   15525   15537   15546       1
   15540   15525   15537   15549       1   15534   15525   15537   15543       1
   15534   15525   15537   15546       1   15534   15525   15537   15549       1
   15531   15522   15525   15534       1   15531   15522   15525   15537       2
   15531   15522   15525   15540       1   15528   15522   15525   15534       1
   15528   15522   15525   15537       2   15528   15522   15525   15540       1
   15522   15525   15537   15543       2   15522   15525   15537   15546       2
   15522   15525   15537   15549       2   15519   15504   15522   15525       2
   15519   15504   15522   15528       1   15519   15504   15522   15531       1
   15516   15504   15522   15525       2   15516   15504   15522   15528       1
   15516   15504   15522   15531       1   15510   15486   15504   15516       1
   15510   15486   15504   15519       1   15510   15486   15504   15522       2
   15507   15486   15504   15516       1   15507   15486   15504   15519       1
   15507   15486   15504   15522       2   15504   15522   15525   15534       2
   15504   15522   15525   15540       2   15501   15480   15495   15513       4
   15498   15474   15495   15513       4   15492   15465   15486   15504       2
   15492   15465   15486   15507       1   15492   15465   15486   15510       1
   15489   15465   15486   15504       2   15489   15465   15486   15507       1
   15489   15465   15486   15510       1   15486   15504   15522   15528       2
   15486   15504   15522   15531       2   15483   15462   15480   15495       4
   15483   15462   15480   15501       4   15480   15495   15474   15498       4
   15477   15459   15474   15495       4   15477   15459   15474   15498       4
   15474   15495   15480   15501       4   15471   15450   15465   15486       2
   15471   15450   15465   15489       1   15471   15450   15465   15492       1
   15468   15450   15465   15486       2   15468   15450   15465   15489       1
   15468   15450   15465   15492       1   15465   15486   15504   15516       2
   15465   15486   15504   15519       2   15462   15447   15459   15477       4
   15462   15480   15495   15513       4   15459   15447   15462   15483       4
   15459   15474   15495   15513       4   15456   15438   15450   15465       2
   15456   15438   15450   15468       1   15456   15438   15450   15471       1
   15453   15438   15450   15465       2   15453   15438   15450   15468       1
   15453   15438   15450   15471       1   15450   15465   15486   15507       2
   15450   15465   15486   15510       2   15447   15459   15474   15498       4
   15447   15462   15480   15501       4   15444   15420   15438   15450       2
   15444   15420   15438   15453       1   15444   15420   15438   15456       1
   15441   15420   15438   15450       2   15441   15420   15438   15453       1
   15441   15420   15438   15456       1   15438   15450   15465   15489       2
   15438   15450   15465   15492       2   15435   15411   15429   15447       4
   15432   15408   15429   15447       4   15429   15447   15459   15477       4
   15429   15447   15462   15483       4   15426   15402   15420   15438       2
   15426   15402   15420   15441       1   15426   15402   15420   15444       1
   15423   15402   15420   15438       2   15423   15402   15420   15441       1
   15423   15402   15420   15444       1   15420   15438   15450   15468       2
   15420   15438   15450   15471       2   15414   15396   15411   15429       4
   15414   15396   15411   15435       4   15411   15429   15408   15432       4
   15408   15429   15411   15435       4   15405   15390   15399   15417       4
   15402   15384   15399   15417       4   15402   15420   15438   15453       2
   15402   15420   15438   15456       2   15399   15384   15402   15423       7
   15399   15384   15402   15426       7   15393   15381   15396   15414       4
   15387   15372   15384   15399       4   15387   15372   15384   15402       4
   15384   15399   15390   15405       4   15384   15402   15420   15441       8
   15384   15402   15420   15444       8   15381   15393   15408   15432       4
   15381   15396   15411   15435       4   15378   15393   15408   15432       4
   15375   15363   15372   15387       4   15375   15390   15399   15417       4
   15372   15384   15399   15417       4   15372   15384   15402   15423       7
   15372   15384   15402   15426       7   15369   15381   15396   15414       4
   15366   15375   15390   15405       4   15363   15375   15390   15405       4
   15360   15363   15372   15387       4   15732   15717   15729   15735       1
   15732   15717   15729   15738       1   15732   15717   15729   15741       1
   15726   15717   15729   15735       1   15726   15717   15729   15738       1
   15726   15717   15729   15741       1   15723   15714   15717   15726       1
   15723   15714   15717   15729       2   15723   15714   15717   15732       1
   15720   15714   15717   15726       1   15720   15714   15717   15729       2
   15720   15714   15717   15732       1   15714   15717   15729   15735       2
   15714   15717   15729   15738       2   15714   15717   15729   15741       2
   15711   15696   15714   15717       2   15711   15696   15714   15720       1
   15711   15696   15714   15723       1   15708   15696   15714   15717       2
   15708   15696   15714   15720       1   15708   15696   15714   15723       1
   15702   15678   15696   15708       1   15702   15678   15696   15711       1
   15702   15678   15696   15714       2   15699   15678   15696   15708       1
   15699   15678   15696   15711       1   15699   15678   15696   15714       2
   15696   15714   15717   15726       2   15696   15714   15717   15732       2
   15693   15672   15687   15705       4   15690   15666   15687   15705       4
   15684   15657   15678   15696       2   15684   15657   15678   15699       1
   15684   15657   15678   15702       1   15681   15657   15678   15696       2
   15681   15657   15678   15699       1   15681   15657   15678   15702       1
   15678   15696   15714   15720       2   15678   15696   15714   15723       2
   15675   15654   15672   15687       4   15675   15654   15672   15693       4
   15672   15687   15666   15690       4   15669   15651   15666   15687       4
   15669   15651   15666   15690       4   15666   15687   15672   15693       4
   15663   15642   15657   15678       2   15663   15642   15657   15681       1
   15663   15642   15657   15684       1   15660   15642   15657   15678       2
   15660   15642   15657   15681       1   15660   15642   15657   15684       1
   15657   15678   15696   15708       2   15657   15678   15696   15711       2
   15654   15639   15651   15669       4   15654   15672   15687   15705       4
   15651   15639   15654   15675       4   15651   15666   15687   15705       4
   15648   15630   15642   15657       2   15648   15630   15642   15660       1
   15648   15630   15642   15663       1   15645   15630   15642   15657       2
   15645   15630   15642   15660       1   15645   15630   15642   15663       1
   15642   15657   15678   15699       2   15642   15657   15678   15702       2
   15639   15651   15666   15690       4   15639   15654   15672   15693       4
   15636   15612   15630   15642       2   15636   15612   15630   15645       1
   15636   15612   15630   15648       1   15633   15612   15630   15642       2
   15633   15612   15630   15645       1   15633   15612   15630   15648       1
   15630   15642   15657   15681       2   15630   15642   15657   15684       2
   15627   15603   15621   15639       4   15624   15600   15621   15639       4
   15621   15639   15651   15669       4   15621   15639   15654   15675       4
   15618   15594   15612   15630       2   15618   15594   15612   15633       1
   15618   15594   15612   15636       1   15615   15594   15612   15630       2
   15615   15594   15612   15633       1   15615   15594   15612   15636       1
   15612   15630   15642   15660       2   15612   15630   15642   15663       2
   15606   15588   15603   15621       4   15606   15588   15603   15627       4
   15603   15621   15600   15624       4   15600   15621   15603   15627       4
   15597   15582   15591   15609       4   15594   15576   15591   15609       4
   15594   15612   15630   15645       2   15594   15612   15630   15648       2
   15591   15576   15594   15615       7   15591   15576   15594   15618       7
   15585   15573   15588   15606       4   15579   15564   15576   15591       4
   15579   15564   15576   15594       4   15576   15591   15582   15597       4
   15576   15594   15612   15633       8   15576   15594   15612   15636       8
   15573   15585   15600   15624       4   15573   15588   15603   15627       4
   15570   15585   15600   15624       4   15567   15555   15564   15579       4
   15567   15582   15591   15609       4   15564   15576   15591   15609       4
   15564   15576   15594   15615       7   15564   15576   15594   15618       7
   15561   15573   15588   15606       4   15558   15567   15582   15597       4
   15555   15567   15582   15597       4   15552   15555   15564   15579       4
   15924   15909   15921   15927       1   15924   15909   15921   15930       1
   15924   15909   15921   15933       1   15918   15909   15921   15927       1
   15918   15909   15921   15930       1   15918   15909   15921   15933       1
   15915   15906   15909   15918       1   15915   15906   15909   15921       2
   15915   15906   15909   15924       1   15912   15906   15909   15918       1
   15912   15906   15909   15921       2   15912   15906   15909   15924       1
   15906   15909   15921   15927       2   15906   15909   15921   15930       2
   15906   15909   15921   15933       2   15903   15888   15906   15909       2
   15903   15888   15906   15912       1   15903   15888   15906   15915       1
   15900   15888   15906   15909       2   15900   15888   15906   15912       1
   15900   15888   15906   15915       1   15894   15870   15888   15900       1
   15894   15870   15888   15903       1   15894   15870   15888   15906       2
   15891   15870   15888   15900       1   15891   15870   15888   15903       1
   15891   15870   15888   15906       2   15888   15906   15909   15918       2
   15888   15906   15909   15924       2   15885   15864   15879   15897       4
   15882   15858   15879   15897       4   15876   15849   15870   15888       2
   15876   15849   15870   15891       1   15876   15849   15870   15894       1
   15873   15849   15870   15888       2   15873   15849   15870   15891       1
   15873   15849   15870   15894       1   15870   15888   15906   15912       2
   15870   15888   15906   15915       2   15867   15846   15864   15879       4
   15867   15846   15864   15885       4   15864   15879   15858   15882       4
   15861   15843   15858   15879       4   15861   15843   15858   15882       4
   15858   15879   15864   15885       4   15855   15834   15849   15870       2
   15855   15834   15849   15873       1   15855   15834   15849   15876       1
   15852   15834   15849   15870       2   15852   15834   15849   15873       1
   15852   15834   15849   15876       1   15849   15870   15888   15900       2
   15849   15870   15888   15903       2   15846   15831   15843   15861       4
   15846   15864   15879   15897       4   15843   15831   15846   15867       4
   15843   15858   15879   15897       4   15840   15822   15834   15849       2
   15840   15822   15834   15852       1   15840   15822   15834   15855       1
   15837   15822   15834   15849       2   15837   15822   15834   15852       1
   15837   15822   15834   15855       1   15834   15849   15870   15891       2
   15834   15849   15870   15894       2   15831   15843   15858   15882       4
   15831   15846   15864   15885       4   15828   15804   15822   15834       2
   15828   15804   15822   15837       1   15828   15804   15822   15840       1
   15825   15804   15822   15834       2   15825   15804   15822   15837       1
   15825   15804   15822   15840       1   15822   15834   15849   15873       2
   15822   15834   15849   15876       2   15819   15795   15813   15831       4
   15816   15792   15813   15831       4   15813   15831   15843   15861       4
   15813   15831   15846   15867       4   15810   15786   15804   15822       2
   15810   15786   15804   15825       1   15810   15786   15804   15828       1
   15807   15786   15804   15822       2   15807   15786   15804   15825       1
   15807   15786   15804   15828       1   15804   15822   15834   15852       2
   15804   15822   15834   15855       2   15798   15780   15795   15813       4
   15798   15780   15795   15819       4   15795   15813   15792   15816       4
   15792   15813   15795   15819       4   15789   15774   15783   15801       4
   15786   15768   15783   15801       4   15786   15804   15822   15837       2
   15786   15804   15822   15840       2   15783   15768   15786   15807       7
   15783   15768   15786   15810       7   15777   15765   15780   15798       4
   15771   15756   15768   15783       4   15771   15756   15768   15786       4
   15768   15783   15774   15789       4   15768   15786   15804   15825       8
   15768   15786   15804   15828       8   15765   15777   15792   15816       4
   15765   15780   15795   15819       4   15762   15777   15792   15816       4
   15759   15747   15756   15771       4   15759   15774   15783   15801       4
   15756   15768   15783   15801       4   15756   15768   15786   15807       7
   15756   15768   15786   15810       7   15753   15765   15780   15798       4
   15750   15759   15774   15789       4   15747   15759   15774   15789       4
   15744   15747   15756   15771       4   16116   16101   16113   16119       1
   16116   16101   16113   16122       1   16116   16101   16113   16125       1
   16110   16101   16113   16119       1   16110   16101   16113   16122       1
   16110   16101   16113   16125       1   16107   16098   16101   16110       1
   16107   16098   16101   16113       2   16107   16098   16101   16116       1
   16104   16098   16101   16110       1   16104   16098   16101   16113       2
   16104   16098   16101   16116       1   16098   16101   16113   16119       2
   16098   16101   16113   16122       2   16098   16101   16113   16125       2
   16095   16080   16098   16101       2   16095   16080   16098   16104       1
   16095   16080   16098   16107       1   16092   16080   16098   16101       2
   16092   16080   16098   16104       1   16092   16080   16098   16107       1
   16086   16062   16080   16092       1   16086   16062   16080   16095       1
   16086   16062   16080   16098       2   16083   16062   16080   16092       1
   16083   16062   16080   16095       1   16083   16062   16080   16098       2
   16080   16098   16101   16110       2   16080   16098   16101   16116       2
   16077   16056   16071   16089       4   16074   16050   16071   16089       4
   16068   16041   16062   16080       2   16068   16041   16062   16083       1
   16068   16041   16062   16086       1   16065   16041   16062   16080       2
   16065   16041   16062   16083       1   16065   16041   16062   16086       1
   16062   16080   16098   16104       2   16062   16080   16098   16107       2
   16059   16038   16056   16071       4   16059   16038   16056   16077       4
   16056   16071   16050   16074       4   16053   16035   16050   16071       4
   16053   16035   16050   16074       4   16050   16071   16056   16077       4
   16047   16026   16041   16062       2   16047   16026   16041   16065       1
   16047   16026   16041   16068       1   16044   16026   16041   16062       2
   16044   16026   16041   16065       1   16044   16026   16041   16068       1
   16041   16062   16080   16092       2   16041   16062   16080   16095       2
   16038   16023   16035   16053       4   16038   16056   16071   16089       4
   16035   16023   16038   16059       4   16035   16050   16071   16089       4
   16032   16014   16026   16041       2   16032   16014   16026   16044       1
   16032   16014   16026   16047       1   16029   16014   16026   16041       2
   16029   16014   16026   16044       1   16029   16014   16026   16047       1
   16026   16041   16062   16083       2   16026   16041   16062   16086       2
   16023   16035   16050   16074       4   16023   16038   16056   16077       4
   16020   15996   16014   16026       2   16020   15996   16014   16029       1
   16020   15996   16014   16032       1   16017   15996   16014   16026       2
   16017   15996   16014   16029       1   16017   15996   16014   16032       1
   16014   16026   16041   16065       2   16014   16026   16041   16068       2
   16011   15987   16005   16023       4   16008   15984   16005   16023       4
   16005   16023   16035   16053       4   16005   16023   16038   16059       4
   16002   15978   15996   16014       2   16002   15978   15996   16017       1
   16002   15978   15996   16020       1   15999   15978   15996   16014       2
   15999   15978   15996   16017       1   15999   15978   15996   16020       1
   15996   16014   16026   16044       2   15996   16014   16026   16047       2
   15990   15972   15987   16005       4   15990   15972   15987   16011       4
   15987   16005   15984   16008       4   15984   16005   15987   16011       4
   15981   15966   15975   15993       4   15978   15960   15975   15993       4
   15978   15996   16014   16029       2   15978   15996   16014   16032       2
   15975   15960   15978   15999       7   15975   15960   15978   16002       7
   15969   15957   15972   15990       4   15963   15948   15960   15975       4
   15963   15948   15960   15978       4   15960   15975   15966   15981       4
   15960   15978   15996   16017       8   15960   15978   15996   16020       8
   15957   15969   15984   16008       4   15957   15972   15987   16011       4
   15954   15969   15984   16008       4   15951   15939   15948   15963       4
   15951   15966   15975   15993       4   15948   15960   15975   15993       4
   15948   15960   15978   15999       7   15948   15960   15978   16002       7
   15945   15957   15972   15990       4   15942   15951   15966   15981       4
   15939   15951   15966   15981       4   15936   15939   15948   15963       4
   16308   16293   16305   16311       1   16308   16293   16305   16314       1
   16308   16293   16305   16317       1   16302   16293   16305   16311       1
   16302   16293   16305   16314       1   16302   16293   16305   16317       1
   16299   16290   16293   16302       1   16299   16290   16293   16305       2
   16299   16290   16293   16308       1   16296   16290   16293   16302       1
   16296   16290   16293   16305       2   16296   16290   16293   16308       1
   16290   16293   16305   16311       2   16290   16293   16305   16314       2
   16290   16293   16305   16317       2   16287   16272   16290   16293       2
   16287   16272   16290   16296       1   16287   16272   16290   16299       1
   16284   16272   16290   16293       2   16284   16272   16290   16296       1
   16284   16272   16290   16299       1   16278   16254   16272   16284       1
   16278   16254   16272   16287       1   16278   16254   16272   16290       2
   16275   16254   16272   16284       1   16275   16254   16272   16287       1
   16275   16254   16272   16290       2   16272   16290   16293   16302       2
   16272   16290   16293   16308       2   16269   16248   16263   16281       4
   16266   16242   16263   16281       4   16260   16233   16254   16272       2
   16260   16233   16254   16275       1   16260   16233   16254   16278       1
   16257   16233   16254   16272       2   16257   16233   16254   16275       1
   16257   16233   16254   16278       1   16254   16272   16290   16296       2
   16254   16272   16290   16299       2   16251   16230   16248   16263       4
   16251   16230   16248   16269       4   16248   16263   16242   16266       4
   16245   16227   16242   16263       4   16245   16227   16242   16266       4
   16242   16263   16248   16269       4   16239   16218   16233   16254       2
   16239   16218   16233   16257       1   16239   16218   16233   16260       1
   16236   16218   16233   16254       2   16236   16218   16233   16257       1
   16236   16218   16233   16260       1   16233   16254   16272   16284       2
   16233   16254   16272   16287       2   16230   16215   16227   16245       4
   16230   16248   16263   16281       4   16227   16215   16230   16251       4
   16227   16242   16263   16281       4   16224   16206   16218   16233       2
   16224   16206   16218   16236       1   16224   16206   16218   16239       1
   16221   16206   16218   16233       2   16221   16206   16218   16236       1
   16221   16206   16218   16239       1   16218   16233   16254   16275       2
   16218   16233   16254   16278       2   16215   16227   16242   16266       4
   16215   16230   16248   16269       4   16212   16188   16206   16218       2
   16212   16188   16206   16221       1   16212   16188   16206   16224       1
   16209   16188   16206   16218       2   16209   16188   16206   16221       1
   16209   16188   16206   16224       1   16206   16218   16233   16257       2
   16206   16218   16233   16260       2   16203   16179   16197   16215       4
   16200   16176   16197   16215       4   16197   16215   16227   16245       4
   16197   16215   16230   16251       4   16194   16170   16188   16206       2
   16194   16170   16188   16209       1   16194   16170   16188   16212       1
   16191   16170   16188   16206       2   16191   16170   16188   16209       1
   16191   16170   16188   16212       1   16188   16206   16218   16236       2
   16188   16206   16218   16239       2   16182   16164   16179   16197       4
   16182   16164   16179   16203       4   16179   16197   16176   16200       4
   16176   16197   16179   16203       4   16173   16158   16167   16185       4
   16170   16152   16167   16185       4   16170   16188   16206   16221       2
   16170   16188   16206   16224       2   16167   16152   16170   16191       7
   16167   16152   16170   16194       7   16161   16149   16164   16182       4
   16155   16140   16152   16167       4   16155   16140   16152   16170       4
   16152   16167   16158   16173       4   16152   16170   16188   16209       8
   16152   16170   16188   16212       8   16149   16161   16176   16200       4
   16149   16164   16179   16203       4   16146   16161   16176   16200       4
   16143   16131   16140   16155       4   16143   16158   16167   16185       4
   16140   16152   16167   16185       4   16140   16152   16170   16191       7
   16140   16152   16170   16194       7   16137   16149   16164   16182       4
   16134   16143   16158   16173       4   16131   16143   16158   16173       4
   16128   16131   16140   16155       4   16500   16485   16497   16503       1
   16500   16485   16497   16506       1   16500   16485   16497   16509       1
   16494   16485   16497   16503       1   16494   16485   16497   16506       1
   16494   16485   16497   16509       1   16491   16482   16485   16494       1
   16491   16482   16485   16497       2   16491   16482   16485   16500       1
   16488   16482   16485   16494       1   16488   16482   16485   16497       2
   16488   16482   16485   16500       1   16482   16485   16497   16503       2
   16482   16485   16497   16506       2   16482   16485   16497   16509       2
   16479   16464   16482   16485       2   16479   16464   16482   16488       1
   16479   16464   16482   16491       1   16476   16464   16482   16485       2
   16476   16464   16482   16488       1   16476   16464   16482   16491       1
   16470   16446   16464   16476       1   16470   16446   16464   16479       1
   16470   16446   16464   16482       2   16467   16446   16464   16476       1
   16467   16446   16464   16479       1   16467   16446   16464   16482       2
   16464   16482   16485   16494       2   16464   16482   16485   16500       2
   16461   16440   16455   16473       4   16458   16434   16455   16473       4
   16452   16425   16446   16464       2   16452   16425   16446   16467       1
   16452   16425   16446   16470       1   16449   16425   16446   16464       2
   16449   16425   16446   16467       1   16449   16425   16446   16470       1
   16446   16464   16482   16488       2   16446   16464   16482   16491       2
   16443   16422   16440   16455       4   16443   16422   16440   16461       4
   16440   16455   16434   16458       4   16437   16419   16434   16455       4
   16437   16419   16434   16458       4   16434   16455   16440   16461       4
   16431   16410   16425   16446       2   16431   16410   16425   16449       1
   16431   16410   16425   16452       1   16428   16410   16425   16446       2
   16428   16410   16425   16449       1   16428   16410   16425   16452       1
   16425   16446   16464   16476       2   16425   16446   16464   16479       2
   16422   16407   16419   16437       4   16422   16440   16455   16473       4
   16419   16407   16422   16443       4   16419   16434   16455   16473       4
   16416   16398   16410   16425       2   16416   16398   16410   16428       1
   16416   16398   16410   16431       1   16413   16398   16410   16425       2
   16413   16398   16410   16428       1   16413   16398   16410   16431       1
   16410   16425   16446   16467       2   16410   16425   16446   16470       2
   16407   16419   16434   16458       4   16407   16422   16440   16461       4
   16404   16380   16398   16410       2   16404   16380   16398   16413       1
   16404   16380   16398   16416       1   16401   16380   16398   16410       2
   16401   16380   16398   16413       1   16401   16380   16398   16416       1
   16398   16410   16425   16449       2   16398   16410   16425   16452       2
   16395   16371   16389   16407       4   16392   16368   16389   16407       4
   16389   16407   16419   16437       4   16389   16407   16422   16443       4
   16386   16362   16380   16398       2   16386   16362   16380   16401       1
   16386   16362   16380   16404       1   16383   16362   16380   16398       2
   16383   16362   16380   16401       1   16383   16362   16380   16404       1
   16380   16398   16410   16428       2   16380   16398   16410   16431       2
   16374   16356   16371   16389       4   16374   16356   16371   16395       4
   16371   16389   16368   16392       4   16368   16389   16371   16395       4
   16365   16350   16359   16377       4   16362   16344   16359   16377       4
   16362   16380   16398   16413       2   16362   16380   16398   16416       2
   16359   16344   16362   16383       7   16359   16344   16362   16386       7
   16353   16341   16356   16374       4   16347   16332   16344   16359       4
   16347   16332   16344   16362       4   16344   16359   16350   16365       4
   16344   16362   16380   16401       8   16344   16362   16380   16404       8
   16341   16353   16368   16392       4   16341   16356   16371   16395       4
   16338   16353   16368   16392       4   16335   16323   16332   16347       4
   16335   16350   16359   16377       4   16332   16344   16359   16377       4
   16332   16344   16362   16383       7   16332   16344   16362   16386       7
   16329   16341   16356   16374       4   16326   16335   16350   16365       4
   16323   16335   16350   16365       4   16320   16323   16332   16347       4
   16692   16677   16689   16695       1   16692   16677   16689   16698       1
   16692   16677   16689   16701       1   16686   16677   16689   16695       1
   16686   16677   16689   16698       1   16686   16677   16689   16701       1
   16683   16674   16677   16686       1   16683   16674   16677   16689       2
   16683   16674   16677   16692       1   16680   16674   16677   16686       1
   16680   16674   16677   16689       2   16680   16674   16677   16692       1
   16674   16677   16689   16695       2   16674   16677   16689   16698       2
   16674   16677   16689   16701       2   16671   16656   16674   16677       2
   16671   16656   16674   16680       1   16671   16656   16674   16683       1
   16668   16656   16674   16677       2   16668   16656   16674   16680       1
   16668   16656   16674   16683       1   16662   16638   16656   16668       1
   16662   16638   16656   16671       1   16662   16638   16656   16674       2
   16659   16638   16656   16668       1   16659   16638   16656   16671       1
   16659   16638   16656   16674       2   16656   16674   16677   16686       2
   16656   16674   16677   16692       2   16653   16632   16647   16665       4
   16650   16626   16647   16665       4   16644   16617   16638   16656       2
   16644   16617   16638   16659       1   16644   16617   16638   16662       1
   16641   16617   16638   16656       2   16641   16617   16638   16659       1
   16641   16617   16638   16662       1   16638   16656   16674   16680       2
   16638   16656   16674   16683       2   16635   16614   16632   16647       4
   16635   16614   16632   16653       4   16632   16647   16626   16650       4
   16629   16611   16626   16647       4   16629   16611   16626   16650       4
   16626   16647   16632   16653       4   16623   16602   16617   16638       2
   16623   16602   16617   16641       1   16623   16602   16617   16644       1
   16620   16602   16617   16638       2   16620   16602   16617   16641       1
   16620   16602   16617   16644       1   16617   16638   16656   16668       2
   16617   16638   16656   16671       2   16614   16599   16611   16629       4
   16614   16632   16647   16665       4   16611   16599   16614   16635       4
   16611   16626   16647   16665       4   16608   16590   16602   16617       2
   16608   16590   16602   16620       1   16608   16590   16602   16623       1
   16605   16590   16602   16617       2   16605   16590   16602   16620       1
   16605   16590   16602   16623       1   16602   16617   16638   16659       2
   16602   16617   16638   16662       2   16599   16611   16626   16650       4
   16599   16614   16632   16653       4   16596   16572   16590   16602       2
   16596   16572   16590   16605       1   16596   16572   16590   16608       1
   16593   16572   16590   16602       2   16593   16572   16590   16605       1
   16593   16572   16590   16608       1   16590   16602   16617   16641       2
   16590   16602   16617   16644       2   16587   16563   16581   16599       4
   16584   16560   16581   16599       4   16581   16599   16611   16629       4
   16581   16599   16614   16635       4   16578   16554   16572   16590       2
   16578   16554   16572   16593       1   16578   16554   16572   16596       1
   16575   16554   16572   16590       2   16575   16554   16572   16593       1
   16575   16554   16572   16596       1   16572   16590   16602   16620       2
   16572   16590   16602   16623       2   16566   16548   16563   16581       4
   16566   16548   16563   16587       4   16563   16581   16560   16584       4
   16560   16581   16563   16587       4   16557   16542   16551   16569       4
   16554   16536   16551   16569       4   16554   16572   16590   16605       2
   16554   16572   16590   16608       2   16551   16536   16554   16575       7
   16551   16536   16554   16578       7   16545   16533   16548   16566       4
   16539   16524   16536   16551       4   16539   16524   16536   16554       4
   16536   16551   16542   16557       4   16536   16554   16572   16593       8
   16536   16554   16572   16596       8   16533   16545   16560   16584       4
   16533   16548   16563   16587       4   16530   16545   16560   16584       4
   16527   16515   16524   16539       4   16527   16542   16551   16569       4
   16524   16536   16551   16569       4   16524   16536   16554   16575       7
   16524   16536   16554   16578       7   16521   16533   16548   16566       4
   16518   16527   16542   16557       4   16515   16527   16542   16557       4
   16512   16515   16524   16539       4   16884   16869   16881   16887       1
   16884   16869   16881   16890       1   16884   16869   16881   16893       1
   16878   16869   16881   16887       1   16878   16869   16881   16890       1
   16878   16869   16881   16893       1   16875   16866   16869   16878       1
   16875   16866   16869   16881       2   16875   16866   16869   16884       1
   16872   16866   16869   16878       1   16872   16866   16869   16881       2
   16872   16866   16869   16884       1   16866   16869   16881   16887       2
   16866   16869   16881   16890       2   16866   16869   16881   16893       2
   16863   16848   16866   16869       2   16863   16848   16866   16872       1
   16863   16848   16866   16875       1   16860   16848   16866   16869       2
   16860   16848   16866   16872       1   16860   16848   16866   16875       1
   16854   16830   16848   16860       1   16854   16830   16848   16863       1
   16854   16830   16848   16866       2   16851   16830   16848   16860       1
   16851   16830   16848   16863       1   16851   16830   16848   16866       2
   16848   16866   16869   16878       2   16848   16866   16869   16884       2
   16845   16824   16839   16857       4   16842   16818   16839   16857       4
   16836   16809   16830   16848       2   16836   16809   16830   16851       1
   16836   16809   16830   16854       1   16833   16809   16830   16848       2
   16833   16809   16830   16851       1   16833   16809   16830   16854       1
   16830   16848   16866   16872       2   16830   16848   16866   16875       2
   16827   16806   16824   16839       4   16827   16806   16824   16845       4
   16824   16839   16818   16842       4   16821   16803   16818   16839       4
   16821   16803   16818   16842       4   16818   16839   16824   16845       4
   16815   16794   16809   16830       2   16815   16794   16809   16833       1
   16815   16794   16809   16836       1   16812   16794   16809   16830       2
   16812   16794   16809   16833       1   16812   16794   16809   16836       1
   16809   16830   16848   16860       2   16809   16830   16848   16863       2
   16806   16791   16803   16821       4   16806   16824   16839   16857       4
   16803   16791   16806   16827       4   16803   16818   16839   16857       4
   16800   16782   16794   16809       2   16800   16782   16794   16812       1
   16800   16782   16794   16815       1   16797   16782   16794   16809       2
   16797   16782   16794   16812       1   16797   16782   16794   16815       1
   16794   16809   16830   16851       2   16794   16809   16830   16854       2
   16791   16803   16818   16842       4   16791   16806   16824   16845       4
   16788   16764   16782   16794       2   16788   16764   16782   16797       1
   16788   16764   16782   16800       1   16785   16764   16782   16794       2
   16785   16764   16782   16797       1   16785   16764   16782   16800       1
   16782   16794   16809   16833       2   16782   16794   16809   16836       2
   16779   16755   16773   16791       4   16776   16752   16773   16791       4
   16773   16791   16803   16821       4   16773   16791   16806   16827       4
   16770   16746   16764   16782       2   16770   16746   16764   16785       1
   16770   16746   16764   16788       1   16767   16746   16764   16782       2
   16767   16746   16764   16785       1   16767   16746   16764   16788       1
   16764   16782   16794   16812       2   16764   16782   16794   16815       2
   16758   16740   16755   16773       4   16758   16740   16755   16779       4
   16755   16773   16752   16776       4   16752   16773   16755   16779       4
   16749   16734   16743   16761       4   16746   16728   16743   16761       4
   16746   16764   16782   16797       2   16746   16764   16782   16800       2
   16743   16728   16746   16767       7   16743   16728   16746   16770       7
   16737   16725   16740   16758       4   16731   16716   16728   16743       4
   16731   16716   16728   16746       4   16728   16743   16734   16749       4
   16728   16746   16764   16785       8   16728   16746   16764   16788       8
   16725   16737   16752   16776       4   16725   16740   16755   16779       4
   16722   16737   16752   16776       4   16719   16707   16716   16731       4
   16719   16734   16743   16761       4   16716   16728   16743   16761       4
   16716   16728   16746   16767       7   16716   16728   16746   16770       7
   16713   16725   16740   16758       4   16710   16719   16734   16749       4
   16707   16719   16734   16749       4   16704   16707   16716   16731       4
   17076   17061   17073   17079       1   17076   17061   17073   17082       1
   17076   17061   17073   17085       1   17070   17061   17073   17079       1
   17070   17061   17073   17082       1   17070   17061   17073   17085       1
   17067   17058   17061   17070       1   17067   17058   17061   17073       2
   17067   17058   17061   17076       1   17064   17058   17061   17070       1
   17064   17058   17061   17073       2   17064   17058   17061   17076       1
   17058   17061   17073   17079       2   17058   17061   17073   17082       2
   17058   17061   17073   17085       2   17055   17040   17058   17061       2
   17055   17040   17058   17064       1   17055   17040   17058   17067       1
   17052   17040   17058   17061       2   17052   17040   17058   17064       1
   17052   17040   17058   17067       1   17046   17022   17040   17052       1
   17046   17022   17040   17055       1   17046   17022   17040   17058       2
   17043   17022   17040   17052       1   17043   17022   17040   17055       1
   17043   17022   17040   17058       2   17040   17058   17061   17070       2
   17040   17058   17061   17076       2   17037   17016   17031   17049       4
   17034   17010   17031   17049       4   17028   17001   17022   17040       2
   17028   17001   17022   17043       1   17028   17001   17022   17046       1
   17025   17001   17022   17040       2   17025   17001   17022   17043       1
   17025   17001   17022   17046       1   17022   17040   17058   17064       2
   17022   17040   17058   17067       2   17019   16998   17016   17031       4
   17019   16998   17016   17037       4   17016   17031   17010   17034       4
   17013   16995   17010   17031       4   17013   16995   17010   17034       4
   17010   17031   17016   17037       4   17007   16986   17001   17022       2
   17007   16986   17001   17025       1   17007   16986   17001   17028       1
   17004   16986   17001   17022       2   17004   16986   17001   17025       1
   17004   16986   17001   17028       1   17001   17022   17040   17052       2
   17001   17022   17040   17055       2   16998   16983   16995   17013       4
   16998   17016   17031   17049       4   16995   16983   16998   17019       4
   16995   17010   17031   17049       4   16992   16974   16986   17001       2
   16992   16974   16986   17004       1   16992   16974   16986   17007       1
   16989   16974   16986   17001       2   16989   16974   16986   17004       1
   16989   16974   16986   17007       1   16986   17001   17022   17043       2
   16986   17001   17022   17046       2   16983   16995   17010   17034       4
   16983   16998   17016   17037       4   16980   16956   16974   16986       2
   16980   16956   16974   16989       1   16980   16956   16974   16992       1
   16977   16956   16974   16986       2   16977   16956   16974   16989       1
   16977   16956   16974   16992       1   16974   16986   17001   17025       2
   16974   16986   17001   17028       2   16971   16947   16965   16983       4
   16968   16944   16965   16983       4   16965   16983   16995   17013       4
   16965   16983   16998   17019       4   16962   16938   16956   16974       2
   16962   16938   16956   16977       1   16962   16938   16956   16980       1
   16959   16938   16956   16974       2   16959   16938   16956   16977       1
   16959   16938   16956   16980       1   16956   16974   16986   17004       2
   16956   16974   16986   17007       2   16950   16932   16947   16965       4
   16950   16932   16947   16971       4   16947   16965   16944   16968       4
   16944   16965   16947   16971       4   16941   16926   16935   16953       4
   16938   16920   16935   16953       4   16938   16956   16974   16989       2
   16938   16956   16974   16992       2   16935   16920   16938   16959       7
   16935   16920   16938   16962       7   16929   16917   16932   16950       4
   16923   16908   16920   16935       4   16923   16908   16920   16938       4
   16920   16935   16926   16941       4   16920   16938   16956   16977       8
   16920   16938   16956   16980       8   16917   16929   16944   16968       4
   16917   16932   16947   16971       4   16914   16929   16944   16968       4
   16911   16899   16908   16923       4   16911   16926   16935   16953       4
   16908   16920   16935   16953       4   16908   16920   16938   16959       7
   16908   16920   16938   16962       7   16905   16917   16932   16950       4
   16902   16911   16926   16941       4   16899   16911   16926   16941       4
   16896   16899   16908   16923       4   17268   17253   17265   17271       1
   17268   17253   17265   17274       1   17268   17253   17265   17277       1
   17262   17253   17265   17271       1   17262   17253   17265   17274       1
   17262   17253   17265   17277       1   17259   17250   17253   17262       1
   17259   17250   17253   17265       2   17259   17250   17253   17268       1
   17256   17250   17253   17262       1   17256   17250   17253   17265       2
   17256   17250   17253   17268       1   17250   17253   17265   17271       2
   17250   17253   17265   17274       2   17250   17253   17265   17277       2
   17247   17232   17250   17253       2   17247   17232   17250   17256       1
   17247   17232   17250   17259       1   17244   17232   17250   17253       2
   17244   17232   17250   17256       1   17244   17232   17250   17259       1
   17238   17214   17232   17244       1   17238   17214   17232   17247       1
   17238   17214   17232   17250       2   17235   17214   17232   17244       1
   17235   17214   17232   17247       1   17235   17214   17232   17250       2
   17232   17250   17253   17262       2   17232   17250   17253   17268       2
   17229   17208   17223   17241       4   17226   17202   17223   17241       4
   17220   17193   17214   17232       2   17220   17193   17214   17235       1
   17220   17193   17214   17238       1   17217   17193   17214   17232       2
   17217   17193   17214   17235       1   17217   17193   17214   17238       1
   17214   17232   17250   17256       2   17214   17232   17250   17259       2
   17211   17190   17208   17223       4   17211   17190   17208   17229       4
   17208   17223   17202   17226       4   17205   17187   17202   17223       4
   17205   17187   17202   17226       4   17202   17223   17208   17229       4
   17199   17178   17193   17214       2   17199   17178   17193   17217       1
   17199   17178   17193   17220       1   17196   17178   17193   17214       2
   17196   17178   17193   17217       1   17196   17178   17193   17220       1
   17193   17214   17232   17244       2   17193   17214   17232   17247       2
   17190   17175   17187   17205       4   17190   17208   17223   17241       4
   17187   17175   17190   17211       4   17187   17202   17223   17241       4
   17184   17166   17178   17193       2   17184   17166   17178   17196       1
   17184   17166   17178   17199       1   17181   17166   17178   17193       2
   17181   17166   17178   17196       1   17181   17166   17178   17199       1
   17178   17193   17214   17235       2   17178   17193   17214   17238       2
   17175   17187   17202   17226       4   17175   17190   17208   17229       4
   17172   17148   17166   17178       2   17172   17148   17166   17181       1
   17172   17148   17166   17184       1   17169   17148   17166   17178       2
   17169   17148   17166   17181       1   17169   17148   17166   17184       1
   17166   17178   17193   17217       2   17166   17178   17193   17220       2
   17163   17139   17157   17175       4   17160   17136   17157   17175       4
   17157   17175   17187   17205       4   17157   17175   17190   17211       4
   17154   17130   17148   17166       2   17154   17130   17148   17169       1
   17154   17130   17148   17172       1   17151   17130   17148   17166       2
   17151   17130   17148   17169       1   17151   17130   17148   17172       1
   17148   17166   17178   17196       2   17148   17166   17178   17199       2
   17142   17124   17139   17157       4   17142   17124   17139   17163       4
   17139   17157   17136   17160       4   17136   17157   17139   17163       4
   17133   17118   17127   17145       4   17130   17112   17127   17145       4
   17130   17148   17166   17181       2   17130   17148   17166   17184       2
   17127   17112   17130   17151       7   17127   17112   17130   17154       7
   17121   17109   17124   17142       4   17115   17100   17112   17127       4
   17115   17100   17112   17130       4   17112   17127   17118   17133       4
   17112   17130   17148   17169       8   17112   17130   17148   17172       8
   17109   17121   17136   17160       4   17109   17124   17139   17163       4
   17106   17121   17136   17160       4   17103   17091   17100   17115       4
   17103   17118   17127   17145       4   17100   17112   17127   17145       4
   17100   17112   17130   17151       7   17100   17112   17130   17154       7
   17097   17109   17124   17142       4   17094   17103   17118   17133       4
   17091   17103   17118   17133       4   17088   17091   17100   17115       4
   17460   17445   17457   17463       1   17460   17445   17457   17466       1
   17460   17445   17457   17469       1   17454   17445   17457   17463       1
   17454   17445   17457   17466       1   17454   17445   17457   17469       1
   17451   17442   17445   17454       1   17451   17442   17445   17457       2
   17451   17442   17445   17460       1   17448   17442   17445   17454       1
   17448   17442   17445   17457       2   17448   17442   17445   17460       1
   17442   17445   17457   17463       2   17442   17445   17457   17466       2
   17442   17445   17457   17469       2   17439   17424   17442   17445       2
   17439   17424   17442   17448       1   17439   17424   17442   17451       1
   17436   17424   17442   17445       2   17436   17424   17442   17448       1
   17436   17424   17442   17451       1   17430   17406   17424   17436       1
   17430   17406   17424   17439       1   17430   17406   17424   17442       2
   17427   17406   17424   17436       1   17427   17406   17424   17439       1
   17427   17406   17424   17442       2   17424   17442   17445   17454       2
   17424   17442   17445   17460       2   17421   17400   17415   17433       4
   17418   17394   17415   17433       4   17412   17385   17406   17424       2
   17412   17385   17406   17427       1   17412   17385   17406   17430       1
   17409   17385   17406   17424       2   17409   17385   17406   17427       1
   17409   17385   17406   17430       1   17406   17424   17442   17448       2
   17406   17424   17442   17451       2   17403   17382   17400   17415       4
   17403   17382   17400   17421       4   17400   17415   17394   17418       4
   17397   17379   17394   17415       4   17397   17379   17394   17418       4
   17394   17415   17400   17421       4   17391   17370   17385   17406       2
   17391   17370   17385   17409       1   17391   17370   17385   17412       1
   17388   17370   17385   17406       2   17388   17370   17385   17409       1
   17388   17370   17385   17412       1   17385   17406   17424   17436       2
   17385   17406   17424   17439       2   17382   17367   17379   17397       4
   17382   17400   17415   17433       4   17379   17367   17382   17403       4
   17379   17394   17415   17433       4   17376   17358   17370   17385       2
   17376   17358   17370   17388       1   17376   17358   17370   17391       1
   17373   17358   17370   17385       2   17373   17358   17370   17388       1
   17373   17358   17370   17391       1   17370   17385   17406   17427       2
   17370   17385   17406   17430       2   17367   17379   17394   17418       4
   17367   17382   17400   17421       4   17364   17340   17358   17370       2
   17364   17340   17358   17373       1   17364   17340   17358   17376       1
   17361   17340   17358   17370       2   17361   17340   17358   17373       1
   17361   17340   17358   17376       1   17358   17370   17385   17409       2
   17358   17370   17385   17412       2   17355   17331   17349   17367       4
   17352   17328   17349   17367       4   17349   17367   17379   17397       4
   17349   17367   17382   17403       4   17346   17322   17340   17358       2
   17346   17322   17340   17361       1   17346   17322   17340   17364       1
   17343   17322   17340   17358       2   17343   17322   17340   17361       1
   17343   17322   17340   17364       1   17340   17358   17370   17388       2
   17340   17358   17370   17391       2   17334   17316   17331   17349       4
   17334   17316   17331   17355       4   17331   17349   17328   17352       4
   17328   17349   17331   17355       4   17325   17310   17319   17337       4
   17322   17304   17319   17337       4   17322   17340   17358   17373       2
   17322   17340   17358   17376       2   17319   17304   17322   17343       7
   17319   17304   17322   17346       7   17313   17301   17316   17334       4
   17307   17292   17304   17319       4   17307   17292   17304   17322       4
   17304   17319   17310   17325       4   17304   17322   17340   17361       8
   17304   17322   17340   17364       8   17301   17313   17328   17352       4
   17301   17316   17331   17355       4   17298   17313   17328   17352       4
   17295   17283   17292   17307       4   17295   17310   17319   17337       4
   17292   17304   17319   17337       4   17292   17304   17322   17343       7
   17292   17304   17322   17346       7   17289   17301   17316   17334       4
   17286   17295   17310   17325       4   17283   17295   17310   17325       4
   17280   17283   17292   17307       4   17652   17637   17649   17655       1
   17652   17637   17649   17658       1   17652   17637   17649   17661       1
   17646   17637   17649   17655       1   17646   17637   17649   17658       1
   17646   17637   17649   17661       1   17643   17634   17637   17646       1
   17643   17634   17637   17649       2   17643   17634   17637   17652       1
   17640   17634   17637   17646       1   17640   17634   17637   17649       2
   17640   17634   17637   17652       1   17634   17637   17649   17655       2
   17634   17637   17649   17658       2   17634   17637   17649   17661       2
   17631   17616   17634   17637       2   17631   17616   17634   17640       1
   17631   17616   17634   17643       1   17628   17616   17634   17637       2
   17628   17616   17634   17640       1   17628   17616   17634   17643       1
   17622   17598   17616   17628       1   17622   17598   17616   17631       1
   17622   17598   17616   17634       2   17619   17598   17616   17628       1
   17619   17598   17616   17631       1   17619   17598   17616   17634       2
   17616   17634   17637   17646       2   17616   17634   17637   17652       2
   17613   17592   17607   17625       4   17610   17586   17607   17625       4
   17604   17577   17598   17616       2   17604   17577   17598   17619       1
   17604   17577   17598   17622       1   17601   17577   17598   17616       2
   17601   17577   17598   17619       1   17601   17577   17598   17622       1
   17598   17616   17634   17640       2   17598   17616   17634   17643       2
   17595   17574   17592   17607       4   17595   17574   17592   17613       4
   17592   17607   17586   17610       4   17589   17571   17586   17607       4
   17589   17571   17586   17610       4   17586   17607   17592   17613       4
   17583   17562   17577   17598       2   17583   17562   17577   17601       1
   17583   17562   17577   17604       1   17580   17562   17577   17598       2
   17580   17562   17577   17601       1   17580   17562   17577   17604       1
   17577   17598   17616   17628       2   17577   17598   17616   17631       2
   17574   17559   17571   17589       4   17574   17592   17607   17625       4
   17571   17559   17574   17595       4   17571   17586   17607   17625       4
   17568   17550   17562   17577       2   17568   17550   17562   17580       1
   17568   17550   17562   17583       1   17565   17550   17562   17577       2
   17565   17550   17562   17580       1   17565   17550   17562   17583       1
   17562   17577   17598   17619       2   17562   17577   17598   17622       2
   17559   17571   17586   17610       4   17559   17574   17592   17613       4
   17556   17532   17550   17562       2   17556   17532   17550   17565       1
   17556   17532   17550   17568       1   17553   17532   17550   17562       2
   17553   17532   17550   17565       1   17553   17532   17550   17568       1
   17550   17562   17577   17601       2   17550   17562   17577   17604       2
   17547   17523   17541   17559       4   17544   17520   17541   17559       4
   17541   17559   17571   17589       4   17541   17559   17574   17595       4
   17538   17514   17532   17550       2   17538   17514   17532   17553       1
   17538   17514   17532   17556       1   17535   17514   17532   17550       2
   17535   17514   17532   17553       1   17535   17514   17532   17556       1
   17532   17550   17562   17580       2   17532   17550   17562   17583       2
   17526   17508   17523   17541       4   17526   17508   17523   17547       4
   17523   17541   17520   17544       4   17520   17541   17523   17547       4
   17517   17502   17511   17529       4   17514   17496   17511   17529       4
   17514   17532   17550   17565       2   17514   17532   17550   17568       2
   17511   17496   17514   17535       7   17511   17496   17514   17538       7
   17505   17493   17508   17526       4   17499   17484   17496   17511       4
   17499   17484   17496   17514       4   17496   17511   17502   17517       4
   17496   17514   17532   17553       8   17496   17514   17532   17556       8
   17493   17505   17520   17544       4   17493   17508   17523   17547       4
   17490   17505   17520   17544       4   17487   17475   17484   17499       4
   17487   17502   17511   17529       4   17484   17496   17511   17529       4
   17484   17496   17514   17535       7   17484   17496   17514   17538       7
   17481   17493   17508   17526       4   17478   17487   17502   17517       4
   17475   17487   17502   17517       4   17472   17475   17484   17499       4
   17844   17829   17841   17847       1   17844   17829   17841   17850       1
   17844   17829   17841   17853       1   17838   17829   17841   17847       1
   17838   17829   17841   17850       1   17838   17829   17841   17853       1
   17835   17826   17829   17838       1   17835   17826   17829   17841       2
   17835   17826   17829   17844       1   17832   17826   17829   17838       1
   17832   17826   17829   17841       2   17832   17826   17829   17844       1
   17826   17829   17841   17847       2   17826   17829   17841   17850       2
   17826   17829   17841   17853       2   17823   17808   17826   17829       2
   17823   17808   17826   17832       1   17823   17808   17826   17835       1
   17820   17808   17826   17829       2   17820   17808   17826   17832       1
   17820   17808   17826   17835       1   17814   17790   17808   17820       1
   17814   17790   17808   17823       1   17814   17790   17808   17826       2
   17811   17790   17808   17820       1   17811   17790   17808   17823       1
   17811   17790   17808   17826       2   17808   17826   17829   17838       2
   17808   17826   17829   17844       2   17805   17784   17799   17817       4
   17802   17778   17799   17817       4   17796   17769   17790   17808       2
   17796   17769   17790   17811       1   17796   17769   17790   17814       1
   17793   17769   17790   17808       2   17793   17769   17790   17811       1
   17793   17769   17790   17814       1   17790   17808   17826   17832       2
   17790   17808   17826   17835       2   17787   17766   17784   17799       4
   17787   17766   17784   17805       4   17784   17799   17778   17802       4
   17781   17763   17778   17799       4   17781   17763   17778   17802       4
   17778   17799   17784   17805       4   17775   17754   17769   17790       2
   17775   17754   17769   17793       1   17775   17754   17769   17796       1
   17772   17754   17769   17790       2   17772   17754   17769   17793       1
   17772   17754   17769   17796       1   17769   17790   17808   17820       2
   17769   17790   17808   17823       2   17766   17751   17763   17781       4
   17766   17784   17799   17817       4   17763   17751   17766   17787       4
   17763   17778   17799   17817       4   17760   17742   17754   17769       2
   17760   17742   17754   17772       1   17760   17742   17754   17775       1
   17757   17742   17754   17769       2   17757   17742   17754   17772       1
   17757   17742   17754   17775       1   17754   17769   17790   17811       2
   17754   17769   17790   17814       2   17751   17763   17778   17802       4
   17751   17766   17784   17805       4   17748   17724   17742   17754       2
   17748   17724   17742   17757       1   17748   17724   17742   17760       1
   17745   17724   17742   17754       2   17745   17724   17742   17757       1
   17745   17724   17742   17760       1   17742   17754   17769   17793       2
   17742   17754   17769   17796       2   17739   17715   17733   17751       4
   17736   17712   17733   17751       4   17733   17751   17763   17781       4
   17733   17751   17766   17787       4   17730   17706   17724   17742       2
   17730   17706   17724   17745       1   17730   17706   17724   17748       1
   17727   17706   17724   17742       2   17727   17706   17724   17745       1
   17727   17706   17724   17748       1   17724   17742   17754   17772       2
   17724   17742   17754   17775       2   17718   17700   17715   17733       4
   17718   17700   17715   17739       4   17715   17733   17712   17736       4
   17712   17733   17715   17739       4   17709   17694   17703   17721       4
   17706   17688   17703   17721       4   17706   17724   17742   17757       2
   17706   17724   17742   17760       2   17703   17688   17706   17727       7
   17703   17688   17706   17730       7   17697   17685   17700   17718       4
   17691   17676   17688   17703       4   17691   17676   17688   17706       4
   17688   17703   17694   17709       4   17688   17706   17724   17745       8
   17688   17706   17724   17748       8   17685   17697   17712   17736       4
   17685   17700   17715   17739       4   17682   17697   17712   17736       4
   17679   17667   17676   17691       4   17679   17694   17703   17721       4
   17676   17688   17703   17721       4   17676   17688   17706   17727       7
   17676   17688   17706   17730       7   17673   17685   17700   17718       4
   17670   17679   17694   17709       4   17667   17679   17694   17709       4
   17664   17667   17676   17691       4   18036   18021   18033   18039       1
   18036   18021   18033   18042       1   18036   18021   18033   18045       1
   18030   18021   18033   18039       1   18030   18021   18033   18042       1
   18030   18021   18033   18045       1   18027   18018   18021   18030       1
   18027   18018   18021   18033       2   18027   18018   18021   18036       1
   18024   18018   18021   18030       1   18024   18018   18021   18033       2
   18024   18018   18021   18036       1   18018   18021   18033   18039       2
   18018   18021   18033   18042       2   18018   18021   18033   18045       2
   18015   18000   18018   18021       2   18015   18000   18018   18024       1
   18015   18000   18018   18027       1   18012   18000   18018   18021       2
   18012   18000   18018   18024       1   18012   18000   18018   18027       1
   18006   17982   18000   18012       1   18006   17982   18000   18015       1
   18006   17982   18000   18018       2   18003   17982   18000   18012       1
   18003   17982   18000   18015       1   18003   17982   18000   18018       2
   18000   18018   18021   18030       2   18000   18018   18021   18036       2
   17997   17976   17991   18009       4   17994   17970   17991   18009       4
   17988   17961   17982   18000       2   17988   17961   17982   18003       1
   17988   17961   17982   18006       1   17985   17961   17982   18000       2
   17985   17961   17982   18003       1   17985   17961   17982   18006       1
   17982   18000   18018   18024       2   17982   18000   18018   18027       2
   17979   17958   17976   17991       4   17979   17958   17976   17997       4
   17976   17991   17970   17994       4   17973   17955   17970   17991       4
   17973   17955   17970   17994       4   17970   17991   17976   17997       4
   17967   17946   17961   17982       2   17967   17946   17961   17985       1
   17967   17946   17961   17988       1   17964   17946   17961   17982       2
   17964   17946   17961   17985       1   17964   17946   17961   17988       1
   17961   17982   18000   18012       2   17961   17982   18000   18015       2
   17958   17943   17955   17973       4   17958   17976   17991   18009       4
   17955   17943   17958   17979       4   17955   17970   17991   18009       4
   17952   17934   17946   17961       2   17952   17934   17946   17964       1
   17952   17934   17946   17967       1   17949   17934   17946   17961       2
   17949   17934   17946   17964       1   17949   17934   17946   17967       1
   17946   17961   17982   18003       2   17946   17961   17982   18006       2
   17943   17955   17970   17994       4   17943   17958   17976   17997       4
   17940   17916   17934   17946       2   17940   17916   17934   17949       1
   17940   17916   17934   17952       1   17937   17916   17934   17946       2
   17937   17916   17934   17949       1   17937   17916   17934   17952       1
   17934   17946   17961   17985       2   17934   17946   17961   17988       2
   17931   17907   17925   17943       4   17928   17904   17925   17943       4
   17925   17943   17955   17973       4   17925   17943   17958   17979       4
   17922   17898   17916   17934       2   17922   17898   17916   17937       1
   17922   17898   17916   17940       1   17919   17898   17916   17934       2
   17919   17898   17916   17937       1   17919   17898   17916   17940       1
   17916   17934   17946   17964       2   17916   17934   17946   17967       2
   17910   17892   17907   17925       4   17910   17892   17907   17931       4
   17907   17925   17904   17928       4   17904   17925   17907   17931       4
   17901   17886   17895   17913       4   17898   17880   17895   17913       4
   17898   17916   17934   17949       2   17898   17916   17934   17952       2
   17895   17880   17898   17919       7   17895   17880   17898   17922       7
   17889   17877   17892   17910       4   17883   17868   17880   17895       4
   17883   17868   17880   17898       4   17880   17895   17886   17901       4
   17880   17898   17916   17937       8   17880   17898   17916   17940       8
   17877   17889   17904   17928       4   17877   17892   17907   17931       4
   17874   17889   17904   17928       4   17871   17859   17868   17883       4
   17871   17886   17895   17913       4   17868   17880   17895   17913       4
   17868   17880   17898   17919       7   17868   17880   17898   17922       7
   17865   17877   17892   17910       4   17862   17871   17886   17901       4
   17859   17871   17886   17901       4   17856   17859   17868   17883       4
   18228   18213   18225   18231       1   18228   18213   18225   18234       1
   18228   18213   18225   18237       1   18222   18213   18225   18231       1
   18222   18213   18225   18234       1   18222   18213   18225   18237       1
   18219   18210   18213   18222       1   18219   18210   18213   18225       2
   18219   18210   18213   18228       1   18216   18210   18213   18222       1
   18216   18210   18213   18225       2   18216   18210   18213   18228       1
   18210   18213   18225   18231       2   18210   18213   18225   18234       2
   18210   18213   18225   18237       2   18207   18192   18210   18213       2
   18207   18192   18210   18216       1   18207   18192   18210   18219       1
   18204   18192   18210   18213       2   18204   18192   18210   18216       1
   18204   18192   18210   18219       1   18198   18174   18192   18204       1
   18198   18174   18192   18207       1   18198   18174   18192   18210       2
   18195   18174   18192   18204       1   18195   18174   18192   18207       1
   18195   18174   18192   18210       2   18192   18210   18213   18222       2
   18192   18210   18213   18228       2   18189   18168   18183   18201       4
   18186   18162   18183   18201       4   18180   18153   18174   18192       2
   18180   18153   18174   18195       1   18180   18153   18174   18198       1
   18177   18153   18174   18192       2   18177   18153   18174   18195       1
   18177   18153   18174   18198       1   18174   18192   18210   18216       2
   18174   18192   18210   18219       2   18171   18150   18168   18183       4
   18171   18150   18168   18189       4   18168   18183   18162   18186       4
   18165   18147   18162   18183       4   18165   18147   18162   18186       4
   18162   18183   18168   18189       4   18159   18138   18153   18174       2
   18159   18138   18153   18177       1   18159   18138   18153   18180       1
   18156   18138   18153   18174       2   18156   18138   18153   18177       1
   18156   18138   18153   18180       1   18153   18174   18192   18204       2
   18153   18174   18192   18207       2   18150   18135   18147   18165       4
   18150   18168   18183   18201       4   18147   18135   18150   18171       4
   18147   18162   18183   18201       4   18144   18126   18138   18153       2
   18144   18126   18138   18156       1   18144   18126   18138   18159       1
   18141   18126   18138   18153       2   18141   18126   18138   18156       1
   18141   18126   18138   18159       1   18138   18153   18174   18195       2
   18138   18153   18174   18198       2   18135   18147   18162   18186       4
   18135   18150   18168   18189       4   18132   18108   18126   18138       2
   18132   18108   18126   18141       1   18132   18108   18126   18144       1
   18129   18108   18126   18138       2   18129   18108   18126   18141       1
   18129   18108   18126   18144       1   18126   18138   18153   18177       2
   18126   18138   18153   18180       2   18123   18099   18117   18135       4
   18120   18096   18117   18135       4   18117   18135   18147   18165       4
   18117   18135   18150   18171       4   18114   18090   18108   18126       2
   18114   18090   18108   18129       1   18114   18090   18108   18132       1
   18111   18090   18108   18126       2   18111   18090   18108   18129       1
   18111   18090   18108   18132       1   18108   18126   18138   18156       2
   18108   18126   18138   18159       2   18102   18084   18099   18117       4
   18102   18084   18099   18123       4   18099   18117   18096   18120       4
   18096   18117   18099   18123       4   18093   18078   18087   18105       4
   18090   18072   18087   18105       4   18090   18108   18126   18141       2
   18090   18108   18126   18144       2   18087   18072   18090   18111       7
   18087   18072   18090   18114       7   18081   18069   18084   18102       4
   18075   18060   18072   18087       4   18075   18060   18072   18090       4
   18072   18087   18078   18093       4   18072   18090   18108   18129       8
   18072   18090   18108   18132       8   18069   18081   18096   18120       4
   18069   18084   18099   18123       4   18066   18081   18096   18120       4
   18063   18051   18060   18075       4   18063   18078   18087   18105       4
   18060   18072   18087   18105       4   18060   18072   18090   18111       7
   18060   18072   18090   18114       7   18057   18069   18084   18102       4
   18054   18063   18078   18093       4   18051   18063   18078   18093       4
   18048   18051   18060   18075       4   18420   18405   18417   18423       1
   18420   18405   18417   18426       1   18420   18405   18417   18429       1
   18414   18405   18417   18423       1   18414   18405   18417   18426       1
   18414   18405   18417   18429       1   18411   18402   18405   18414       1
   18411   18402   18405   18417       2   18411   18402   18405   18420       1
   18408   18402   18405   18414       1   18408   18402   18405   18417       2
   18408   18402   18405   18420       1   18402   18405   18417   18423       2
   18402   18405   18417   18426       2   18402   18405   18417   18429       2
   18399   18384   18402   18405       2   18399   18384   18402   18408       1
   18399   18384   18402   18411       1   18396   18384   18402   18405       2
   18396   18384   18402   18408       1   18396   18384   18402   18411       1
   18390   18366   18384   18396       1   18390   18366   18384   18399       1
   18390   18366   18384   18402       2   18387   18366   18384   18396       1
   18387   18366   18384   18399       1   18387   18366   18384   18402       2
   18384   18402   18405   18414       2   18384   18402   18405   18420       2
   18381   18360   18375   18393       4   18378   18354   18375   18393       4
   18372   18345   18366   18384       2   18372   18345   18366   18387       1
   18372   18345   18366   18390       1   18369   18345   18366   18384       2
   18369   18345   18366   18387       1   18369   18345   18366   18390       1
   18366   18384   18402   18408       2   18366   18384   18402   18411       2
   18363   18342   18360   18375       4   18363   18342   18360   18381       4
   18360   18375   18354   18378       4   18357   18339   18354   18375       4
   18357   18339   18354   18378       4   18354   18375   18360   18381       4
   18351   18330   18345   18366       2   18351   18330   18345   18369       1
   18351   18330   18345   18372       1   18348   18330   18345   18366       2
   18348   18330   18345   18369       1   18348   18330   18345   18372       1
   18345   18366   18384   18396       2   18345   18366   18384   18399       2
   18342   18327   18339   18357       4   18342   18360   18375   18393       4
   18339   18327   18342   18363       4   18339   18354   18375   18393       4
   18336   18318   18330   18345       2   18336   18318   18330   18348       1
   18336   18318   18330   18351       1   18333   18318   18330   18345       2
   18333   18318   18330   18348       1   18333   18318   18330   18351       1
   18330   18345   18366   18387       2   18330   18345   18366   18390       2
   18327   18339   18354   18378       4   18327   18342   18360   18381       4
   18324   18300   18318   18330       2   18324   18300   18318   18333       1
   18324   18300   18318   18336       1   18321   18300   18318   18330       2
   18321   18300   18318   18333       1   18321   18300   18318   18336       1
   18318   18330   18345   18369       2   18318   18330   18345   18372       2
   18315   18291   18309   18327       4   18312   18288   18309   18327       4
   18309   18327   18339   18357       4   18309   18327   18342   18363       4
   18306   18282   18300   18318       2   18306   18282   18300   18321       1
   18306   18282   18300   18324       1   18303   18282   18300   18318       2
   18303   18282   18300   18321       1   18303   18282   18300   18324       1
   18300   18318   18330   18348       2   18300   18318   18330   18351       2
   18294   18276   18291   18309       4   18294   18276   18291   18315       4
   18291   18309   18288   18312       4   18288   18309   18291   18315       4
   18285   18270   18279   18297       4   18282   18264   18279   18297       4
   18282   18300   18318   18333       2   18282   18300   18318   18336       2
   18279   18264   18282   18303       7   18279   18264   18282   18306       7
   18273   18261   18276   18294       4   18267   18252   18264   18279       4
   18267   18252   18264   18282       4   18264   18279   18270   18285       4
   18264   18282   18300   18321       8   18264   18282   18300   18324       8
   18261   18273   18288   18312       4   18261   18276   18291   18315       4
   18258   18273   18288   18312       4   18255   18243   18252   18267       4
   18255   18270   18279   18297       4   18252   18264   18279   18297       4
   18252   18264   18282   18303       7   18252   18264   18282   18306       7
   18249   18261   18276   18294       4   18246   18255   18270   18285       4
   18243   18255   18270   18285       4   18240   18243   18252   18267       4
   18612   18597   18609   18615       1   18612   18597   18609   18618       1
   18612   18597   18609   18621       1   18606   18597   18609   18615       1
   18606   18597   18609   18618       1   18606   18597   18609   18621       1
   18603   18594   18597   18606       1   18603   18594   18597   18609       2
   18603   18594   18597   18612       1   18600   18594   18597   18606       1
   18600   18594   18597   18609       2   18600   18594   18597   18612       1
   18594   18597   18609   18615       2   18594   18597   18609   18618       2
   18594   18597   18609   18621       2   18591   18576   18594   18597       2
   18591   18576   18594   18600       1   18591   18576   18594   18603       1
   18588   18576   18594   18597       2   18588   18576   18594   18600       1
   18588   18576   18594   18603       1   18582   18558   18576   18588       1
   18582   18558   18576   18591       1   18582   18558   18576   18594       2
   18579   18558   18576   18588       1   18579   18558   18576   18591       1
   18579   18558   18576   18594       2   18576   18594   18597   18606       2
   18576   18594   18597   18612       2   18573   18552   18567   18585       4
   18570   18546   18567   18585       4   18564   18537   18558   18576       2
   18564   18537   18558   18579       1   18564   18537   18558   18582       1
   18561   18537   18558   18576       2   18561   18537   18558   18579       1
   18561   18537   18558   18582       1   18558   18576   18594   18600       2
   18558   18576   18594   18603       2   18555   18534   18552   18567       4
   18555   18534   18552   18573       4   18552   18567   18546   18570       4
   18549   18531   18546   18567       4   18549   18531   18546   18570       4
   18546   18567   18552   18573       4   18543   18522   18537   18558       2
   18543   18522   18537   18561       1   18543   18522   18537   18564       1
   18540   18522   18537   18558       2   18540   18522   18537   18561       1
   18540   18522   18537   18564       1   18537   18558   18576   18588       2
   18537   18558   18576   18591       2   18534   18519   18531   18549       4
   18534   18552   18567   18585       4   18531   18519   18534   18555       4
   18531   18546   18567   18585       4   18528   18510   18522   18537       2
   18528   18510   18522   18540       1   18528   18510   18522   18543       1
   18525   18510   18522   18537       2   18525   18510   18522   18540       1
   18525   18510   18522   18543       1   18522   18537   18558   18579       2
   18522   18537   18558   18582       2   18519   18531   18546   18570       4
   18519   18534   18552   18573       4   18516   18492   18510   18522       2
   18516   18492   18510   18525       1   18516   18492   18510   18528       1
   18513   18492   18510   18522       2   18513   18492   18510   18525       1
   18513   18492   18510   18528       1   18510   18522   18537   18561       2
   18510   18522   18537   18564       2   18507   18483   18501   18519       4
   18504   18480   18501   18519       4   18501   18519   18531   18549       4
   18501   18519   18534   18555       4   18498   18474   18492   18510       2
   18498   18474   18492   18513       1   18498   18474   18492   18516       1
   18495   18474   18492   18510       2   18495   18474   18492   18513       1
   18495   18474   18492   18516       1   18492   18510   18522   18540       2
   18492   18510   18522   18543       2   18486   18468   18483   18501       4
   18486   18468   18483   18507       4   18483   18501   18480   18504       4
   18480   18501   18483   18507       4   18477   18462   18471   18489       4
   18474   18456   18471   18489       4   18474   18492   18510   18525       2
   18474   18492   18510   18528       2   18471   18456   18474   18495       7
   18471   18456   18474   18498       7   18465   18453   18468   18486       4
   18459   18444   18456   18471       4   18459   18444   18456   18474       4
   18456   18471   18462   18477       4   18456   18474   18492   18513       8
   18456   18474   18492   18516       8   18453   18465   18480   18504       4
   18453   18468   18483   18507       4   18450   18465   18480   18504       4
   18447   18435   18444   18459       4   18447   18462   18471   18489       4
   18444   18456   18471   18489       4   18444   18456   18474   18495       7
   18444   18456   18474   18498       7   18441   18453   18468   18486       4
   18438   18447   18462   18477       4   18435   18447   18462   18477       4
   18432   18435   18444   18459       4   18804   18789   18801   18807       1
   18804   18789   18801   18810       1   18804   18789   18801   18813       1
   18798   18789   18801   18807       1   18798   18789   18801   18810       1
   18798   18789   18801   18813       1   18795   18786   18789   18798       1
   18795   18786   18789   18801       2   18795   18786   18789   18804       1
   18792   18786   18789   18798       1   18792   18786   18789   18801       2
   18792   18786   18789   18804       1   18786   18789   18801   18807       2
   18786   18789   18801   18810       2   18786   18789   18801   18813       2
   18783   18768   18786   18789       2   18783   18768   18786   18792       1
   18783   18768   18786   18795       1   18780   18768   18786   18789       2
   18780   18768   18786   18792       1   18780   18768   18786   18795       1
   18774   18750   18768   18780       1   18774   18750   18768   18783       1
   18774   18750   18768   18786       2   18771   18750   18768   18780       1
   18771   18750   18768   18783       1   18771   18750   18768   18786       2
   18768   18786   18789   18798       2   18768   18786   18789   18804       2
   18765   18744   18759   18777       4   18762   18738   18759   18777       4
   18756   18729   18750   18768       2   18756   18729   18750   18771       1
   18756   18729   18750   18774       1   18753   18729   18750   18768       2
   18753   18729   18750   18771       1   18753   18729   18750   18774       1
   18750   18768   18786   18792       2   18750   18768   18786   18795       2
   18747   18726   18744   18759       4   18747   18726   18744   18765       4
   18744   18759   18738   18762       4   18741   18723   18738   18759       4
   18741   18723   18738   18762       4   18738   18759   18744   18765       4
   18735   18714   18729   18750       2   18735   18714   18729   18753       1
   18735   18714   18729   18756       1   18732   18714   18729   18750       2
   18732   18714   18729   18753       1   18732   18714   18729   18756       1
   18729   18750   18768   18780       2   18729   18750   18768   18783       2
   18726   18711   18723   18741       4   18726   18744   18759   18777       4
   18723   18711   18726   18747       4   18723   18738   18759   18777       4
   18720   18702   18714   18729       2   18720   18702   18714   18732       1
   18720   18702   18714   18735       1   18717   18702   18714   18729       2
   18717   18702   18714   18732       1   18717   18702   18714   18735       1
   18714   18729   18750   18771       2   18714   18729   18750   18774       2
   18711   18723   18738   18762       4   18711   18726   18744   18765       4
   18708   18684   18702   18714       2   18708   18684   18702   18717       1
   18708   18684   18702   18720       1   18705   18684   18702   18714       2
   18705   18684   18702   18717       1   18705   18684   18702   18720       1
   18702   18714   18729   18753       2   18702   18714   18729   18756       2
   18699   18675   18693   18711       4   18696   18672   18693   18711       4
   18693   18711   18723   18741       4   18693   18711   18726   18747       4
   18690   18666   18684   18702       2   18690   18666   18684   18705       1
   18690   18666   18684   18708       1   18687   18666   18684   18702       2
   18687   18666   18684   18705       1   18687   18666   18684   18708       1
   18684   18702   18714   18732       2   18684   18702   18714   18735       2
   18678   18660   18675   18693       4   18678   18660   18675   18699       4
   18675   18693   18672   18696       4   18672   18693   18675   18699       4
   18669   18654   18663   18681       4   18666   18648   18663   18681       4
   18666   18684   18702   18717       2   18666   18684   18702   18720       2
   18663   18648   18666   18687       7   18663   18648   18666   18690       7
   18657   18645   18660   18678       4   18651   18636   18648   18663       4
   18651   18636   18648   18666       4   18648   18663   18654   18669       4
   18648   18666   18684   18705       8   18648   18666   18684   18708       8
   18645   18657   18672   18696       4   18645   18660   18675   18699       4
   18642   18657   18672   18696       4   18639   18627   18636   18651       4
   18639   18654   18663   18681       4   18636   18648   18663   18681       4
   18636   18648   18666   18687       7   18636   18648   18666   18690       7
   18633   18645   18660   18678       4   18630   18639   18654   18669       4
   18627   18639   18654   18669       4   18624   18627   18636   18651       4
   18996   18981   18993   18999       1   18996   18981   18993   19002       1
   18996   18981   18993   19005       1   18990   18981   18993   18999       1
   18990   18981   18993   19002       1   18990   18981   18993   19005       1
   18987   18978   18981   18990       1   18987   18978   18981   18993       2
   18987   18978   18981   18996       1   18984   18978   18981   18990       1
   18984   18978   18981   18993       2   18984   18978   18981   18996       1
   18978   18981   18993   18999       2   18978   18981   18993   19002       2
   18978   18981   18993   19005       2   18975   18960   18978   18981       2
   18975   18960   18978   18984       1   18975   18960   18978   18987       1
   18972   18960   18978   18981       2   18972   18960   18978   18984       1
   18972   18960   18978   18987       1   18966   18942   18960   18972       1
   18966   18942   18960   18975       1   18966   18942   18960   18978       2
   18963   18942   18960   18972       1   18963   18942   18960   18975       1
   18963   18942   18960   18978       2   18960   18978   18981   18990       2
   18960   18978   18981   18996       2   18957   18936   18951   18969       4
   18954   18930   18951   18969       4   18948   18921   18942   18960       2
   18948   18921   18942   18963       1   18948   18921   18942   18966       1
   18945   18921   18942   18960       2   18945   18921   18942   18963       1
   18945   18921   18942   18966       1   18942   18960   18978   18984       2
   18942   18960   18978   18987       2   18939   18918   18936   18951       4
   18939   18918   18936   18957       4   18936   18951   18930   18954       4
   18933   18915   18930   18951       4   18933   18915   18930   18954       4
   18930   18951   18936   18957       4   18927   18906   18921   18942       2
   18927   18906   18921   18945       1   18927   18906   18921   18948       1
   18924   18906   18921   18942       2   18924   18906   18921   18945       1
   18924   18906   18921   18948       1   18921   18942   18960   18972       2
   18921   18942   18960   18975       2   18918   18903   18915   18933       4
   18918   18936   18951   18969       4   18915   18903   18918   18939       4
   18915   18930   18951   18969       4   18912   18894   18906   18921       2
   18912   18894   18906   18924       1   18912   18894   18906   18927       1
   18909   18894   18906   18921       2   18909   18894   18906   18924       1
   18909   18894   18906   18927       1   18906   18921   18942   18963       2
   18906   18921   18942   18966       2   18903   18915   18930   18954       4
   18903   18918   18936   18957       4   18900   18876   18894   18906       2
   18900   18876   18894   18909       1   18900   18876   18894   18912       1
   18897   18876   18894   18906       2   18897   18876   18894   18909       1
   18897   18876   18894   18912       1   18894   18906   18921   18945       2
   18894   18906   18921   18948       2   18891   18867   18885   18903       4
   18888   18864   18885   18903       4   18885   18903   18915   18933       4
   18885   18903   18918   18939       4   18882   18858   18876   18894       2
   18882   18858   18876   18897       1   18882   18858   18876   18900       1
   18879   18858   18876   18894       2   18879   18858   18876   18897       1
   18879   18858   18876   18900       1   18876   18894   18906   18924       2
   18876   18894   18906   18927       2   18870   18852   18867   18885       4
   18870   18852   18867   18891       4   18867   18885   18864   18888       4
   18864   18885   18867   18891       4   18861   18846   18855   18873       4
   18858   18840   18855   18873       4   18858   18876   18894   18909       2
   18858   18876   18894   18912       2   18855   18840   18858   18879       7
   18855   18840   18858   18882       7   18849   18837   18852   18870       4
   18843   18828   18840   18855       4   18843   18828   18840   18858       4
   18840   18855   18846   18861       4   18840   18858   18876   18897       8
   18840   18858   18876   18900       8   18837   18849   18864   18888       4
   18837   18852   18867   18891       4   18834   18849   18864   18888       4
   18831   18819   18828   18843       4   18831   18846   18855   18873       4
   18828   18840   18855   18873       4   18828   18840   18858   18879       7
   18828   18840   18858   18882       7   18825   18837   18852   18870       4
   18822   18831   18846   18861       4   18819   18831   18846   18861       4
   18816   18819   18828   18843       4   19188   19173   19185   19191       1
   19188   19173   19185   19194       1   19188   19173   19185   19197       1
   19182   19173   19185   19191       1   19182   19173   19185   19194       1
   19182   19173   19185   19197       1   19179   19170   19173   19182       1
   19179   19170   19173   19185       2   19179   19170   19173   19188       1
   19176   19170   19173   19182       1   19176   19170   19173   19185       2
   19176   19170   19173   19188       1   19170   19173   19185   19191       2
   19170   19173   19185   19194       2   19170   19173   19185   19197       2
   19167   19152   19170   19173       2   19167   19152   19170   19176       1
   19167   19152   19170   19179       1   19164   19152   19170   19173       2
   19164   19152   19170   19176       1   19164   19152   19170   19179       1
   19158   19134   19152   19164       1   19158   19134   19152   19167       1
   19158   19134   19152   19170       2   19155   19134   19152   19164       1
   19155   19134   19152   19167       1   19155   19134   19152   19170       2
   19152   19170   19173   19182       2   19152   19170   19173   19188       2
   19149   19128   19143   19161       4   19146   19122   19143   19161       4
   19140   19113   19134   19152       2   19140   19113   19134   19155       1
   19140   19113   19134   19158       1   19137   19113   19134   19152       2
   19137   19113   19134   19155       1   19137   19113   19134   19158       1
   19134   19152   19170   19176       2   19134   19152   19170   19179       2
   19131   19110   19128   19143       4   19131   19110   19128   19149       4
   19128   19143   19122   19146       4   19125   19107   19122   19143       4
   19125   19107   19122   19146       4   19122   19143   19128   19149       4
   19119   19098   19113   19134       2   19119   19098   19113   19137       1
   19119   19098   19113   19140       1   19116   19098   19113   19134       2
   19116   19098   19113   19137       1   19116   19098   19113   19140       1
   19113   19134   19152   19164       2   19113   19134   19152   19167       2
   19110   19095   19107   19125       4   19110   19128   19143   19161       4
   19107   19095   19110   19131       4   19107   19122   19143   19161       4
   19104   19086   19098   19113       2   19104   19086   19098   19116       1
   19104   19086   19098   19119       1   19101   19086   19098   19113       2
   19101   19086   19098   19116       1   19101   19086   19098   19119       1
   19098   19113   19134   19155       2   19098   19113   19134   19158       2
   19095   19107   19122   19146       4   19095   19110   19128   19149       4
   19092   19068   19086   19098       2   19092   19068   19086   19101       1
   19092   19068   19086   19104       1   19089   19068   19086   19098       2
   19089   19068   19086   19101       1   19089   19068   19086   19104       1
   19086   19098   19113   19137       2   19086   19098   19113   19140       2
   19083   19059   19077   19095       4   19080   19056   19077   19095       4
   19077   19095   19107   19125       4   19077   19095   19110   19131       4
   19074   19050   19068   19086       2   19074   19050   19068   19089       1
   19074   19050   19068   19092       1   19071   19050   19068   19086       2
   19071   19050   19068   19089       1   19071   19050   19068   19092       1
   19068   19086   19098   19116       2   19068   19086   19098   19119       2
   19062   19044   19059   19077       4   19062   19044   19059   19083       4
   19059   19077   19056   19080       4   19056   19077   19059   19083       4
   19053   19038   19047   19065       4   19050   19032   19047   19065       4
   19050   19068   19086   19101       2   19050   19068   19086   19104       2
   19047   19032   19050   19071       7   19047   19032   19050   19074       7
   19041   19029   19044   19062       4   19035   19020   19032   19047       4
   19035   19020   19032   19050       4   19032   19047   19038   19053       4
   19032   19050   19068   19089       8   19032   19050   19068   19092       8
   19029   19041   19056   19080       4   19029   19044   19059   19083       4
   19026   19041   19056   19080       4   19023   19011   19020   19035       4
   19023   19038   19047   19065       4   19020   19032   19047   19065       4
   19020   19032   19050   19071       7   19020   19032   19050   19074       7
   19017   19029   19044   19062       4   19014   19023   19038   19053       4
   19011   19023   19038   19053       4   19008   19011   19020   19035       4
   19380   19365   19377   19383       1   19380   19365   19377   19386       1
   19380   19365   19377   19389       1   19374   19365   19377   19383       1
   19374   19365   19377   19386       1   19374   19365   19377   19389       1
   19371   19362   19365   19374       1   19371   19362   19365   19377       2
   19371   19362   19365   19380       1   19368   19362   19365   19374       1
   19368   19362   19365   19377       2   19368   19362   19365   19380       1
   19362   19365   19377   19383       2   19362   19365   19377   19386       2
   19362   19365   19377   19389       2   19359   19344   19362   19365       2
   19359   19344   19362   19368       1   19359   19344   19362   19371       1
   19356   19344   19362   19365       2   19356   19344   19362   19368       1
   19356   19344   19362   19371       1   19350   19326   19344   19356       1
   19350   19326   19344   19359       1   19350   19326   19344   19362       2
   19347   19326   19344   19356       1   19347   19326   19344   19359       1
   19347   19326   19344   19362       2   19344   19362   19365   19374       2
   19344   19362   19365   19380       2   19341   19320   19335   19353       4
   19338   19314   19335   19353       4   19332   19305   19326   19344       2
   19332   19305   19326   19347       1   19332   19305   19326   19350       1
   19329   19305   19326   19344       2   19329   19305   19326   19347       1
   19329   19305   19326   19350       1   19326   19344   19362   19368       2
   19326   19344   19362   19371       2   19323   19302   19320   19335       4
   19323   19302   19320   19341       4   19320   19335   19314   19338       4
   19317   19299   19314   19335       4   19317   19299   19314   19338       4
   19314   19335   19320   19341       4   19311   19290   19305   19326       2
   19311   19290   19305   19329       1   19311   19290   19305   19332       1
   19308   19290   19305   19326       2   19308   19290   19305   19329       1
   19308   19290   19305   19332       1   19305   19326   19344   19356       2
   19305   19326   19344   19359       2   19302   19287   19299   19317       4
   19302   19320   19335   19353       4   19299   19287   19302   19323       4
   19299   19314   19335   19353       4   19296   19278   19290   19305       2
   19296   19278   19290   19308       1   19296   19278   19290   19311       1
   19293   19278   19290   19305       2   19293   19278   19290   19308       1
   19293   19278   19290   19311       1   19290   19305   19326   19347       2
   19290   19305   19326   19350       2   19287   19299   19314   19338       4
   19287   19302   19320   19341       4   19284   19260   19278   19290       2
   19284   19260   19278   19293       1   19284   19260   19278   19296       1
   19281   19260   19278   19290       2   19281   19260   19278   19293       1
   19281   19260   19278   19296       1   19278   19290   19305   19329       2
   19278   19290   19305   19332       2   19275   19251   19269   19287       4
   19272   19248   19269   19287       4   19269   19287   19299   19317       4
   19269   19287   19302   19323       4   19266   19242   19260   19278       2
   19266   19242   19260   19281       1   19266   19242   19260   19284       1
   19263   19242   19260   19278       2   19263   19242   19260   19281       1
   19263   19242   19260   19284       1   19260   19278   19290   19308       2
   19260   19278   19290   19311       2   19254   19236   19251   19269       4
   19254   19236   19251   19275       4   19251   19269   19248   19272       4
   19248   19269   19251   19275       4   19245   19230   19239   19257       4
   19242   19224   19239   19257       4   19242   19260   19278   19293       2
   19242   19260   19278   19296       2   19239   19224   19242   19263       7
   19239   19224   19242   19266       7   19233   19221   19236   19254       4
   19227   19212   19224   19239       4   19227   19212   19224   19242       4
   19224   19239   19230   19245       4   19224   19242   19260   19281       8
   19224   19242   19260   19284       8   19221   19233   19248   19272       4
   19221   19236   19251   19275       4   19218   19233   19248   19272       4
   19215   19203   19212   19227       4   19215   19230   19239   19257       4
   19212   19224   19239   19257       4   19212   19224   19242   19263       7
   19212   19224   19242   19266       7   19209   19221   19236   19254       4
   19206   19215   19230   19245       4   19203   19215   19230   19245       4
   19200   19203   19212   19227       4   19572   19557   19569   19575       1
   19572   19557   19569   19578       1   19572   19557   19569   19581       1
   19566   19557   19569   19575       1   19566   19557   19569   19578       1
   19566   19557   19569   19581       1   19563   19554   19557   19566       1
   19563   19554   19557   19569       2   19563   19554   19557   19572       1
   19560   19554   19557   19566       1   19560   19554   19557   19569       2
   19560   19554   19557   19572       1   19554   19557   19569   19575       2
   19554   19557   19569   19578       2   19554   19557   19569   19581       2
   19551   19536   19554   19557       2   19551   19536   19554   19560       1
   19551   19536   19554   19563       1   19548   19536   19554   19557       2
   19548   19536   19554   19560       1   19548   19536   19554   19563       1
   19542   19518   19536   19548       1   19542   19518   19536   19551       1
   19542   19518   19536   19554       2   19539   19518   19536   19548       1
   19539   19518   19536   19551       1   19539   19518   19536   19554       2
   19536   19554   19557   19566       2   19536   19554   19557   19572       2
   19533   19512   19527   19545       4   19530   19506   19527   19545       4
   19524   19497   19518   19536       2   19524   19497   19518   19539       1
   19524   19497   19518   19542       1   19521   19497   19518   19536       2
   19521   19497   19518   19539       1   19521   19497   19518   19542       1
   19518   19536   19554   19560       2   19518   19536   19554   19563       2
   19515   19494   19512   19527       4   19515   19494   19512   19533       4
   19512   19527   19506   19530       4   19509   19491   19506   19527       4
   19509   19491   19506   19530       4   19506   19527   19512   19533       4
   19503   19482   19497   19518       2   19503   19482   19497   19521       1
   19503   19482   19497   19524       1   19500   19482   19497   19518       2
   19500   19482   19497   19521       1   19500   19482   19497   19524       1
   19497   19518   19536   19548       2   19497   19518   19536   19551       2
   19494   19479   19491   19509       4   19494   19512   19527   19545       4
   19491   19479   19494   19515       4   19491   19506   19527   19545       4
   19488   19470   19482   19497       2   19488   19470   19482   19500       1
   19488   19470   19482   19503       1   19485   19470   19482   19497       2
   19485   19470   19482   19500       1   19485   19470   19482   19503       1
   19482   19497   19518   19539       2   19482   19497   19518   19542       2
   19479   19491   19506   19530       4   19479   19494   19512   19533       4
   19476   19452   19470   19482       2   19476   19452   19470   19485       1
   19476   19452   19470   19488       1   19473   19452   19470   19482       2
   19473   19452   19470   19485       1   19473   19452   19470   19488       1
   19470   19482   19497   19521       2   19470   19482   19497   19524       2
   19467   19443   19461   19479       4   19464   19440   19461   19479       4
   19461   19479   19491   19509       4   19461   19479   19494   19515       4
   19458   19434   19452   19470       2   19458   19434   19452   19473       1
   19458   19434   19452   19476       1   19455   19434   19452   19470       2
   19455   19434   19452   19473       1   19455   19434   19452   19476       1
   19452   19470   19482   19500       2   19452   19470   19482   19503       2
   19446   19428   19443   19461       4   19446   19428   19443   19467       4
   19443   19461   19440   19464       4   19440   19461   19443   19467       4
   19437   19422   19431   19449       4   19434   19416   19431   19449       4
   19434   19452   19470   19485       2   19434   19452   19470   19488       2
   19431   19416   19434   19455       7   19431   19416   19434   19458       7
   19425   19413   19428   19446       4   19419   19404   19416   19431       4
   19419   19404   19416   19434       4   19416   19431   19422   19437       4
   19416   19434   19452   19473       8   19416   19434   19452   19476       8
   19413   19425   19440   19464       4   19413   19428   19443   19467       4
   19410   19425   19440   19464       4   19407   19395   19404   19419       4
   19407   19422   19431   19449       4   19404   19416   19431   19449       4
   19404   19416   19434   19455       7   19404   19416   19434   19458       7
   19401   19413   19428   19446       4   19398   19407   19422   19437       4
   19395   19407   19422   19437       4   19392   19395   19404   19419       4
   19764   19749   19761   19767       1   19764   19749   19761   19770       1
   19764   19749   19761   19773       1   19758   19749   19761   19767       1
   19758   19749   19761   19770       1   19758   19749   19761   19773       1
   19755   19746   19749   19758       1   19755   19746   19749   19761       2
   19755   19746   19749   19764       1   19752   19746   19749   19758       1
   19752   19746   19749   19761       2   19752   19746   19749   19764       1
   19746   19749   19761   19767       2   19746   19749   19761   19770       2
   19746   19749   19761   19773       2   19743   19728   19746   19749       2
   19743   19728   19746   19752       1   19743   19728   19746   19755       1
   19740   19728   19746   19749       2   19740   19728   19746   19752       1
   19740   19728   19746   19755       1   19734   19710   19728   19740       1
   19734   19710   19728   19743       1   19734   19710   19728   19746       2
   19731   19710   19728   19740       1   19731   19710   19728   19743       1
   19731   19710   19728   19746       2   19728   19746   19749   19758       2
   19728   19746   19749   19764       2   19725   19704   19719   19737       4
   19722   19698   19719   19737       4   19716   19689   19710   19728       2
   19716   19689   19710   19731       1   19716   19689   19710   19734       1
   19713   19689   19710   19728       2   19713   19689   19710   19731       1
   19713   19689   19710   19734       1   19710   19728   19746   19752       2
   19710   19728   19746   19755       2   19707   19686   19704   19719       4
   19707   19686   19704   19725       4   19704   19719   19698   19722       4
   19701   19683   19698   19719       4   19701   19683   19698   19722       4
   19698   19719   19704   19725       4   19695   19674   19689   19710       2
   19695   19674   19689   19713       1   19695   19674   19689   19716       1
   19692   19674   19689   19710       2   19692   19674   19689   19713       1
   19692   19674   19689   19716       1   19689   19710   19728   19740       2
   19689   19710   19728   19743       2   19686   19671   19683   19701       4
   19686   19704   19719   19737       4   19683   19671   19686   19707       4
   19683   19698   19719   19737       4   19680   19662   19674   19689       2
   19680   19662   19674   19692       1   19680   19662   19674   19695       1
   19677   19662   19674   19689       2   19677   19662   19674   19692       1
   19677   19662   19674   19695       1   19674   19689   19710   19731       2
   19674   19689   19710   19734       2   19671   19683   19698   19722       4
   19671   19686   19704   19725       4   19668   19644   19662   19674       2
   19668   19644   19662   19677       1   19668   19644   19662   19680       1
   19665   19644   19662   19674       2   19665   19644   19662   19677       1
   19665   19644   19662   19680       1   19662   19674   19689   19713       2
   19662   19674   19689   19716       2   19659   19635   19653   19671       4
   19656   19632   19653   19671       4   19653   19671   19683   19701       4
   19653   19671   19686   19707       4   19650   19626   19644   19662       2
   19650   19626   19644   19665       1   19650   19626   19644   19668       1
   19647   19626   19644   19662       2   19647   19626   19644   19665       1
   19647   19626   19644   19668       1   19644   19662   19674   19692       2
   19644   19662   19674   19695       2   19638   19620   19635   19653       4
   19638   19620   19635   19659       4   19635   19653   19632   19656       4
   19632   19653   19635   19659       4   19629   19614   19623   19641       4
   19626   19608   19623   19641       4   19626   19644   19662   19677       2
   19626   19644   19662   19680       2   19623   19608   19626   19647       7
   19623   19608   19626   19650       7   19617   19605   19620   19638       4
   19611   19596   19608   19623       4   19611   19596   19608   19626       4
   19608   19623   19614   19629       4   19608   19626   19644   19665       8
   19608   19626   19644   19668       8   19605   19617   19632   19656       4
   19605   19620   19635   19659       4   19602   19617   19632   19656       4
   19599   19587   19596   19611       4   19599   19614   19623   19641       4
   19596   19608   19623   19641       4   19596   19608   19626   19647       7
   19596   19608   19626   19650       7   19593   19605   19620   19638       4
   19590   19599   19614   19629       4   19587   19599   19614   19629       4
   19584   19587   19596   19611       4   19956   19941   19953   19959       1
   19956   19941   19953   19962       1   19956   19941   19953   19965       1
   19950   19941   19953   19959       1   19950   19941   19953   19962       1
   19950   19941   19953   19965       1   19947   19938   19941   19950       1
   19947   19938   19941   19953       2   19947   19938   19941   19956       1
   19944   19938   19941   19950       1   19944   19938   19941   19953       2
   19944   19938   19941   19956       1   19938   19941   19953   19959       2
   19938   19941   19953   19962       2   19938   19941   19953   19965       2
   19935   19920   19938   19941       2   19935   19920   19938   19944       1
   19935   19920   19938   19947       1   19932   19920   19938   19941       2
   19932   19920   19938   19944       1   19932   19920   19938   19947       1
   19926   19902   19920   19932       1   19926   19902   19920   19935       1
   19926   19902   19920   19938       2   19923   19902   19920   19932       1
   19923   19902   19920   19935       1   19923   19902   19920   19938       2
   19920   19938   19941   19950       2   19920   19938   19941   19956       2
   19917   19896   19911   19929       4   19914   19890   19911   19929       4
   19908   19881   19902   19920       2   19908   19881   19902   19923       1
   19908   19881   19902   19926       1   19905   19881   19902   19920       2
   19905   19881   19902   19923       1   19905   19881   19902   19926       1
   19902   19920   19938   19944       2   19902   19920   19938   19947       2
   19899   19878   19896   19911       4   19899   19878   19896   19917       4
   19896   19911   19890   19914       4   19893   19875   19890   19911       4
   19893   19875   19890   19914       4   19890   19911   19896   19917       4
   19887   19866   19881   19902       2   19887   19866   19881   19905       1
   19887   19866   19881   19908       1   19884   19866   19881   19902       2
   19884   19866   19881   19905       1   19884   19866   19881   19908       1
   19881   19902   19920   19932       2   19881   19902   19920   19935       2
   19878   19863   19875   19893       4   19878   19896   19911   19929       4
   19875   19863   19878   19899       4   19875   19890   19911   19929       4
   19872   19854   19866   19881       2   19872   19854   19866   19884       1
   19872   19854   19866   19887       1   19869   19854   19866   19881       2
   19869   19854   19866   19884       1   19869   19854   19866   19887       1
   19866   19881   19902   19923       2   19866   19881   19902   19926       2
   19863   19875   19890   19914       4   19863   19878   19896   19917       4
   19860   19836   19854   19866       2   19860   19836   19854   19869       1
   19860   19836   19854   19872       1   19857   19836   19854   19866       2
   19857   19836   19854   19869       1   19857   19836   19854   19872       1
   19854   19866   19881   19905       2   19854   19866   19881   19908       2
   19851   19827   19845   19863       4   19848   19824   19845   19863       4
   19845   19863   19875   19893       4   19845   19863   19878   19899       4
   19842   19818   19836   19854       2   19842   19818   19836   19857       1
   19842   19818   19836   19860       1   19839   19818   19836   19854       2
   19839   19818   19836   19857       1   19839   19818   19836   19860       1
   19836   19854   19866   19884       2   19836   19854   19866   19887       2
   19830   19812   19827   19845       4   19830   19812   19827   19851       4
   19827   19845   19824   19848       4   19824   19845   19827   19851       4
   19821   19806   19815   19833       4   19818   19800   19815   19833       4
   19818   19836   19854   19869       2   19818   19836   19854   19872       2
   19815   19800   19818   19839       7   19815   19800   19818   19842       7
   19809   19797   19812   19830       4   19803   19788   19800   19815       4
   19803   19788   19800   19818       4   19800   19815   19806   19821       4
   19800   19818   19836   19857       8   19800   19818   19836   19860       8
   19797   19809   19824   19848       4   19797   19812   19827   19851       4
   19794   19809   19824   19848       4   19791   19779   19788   19803       4
   19791   19806   19815   19833       4   19788   19800   19815   19833       4
   19788   19800   19818   19839       7   19788   19800   19818   19842       7
   19785   19797   19812   19830       4   19782   19791   19806   19821       4
   19779   19791   19806   19821       4   19776   19779   19788   19803       4
   20148   20133   20145   20151       1   20148   20133   20145   20154       1
   20148   20133   20145   20157       1   20142   20133   20145   20151       1
   20142   20133   20145   20154       1   20142   20133   20145   20157       1
   20139   20130   20133   20142       1   20139   20130   20133   20145       2
   20139   20130   20133   20148       1   20136   20130   20133   20142       1
   20136   20130   20133   20145       2   20136   20130   20133   20148       1
   20130   20133   20145   20151       2   20130   20133   20145   20154       2
   20130   20133   20145   20157       2   20127   20112   20130   20133       2
   20127   20112   20130   20136       1   20127   20112   20130   20139       1
   20124   20112   20130   20133       2   20124   20112   20130   20136       1
   20124   20112   20130   20139       1   20118   20094   20112   20124       1
   20118   20094   20112   20127       1   20118   20094   20112   20130       2
   20115   20094   20112   20124       1   20115   20094   20112   20127       1
   20115   20094   20112   20130       2   20112   20130   20133   20142       2
   20112   20130   20133   20148       2   20109   20088   20103   20121       4
   20106   20082   20103   20121       4   20100   20073   20094   20112       2
   20100   20073   20094   20115       1   20100   20073   20094   20118       1
   20097   20073   20094   20112       2   20097   20073   20094   20115       1
   20097   20073   20094   20118       1   20094   20112   20130   20136       2
   20094   20112   20130   20139       2   20091   20070   20088   20103       4
   20091   20070   20088   20109       4   20088   20103   20082   20106       4
   20085   20067   20082   20103       4   20085   20067   20082   20106       4
   20082   20103   20088   20109       4   20079   20058   20073   20094       2
   20079   20058   20073   20097       1   20079   20058   20073   20100       1
   20076   20058   20073   20094       2   20076   20058   20073   20097       1
   20076   20058   20073   20100       1   20073   20094   20112   20124       2
   20073   20094   20112   20127       2   20070   20055   20067   20085       4
   20070   20088   20103   20121       4   20067   20055   20070   20091       4
   20067   20082   20103   20121       4   20064   20046   20058   20073       2
   20064   20046   20058   20076       1   20064   20046   20058   20079       1
   20061   20046   20058   20073       2   20061   20046   20058   20076       1
   20061   20046   20058   20079       1   20058   20073   20094   20115       2
   20058   20073   20094   20118       2   20055   20067   20082   20106       4
   20055   20070   20088   20109       4   20052   20028   20046   20058       2
   20052   20028   20046   20061       1   20052   20028   20046   20064       1
   20049   20028   20046   20058       2   20049   20028   20046   20061       1
   20049   20028   20046   20064       1   20046   20058   20073   20097       2
   20046   20058   20073   20100       2   20043   20019   20037   20055       4
   20040   20016   20037   20055       4   20037   20055   20067   20085       4
   20037   20055   20070   20091       4   20034   20010   20028   20046       2
   20034   20010   20028   20049       1   20034   20010   20028   20052       1
   20031   20010   20028   20046       2   20031   20010   20028   20049       1
   20031   20010   20028   20052       1   20028   20046   20058   20076       2
   20028   20046   20058   20079       2   20022   20004   20019   20037       4
   20022   20004   20019   20043       4   20019   20037   20016   20040       4
   20016   20037   20019   20043       4   20013   19998   20007   20025       4
   20010   19992   20007   20025       4   20010   20028   20046   20061       2
   20010   20028   20046   20064       2   20007   19992   20010   20031       7
   20007   19992   20010   20034       7   20001   19989   20004   20022       4
   19995   19980   19992   20007       4   19995   19980   19992   20010       4
   19992   20007   19998   20013       4   19992   20010   20028   20049       8
   19992   20010   20028   20052       8   19989   20001   20016   20040       4
   19989   20004   20019   20043       4   19986   20001   20016   20040       4
   19983   19971   19980   19995       4   19983   19998   20007   20025       4
   19980   19992   20007   20025       4   19980   19992   20010   20031       7
   19980   19992   20010   20034       7   19977   19989   20004   20022       4
   19974   19983   19998   20013       4   19971   19983   19998   20013       4
   19968   19971   19980   19995       4   20340   20325   20337   20343       1
   20340   20325   20337   20346       1   20340   20325   20337   20349       1
   20334   20325   20337   20343       1   20334   20325   20337   20346       1
   20334   20325   20337   20349       1   20331   20322   20325   20334       1
   20331   20322   20325   20337       2   20331   20322   20325   20340       1
   20328   20322   20325   20334       1   20328   20322   20325   20337       2
   20328   20322   20325   20340       1   20322   20325   20337   20343       2
   20322   20325   20337   20346       2   20322   20325   20337   20349       2
   20319   20304   20322   20325       2   20319   20304   20322   20328       1
   20319   20304   20322   20331       1   20316   20304   20322   20325       2
   20316   20304   20322   20328       1   20316   20304   20322   20331       1
   20310   20286   20304   20316       1   20310   20286   20304   20319       1
   20310   20286   20304   20322       2   20307   20286   20304   20316       1
   20307   20286   20304   20319       1   20307   20286   20304   20322       2
   20304   20322   20325   20334       2   20304   20322   20325   20340       2
   20301   20280   20295   20313       4   20298   20274   20295   20313       4
   20292   20265   20286   20304       2   20292   20265   20286   20307       1
   20292   20265   20286   20310       1   20289   20265   20286   20304       2
   20289   20265   20286   20307       1   20289   20265   20286   20310       1
   20286   20304   20322   20328       2   20286   20304   20322   20331       2
   20283   20262   20280   20295       4   20283   20262   20280   20301       4
   20280   20295   20274   20298       4   20277   20259   20274   20295       4
   20277   20259   20274   20298       4   20274   20295   20280   20301       4
   20271   20250   20265   20286       2   20271   20250   20265   20289       1
   20271   20250   20265   20292       1   20268   20250   20265   20286       2
   20268   20250   20265   20289       1   20268   20250   20265   20292       1
   20265   20286   20304   20316       2   20265   20286   20304   20319       2
   20262   20247   20259   20277       4   20262   20280   20295   20313       4
   20259   20247   20262   20283       4   20259   20274   20295   20313       4
   20256   20238   20250   20265       2   20256   20238   20250   20268       1
   20256   20238   20250   20271       1   20253   20238   20250   20265       2
   20253   20238   20250   20268       1   20253   20238   20250   20271       1
   20250   20265   20286   20307       2   20250   20265   20286   20310       2
   20247   20259   20274   20298       4   20247   20262   20280   20301       4
   20244   20220   20238   20250       2   20244   20220   20238   20253       1
   20244   20220   20238   20256       1   20241   20220   20238   20250       2
   20241   20220   20238   20253       1   20241   20220   20238   20256       1
   20238   20250   20265   20289       2   20238   20250   20265   20292       2
   20235   20211   20229   20247       4   20232   20208   20229   20247       4
   20229   20247   20259   20277       4   20229   20247   20262   20283       4
   20226   20202   20220   20238       2   20226   20202   20220   20241       1
   20226   20202   20220   20244       1   20223   20202   20220   20238       2
   20223   20202   20220   20241       1   20223   20202   20220   20244       1
   20220   20238   20250   20268       2   20220   20238   20250   20271       2
   20214   20196   20211   20229       4   20214   20196   20211   20235       4
   20211   20229   20208   20232       4   20208   20229   20211   20235       4
   20205   20190   20199   20217       4   20202   20184   20199   20217       4
   20202   20220   20238   20253       2   20202   20220   20238   20256       2
   20199   20184   20202   20223       7   20199   20184   20202   20226       7
   20193   20181   20196   20214       4   20187   20172   20184   20199       4
   20187   20172   20184   20202       4   20184   20199   20190   20205       4
   20184   20202   20220   20241       8   20184   20202   20220   20244       8
   20181   20193   20208   20232       4   20181   20196   20211   20235       4
   20178   20193   20208   20232       4   20175   20163   20172   20187       4
   20175   20190   20199   20217       4   20172   20184   20199   20217       4
   20172   20184   20202   20223       7   20172   20184   20202   20226       7
   20169   20181   20196   20214       4   20166   20175   20190   20205       4
   20163   20175   20190   20205       4   20160   20163   20172   20187       4
   20532   20517   20529   20535       1   20532   20517   20529   20538       1
   20532   20517   20529   20541       1   20526   20517   20529   20535       1
   20526   20517   20529   20538       1   20526   20517   20529   20541       1
   20523   20514   20517   20526       1   20523   20514   20517   20529       2
   20523   20514   20517   20532       1   20520   20514   20517   20526       1
   20520   20514   20517   20529       2   20520   20514   20517   20532       1
   20514   20517   20529   20535       2   20514   20517   20529   20538       2
   20514   20517   20529   20541       2   20511   20496   20514   20517       2
   20511   20496   20514   20520       1   20511   20496   20514   20523       1
   20508   20496   20514   20517       2   20508   20496   20514   20520       1
   20508   20496   20514   20523       1   20502   20478   20496   20508       1
   20502   20478   20496   20511       1   20502   20478   20496   20514       2
   20499   20478   20496   20508       1   20499   20478   20496   20511       1
   20499   20478   20496   20514       2   20496   20514   20517   20526       2
   20496   20514   20517   20532       2   20493   20472   20487   20505       4
   20490   20466   20487   20505       4   20484   20457   20478   20496       2
   20484   20457   20478   20499       1   20484   20457   20478   20502       1
   20481   20457   20478   20496       2   20481   20457   20478   20499       1
   20481   20457   20478   20502       1   20478   20496   20514   20520       2
   20478   20496   20514   20523       2   20475   20454   20472   20487       4
   20475   20454   20472   20493       4   20472   20487   20466   20490       4
   20469   20451   20466   20487       4   20469   20451   20466   20490       4
   20466   20487   20472   20493       4   20463   20442   20457   20478       2
   20463   20442   20457   20481       1   20463   20442   20457   20484       1
   20460   20442   20457   20478       2   20460   20442   20457   20481       1
   20460   20442   20457   20484       1   20457   20478   20496   20508       2
   20457   20478   20496   20511       2   20454   20439   20451   20469       4
   20454   20472   20487   20505       4   20451   20439   20454   20475       4
   20451   20466   20487   20505       4   20448   20430   20442   20457       2
   20448   20430   20442   20460       1   20448   20430   20442   20463       1
   20445   20430   20442   20457       2   20445   20430   20442   20460       1
   20445   20430   20442   20463       1   20442   20457   20478   20499       2
   20442   20457   20478   20502       2   20439   20451   20466   20490       4
   20439   20454   20472   20493       4   20436   20412   20430   20442       2
   20436   20412   20430   20445       1   20436   20412   20430   20448       1
   20433   20412   20430   20442       2   20433   20412   20430   20445       1
   20433   20412   20430   20448       1   20430   20442   20457   20481       2
   20430   20442   20457   20484       2   20427   20403   20421   20439       4
   20424   20400   20421   20439       4   20421   20439   20451   20469       4
   20421   20439   20454   20475       4   20418   20394   20412   20430       2
   20418   20394   20412   20433       1   20418   20394   20412   20436       1
   20415   20394   20412   20430       2   20415   20394   20412   20433       1
   20415   20394   20412   20436       1   20412   20430   20442   20460       2
   20412   20430   20442   20463       2   20406   20388   20403   20421       4
   20406   20388   20403   20427       4   20403   20421   20400   20424       4
   20400   20421   20403   20427       4   20397   20382   20391   20409       4
   20394   20376   20391   20409       4   20394   20412   20430   20445       2
   20394   20412   20430   20448       2   20391   20376   20394   20415       7
   20391   20376   20394   20418       7   20385   20373   20388   20406       4
   20379   20364   20376   20391       4   20379   20364   20376   20394       4
   20376   20391   20382   20397       4   20376   20394   20412   20433       8
   20376   20394   20412   20436       8   20373   20385   20400   20424       4
   20373   20388   20403   20427       4   20370   20385   20400   20424       4
   20367   20355   20364   20379       4   20367   20382   20391   20409       4
   20364   20376   20391   20409       4   20364   20376   20394   20415       7
   20364   20376   20394   20418       7   20361   20373   20388   20406       4
   20358   20367   20382   20397       4   20355   20367   20382   20397       4
   20352   20355   20364   20379       4   20724   20709   20721   20727       1
   20724   20709   20721   20730       1   20724   20709   20721   20733       1
   20718   20709   20721   20727       1   20718   20709   20721   20730       1
   20718   20709   20721   20733       1   20715   20706   20709   20718       1
   20715   20706   20709   20721       2   20715   20706   20709   20724       1
   20712   20706   20709   20718       1   20712   20706   20709   20721       2
   20712   20706   20709   20724       1   20706   20709   20721   20727       2
   20706   20709   20721   20730       2   20706   20709   20721   20733       2
   20703   20688   20706   20709       2   20703   20688   20706   20712       1
   20703   20688   20706   20715       1   20700   20688   20706   20709       2
   20700   20688   20706   20712       1   20700   20688   20706   20715       1
   20694   20670   20688   20700       1   20694   20670   20688   20703       1
   20694   20670   20688   20706       2   20691   20670   20688   20700       1
   20691   20670   20688   20703       1   20691   20670   20688   20706       2
   20688   20706   20709   20718       2   20688   20706   20709   20724       2
   20685   20664   20679   20697       4   20682   20658   20679   20697       4
   20676   20649   20670   20688       2   20676   20649   20670   20691       1
   20676   20649   20670   20694       1   20673   20649   20670   20688       2
   20673   20649   20670   20691       1   20673   20649   20670   20694       1
   20670   20688   20706   20712       2   20670   20688   20706   20715       2
   20667   20646   20664   20679       4   20667   20646   20664   20685       4
   20664   20679   20658   20682       4   20661   20643   20658   20679       4
   20661   20643   20658   20682       4   20658   20679   20664   20685       4
   20655   20634   20649   20670       2   20655   20634   20649   20673       1
   20655   20634   20649   20676       1   20652   20634   20649   20670       2
   20652   20634   20649   20673       1   20652   20634   20649   20676       1
   20649   20670   20688   20700       2   20649   20670   20688   20703       2
   20646   20631   20643   20661       4   20646   20664   20679   20697       4
   20643   20631   20646   20667       4   20643   20658   20679   20697       4
   20640   20622   20634   20649       2   20640   20622   20634   20652       1
   20640   20622   20634   20655       1   20637   20622   20634   20649       2
   20637   20622   20634   20652       1   20637   20622   20634   20655       1
   20634   20649   20670   20691       2   20634   20649   20670   20694       2
   20631   20643   20658   20682       4   20631   20646   20664   20685       4
   20628   20604   20622   20634       2   20628   20604   20622   20637       1
   20628   20604   20622   20640       1   20625   20604   20622   20634       2
   20625   20604   20622   20637       1   20625   20604   20622   20640       1
   20622   20634   20649   20673       2   20622   20634   20649   20676       2
   20619   20595   20613   20631       4   20616   20592   20613   20631       4
   20613   20631   20643   20661       4   20613   20631   20646   20667       4
   20610   20586   20604   20622       2   20610   20586   20604   20625       1
   20610   20586   20604   20628       1   20607   20586   20604   20622       2
   20607   20586   20604   20625       1   20607   20586   20604   20628       1
   20604   20622   20634   20652       2   20604   20622   20634   20655       2
   20598   20580   20595   20613       4   20598   20580   20595   20619       4
   20595   20613   20592   20616       4   20592   20613   20595   20619       4
   20589   20574   20583   20601       4   20586   20568   20583   20601       4
   20586   20604   20622   20637       2   20586   20604   20622   20640       2
   20583   20568   20586   20607       7   20583   20568   20586   20610       7
   20577   20565   20580   20598       4   20571   20556   20568   20583       4
   20571   20556   20568   20586       4   20568   20583   20574   20589       4
   20568   20586   20604   20625       8   20568   20586   20604   20628       8
   20565   20577   20592   20616       4   20565   20580   20595   20619       4
   20562   20577   20592   20616       4   20559   20547   20556   20571       4
   20559   20574   20583   20601       4   20556   20568   20583   20601       4
   20556   20568   20586   20607       7   20556   20568   20586   20610       7
   20553   20565   20580   20598       4   20550   20559   20574   20589       4
   20547   20559   20574   20589       4   20544   20547   20556   20571       4
   20916   20901   20913   20919       1   20916   20901   20913   20922       1
   20916   20901   20913   20925       1   20910   20901   20913   20919       1
   20910   20901   20913   20922       1   20910   20901   20913   20925       1
   20907   20898   20901   20910       1   20907   20898   20901   20913       2
   20907   20898   20901   20916       1   20904   20898   20901   20910       1
   20904   20898   20901   20913       2   20904   20898   20901   20916       1
   20898   20901   20913   20919       2   20898   20901   20913   20922       2
   20898   20901   20913   20925       2   20895   20880   20898   20901       2
   20895   20880   20898   20904       1   20895   20880   20898   20907       1
   20892   20880   20898   20901       2   20892   20880   20898   20904       1
   20892   20880   20898   20907       1   20886   20862   20880   20892       1
   20886   20862   20880   20895       1   20886   20862   20880   20898       2
   20883   20862   20880   20892       1   20883   20862   20880   20895       1
   20883   20862   20880   20898       2   20880   20898   20901   20910       2
   20880   20898   20901   20916       2   20877   20856   20871   20889       4
   20874   20850   20871   20889       4   20868   20841   20862   20880       2
   20868   20841   20862   20883       1   20868   20841   20862   20886       1
   20865   20841   20862   20880       2   20865   20841   20862   20883       1
   20865   20841   20862   20886       1   20862   20880   20898   20904       2
   20862   20880   20898   20907       2   20859   20838   20856   20871       4
   20859   20838   20856   20877       4   20856   20871   20850   20874       4
   20853   20835   20850   20871       4   20853   20835   20850   20874       4
   20850   20871   20856   20877       4   20847   20826   20841   20862       2
   20847   20826   20841   20865       1   20847   20826   20841   20868       1
   20844   20826   20841   20862       2   20844   20826   20841   20865       1
   20844   20826   20841   20868       1   20841   20862   20880   20892       2
   20841   20862   20880   20895       2   20838   20823   20835   20853       4
   20838   20856   20871   20889       4   20835   20823   20838   20859       4
   20835   20850   20871   20889       4   20832   20814   20826   20841       2
   20832   20814   20826   20844       1   20832   20814   20826   20847       1
   20829   20814   20826   20841       2   20829   20814   20826   20844       1
   20829   20814   20826   20847       1   20826   20841   20862   20883       2
   20826   20841   20862   20886       2   20823   20835   20850   20874       4
   20823   20838   20856   20877       4   20820   20796   20814   20826       2
   20820   20796   20814   20829       1   20820   20796   20814   20832       1
   20817   20796   20814   20826       2   20817   20796   20814   20829       1
   20817   20796   20814   20832       1   20814   20826   20841   20865       2
   20814   20826   20841   20868       2   20811   20787   20805   20823       4
   20808   20784   20805   20823       4   20805   20823   20835   20853       4
   20805   20823   20838   20859       4   20802   20778   20796   20814       2
   20802   20778   20796   20817       1   20802   20778   20796   20820       1
   20799   20778   20796   20814       2   20799   20778   20796   20817       1
   20799   20778   20796   20820       1   20796   20814   20826   20844       2
   20796   20814   20826   20847       2   20790   20772   20787   20805       4
   20790   20772   20787   20811       4   20787   20805   20784   20808       4
   20784   20805   20787   20811       4   20781   20766   20775   20793       4
   20778   20760   20775   20793       4   20778   20796   20814   20829       2
   20778   20796   20814   20832       2   20775   20760   20778   20799       7
   20775   20760   20778   20802       7   20769   20757   20772   20790       4
   20763   20748   20760   20775       4   20763   20748   20760   20778       4
   20760   20775   20766   20781       4   20760   20778   20796   20817       8
   20760   20778   20796   20820       8   20757   20769   20784   20808       4
   20757   20772   20787   20811       4   20754   20769   20784   20808       4
   20751   20739   20748   20763       4   20751   20766   20775   20793       4
   20748   20760   20775   20793       4   20748   20760   20778   20799       7
   20748   20760   20778   20802       7   20745   20757   20772   20790       4
   20742   20751   20766   20781       4   20739   20751   20766   20781       4
   20736   20739   20748   20763       4   21108   21093   21105   21111       1
   21108   21093   21105   21114       1   21108   21093   21105   21117       1
   21102   21093   21105   21111       1   21102   21093   21105   21114       1
   21102   21093   21105   21117       1   21099   21090   21093   21102       1
   21099   21090   21093   21105       2   21099   21090   21093   21108       1
   21096   21090   21093   21102       1   21096   21090   21093   21105       2
   21096   21090   21093   21108       1   21090   21093   21105   21111       2
   21090   21093   21105   21114       2   21090   21093   21105   21117       2
   21087   21072   21090   21093       2   21087   21072   21090   21096       1
   21087   21072   21090   21099       1   21084   21072   21090   21093       2
   21084   21072   21090   21096       1   21084   21072   21090   21099       1
   21078   21054   21072   21084       1   21078   21054   21072   21087       1
   21078   21054   21072   21090       2   21075   21054   21072   21084       1
   21075   21054   21072   21087       1   21075   21054   21072   21090       2
   21072   21090   21093   21102       2   21072   21090   21093   21108       2
   21069   21048   21063   21081       4   21066   21042   21063   21081       4
   21060   21033   21054   21072       2   21060   21033   21054   21075       1
   21060   21033   21054   21078       1   21057   21033   21054   21072       2
   21057   21033   21054   21075       1   21057   21033   21054   21078       1
   21054   21072   21090   21096       2   21054   21072   21090   21099       2
   21051   21030   21048   21063       4   21051   21030   21048   21069       4
   21048   21063   21042   21066       4   21045   21027   21042   21063       4
   21045   21027   21042   21066       4   21042   21063   21048   21069       4
   21039   21018   21033   21054       2   21039   21018   21033   21057       1
   21039   21018   21033   21060       1   21036   21018   21033   21054       2
   21036   21018   21033   21057       1   21036   21018   21033   21060       1
   21033   21054   21072   21084       2   21033   21054   21072   21087       2
   21030   21015   21027   21045       4   21030   21048   21063   21081       4
   21027   21015   21030   21051       4   21027   21042   21063   21081       4
   21024   21006   21018   21033       2   21024   21006   21018   21036       1
   21024   21006   21018   21039       1   21021   21006   21018   21033       2
   21021   21006   21018   21036       1   21021   21006   21018   21039       1
   21018   21033   21054   21075       2   21018   21033   21054   21078       2
   21015   21027   21042   21066       4   21015   21030   21048   21069       4
   21012   20988   21006   21018       2   21012   20988   21006   21021       1
   21012   20988   21006   21024       1   21009   20988   21006   21018       2
   21009   20988   21006   21021       1   21009   20988   21006   21024       1
   21006   21018   21033   21057       2   21006   21018   21033   21060       2
   21003   20979   20997   21015       4   21000   20976   20997   21015       4
   20997   21015   21027   21045       4   20997   21015   21030   21051       4
   20994   20970   20988   21006       2   20994   20970   20988   21009       1
   20994   20970   20988   21012       1   20991   20970   20988   21006       2
   20991   20970   20988   21009       1   20991   20970   20988   21012       1
   20988   21006   21018   21036       2   20988   21006   21018   21039       2
   20982   20964   20979   20997       4   20982   20964   20979   21003       4
   20979   20997   20976   21000       4   20976   20997   20979   21003       4
   20973   20958   20967   20985       4   20970   20952   20967   20985       4
   20970   20988   21006   21021       2   20970   20988   21006   21024       2
   20967   20952   20970   20991       7   20967   20952   20970   20994       7
   20961   20949   20964   20982       4   20955   20940   20952   20967       4
   20955   20940   20952   20970       4   20952   20967   20958   20973       4
   20952   20970   20988   21009       8   20952   20970   20988   21012       8
   20949   20961   20976   21000       4   20949   20964   20979   21003       4
   20946   20961   20976   21000       4   20943   20931   20940   20955       4
   20943   20958   20967   20985       4   20940   20952   20967   20985       4
   20940   20952   20970   20991       7   20940   20952   20970   20994       7
   20937   20949   20964   20982       4   20934   20943   20958   20973       4
   20931   20943   20958   20973       4   20928   20931   20940   20955       4
   21300   21285   21297   21303       1   21300   21285   21297   21306       1
   21300   21285   21297   21309       1   21294   21285   21297   21303       1
   21294   21285   21297   21306       1   21294   21285   21297   21309       1
   21291   21282   21285   21294       1   21291   21282   21285   21297       2
   21291   21282   21285   21300       1   21288   21282   21285   21294       1
   21288   21282   21285   21297       2   21288   21282   21285   21300       1
   21282   21285   21297   21303       2   21282   21285   21297   21306       2
   21282   21285   21297   21309       2   21279   21264   21282   21285       2
   21279   21264   21282   21288       1   21279   21264   21282   21291       1
   21276   21264   21282   21285       2   21276   21264   21282   21288       1
   21276   21264   21282   21291       1   21270   21246   21264   21276       1
   21270   21246   21264   21279       1   21270   21246   21264   21282       2
   21267   21246   21264   21276       1   21267   21246   21264   21279       1
   21267   21246   21264   21282       2   21264   21282   21285   21294       2
   21264   21282   21285   21300       2   21261   21240   21255   21273       4
   21258   21234   21255   21273       4   21252   21225   21246   21264       2
   21252   21225   21246   21267       1   21252   21225   21246   21270       1
   21249   21225   21246   21264       2   21249   21225   21246   21267       1
   21249   21225   21246   21270       1   21246   21264   21282   21288       2
   21246   21264   21282   21291       2   21243   21222   21240   21255       4
   21243   21222   21240   21261       4   21240   21255   21234   21258       4
   21237   21219   21234   21255       4   21237   21219   21234   21258       4
   21234   21255   21240   21261       4   21231   21210   21225   21246       2
   21231   21210   21225   21249       1   21231   21210   21225   21252       1
   21228   21210   21225   21246       2   21228   21210   21225   21249       1
   21228   21210   21225   21252       1   21225   21246   21264   21276       2
   21225   21246   21264   21279       2   21222   21207   21219   21237       4
   21222   21240   21255   21273       4   21219   21207   21222   21243       4
   21219   21234   21255   21273       4   21216   21198   21210   21225       2
   21216   21198   21210   21228       1   21216   21198   21210   21231       1
   21213   21198   21210   21225       2   21213   21198   21210   21228       1
   21213   21198   21210   21231       1   21210   21225   21246   21267       2
   21210   21225   21246   21270       2   21207   21219   21234   21258       4
   21207   21222   21240   21261       4   21204   21180   21198   21210       2
   21204   21180   21198   21213       1   21204   21180   21198   21216       1
   21201   21180   21198   21210       2   21201   21180   21198   21213       1
   21201   21180   21198   21216       1   21198   21210   21225   21249       2
   21198   21210   21225   21252       2   21195   21171   21189   21207       4
   21192   21168   21189   21207       4   21189   21207   21219   21237       4
   21189   21207   21222   21243       4   21186   21162   21180   21198       2
   21186   21162   21180   21201       1   21186   21162   21180   21204       1
   21183   21162   21180   21198       2   21183   21162   21180   21201       1
   21183   21162   21180   21204       1   21180   21198   21210   21228       2
   21180   21198   21210   21231       2   21174   21156   21171   21189       4
   21174   21156   21171   21195       4   21171   21189   21168   21192       4
   21168   21189   21171   21195       4   21165   21150   21159   21177       4
   21162   21144   21159   21177       4   21162   21180   21198   21213       2
   21162   21180   21198   21216       2   21159   21144   21162   21183       7
   21159   21144   21162   21186       7   21153   21141   21156   21174       4
   21147   21132   21144   21159       4   21147   21132   21144   21162       4
   21144   21159   21150   21165       4   21144   21162   21180   21201       8
   21144   21162   21180   21204       8   21141   21153   21168   21192       4
   21141   21156   21171   21195       4   21138   21153   21168   21192       4
   21135   21123   21132   21147       4   21135   21150   21159   21177       4
   21132   21144   21159   21177       4   21132   21144   21162   21183       7
   21132   21144   21162   21186       7   21129   21141   21156   21174       4
   21126   21135   21150   21165       4   21123   21135   21150   21165       4
   21120   21123   21132   21147       4   21492   21477   21489   21495       1
   21492   21477   21489   21498       1   21492   21477   21489   21501       1
   21486   21477   21489   21495       1   21486   21477   21489   21498       1
   21486   21477   21489   21501       1   21483   21474   21477   21486       1
   21483   21474   21477   21489       2   21483   21474   21477   21492       1
   21480   21474   21477   21486       1   21480   21474   21477   21489       2
   21480   21474   21477   21492       1   21474   21477   21489   21495       2
   21474   21477   21489   21498       2   21474   21477   21489   21501       2
   21471   21456   21474   21477       2   21471   21456   21474   21480       1
   21471   21456   21474   21483       1   21468   21456   21474   21477       2
   21468   21456   21474   21480       1   21468   21456   21474   21483       1
   21462   21438   21456   21468       1   21462   21438   21456   21471       1
   21462   21438   21456   21474       2   21459   21438   21456   21468       1
   21459   21438   21456   21471       1   21459   21438   21456   21474       2
   21456   21474   21477   21486       2   21456   21474   21477   21492       2
   21453   21432   21447   21465       4   21450   21426   21447   21465       4
   21444   21417   21438   21456       2   21444   21417   21438   21459       1
   21444   21417   21438   21462       1   21441   21417   21438   21456       2
   21441   21417   21438   21459       1   21441   21417   21438   21462       1
   21438   21456   21474   21480       2   21438   21456   21474   21483       2
   21435   21414   21432   21447       4   21435   21414   21432   21453       4
   21432   21447   21426   21450       4   21429   21411   21426   21447       4
   21429   21411   21426   21450       4   21426   21447   21432   21453       4
   21423   21402   21417   21438       2   21423   21402   21417   21441       1
   21423   21402   21417   21444       1   21420   21402   21417   21438       2
   21420   21402   21417   21441       1   21420   21402   21417   21444       1
   21417   21438   21456   21468       2   21417   21438   21456   21471       2
   21414   21399   21411   21429       4   21414   21432   21447   21465       4
   21411   21399   21414   21435       4   21411   21426   21447   21465       4
   21408   21390   21402   21417       2   21408   21390   21402   21420       1
   21408   21390   21402   21423       1   21405   21390   21402   21417       2
   21405   21390   21402   21420       1   21405   21390   21402   21423       1
   21402   21417   21438   21459       2   21402   21417   21438   21462       2
   21399   21411   21426   21450       4   21399   21414   21432   21453       4
   21396   21372   21390   21402       2   21396   21372   21390   21405       1
   21396   21372   21390   21408       1   21393   21372   21390   21402       2
   21393   21372   21390   21405       1   21393   21372   21390   21408       1
   21390   21402   21417   21441       2   21390   21402   21417   21444       2
   21387   21363   21381   21399       4   21384   21360   21381   21399       4
   21381   21399   21411   21429       4   21381   21399   21414   21435       4
   21378   21354   21372   21390       2   21378   21354   21372   21393       1
   21378   21354   21372   21396       1   21375   21354   21372   21390       2
   21375   21354   21372   21393       1   21375   21354   21372   21396       1
   21372   21390   21402   21420       2   21372   21390   21402   21423       2
   21366   21348   21363   21381       4   21366   21348   21363   21387       4
   21363   21381   21360   21384       4   21360   21381   21363   21387       4
   21357   21342   21351   21369       4   21354   21336   21351   21369       4
   21354   21372   21390   21405       2   21354   21372   21390   21408       2
   21351   21336   21354   21375       7   21351   21336   21354   21378       7
   21345   21333   21348   21366       4   21339   21324   21336   21351       4
   21339   21324   21336   21354       4   21336   21351   21342   21357       4
   21336   21354   21372   21393       8   21336   21354   21372   21396       8
   21333   21345   21360   21384       4   21333   21348   21363   21387       4
   21330   21345   21360   21384       4   21327   21315   21324   21339       4
   21327   21342   21351   21369       4   21324   21336   21351   21369       4
   21324   21336   21354   21375       7   21324   21336   21354   21378       7
   21321   21333   21348   21366       4   21318   21327   21342   21357       4
   21315   21327   21342   21357       4   21312   21315   21324   21339       4
   21684   21669   21681   21687       1   21684   21669   21681   21690       1
   21684   21669   21681   21693       1   21678   21669   21681   21687       1
   21678   21669   21681   21690       1   21678   21669   21681   21693       1
   21675   21666   21669   21678       1   21675   21666   21669   21681       2
   21675   21666   21669   21684       1   21672   21666   21669   21678       1
   21672   21666   21669   21681       2   21672   21666   21669   21684       1
   21666   21669   21681   21687       2   21666   21669   21681   21690       2
   21666   21669   21681   21693       2   21663   21648   21666   21669       2
   21663   21648   21666   21672       1   21663   21648   21666   21675       1
   21660   21648   21666   21669       2   21660   21648   21666   21672       1
   21660   21648   21666   21675       1   21654   21630   21648   21660       1
   21654   21630   21648   21663       1   21654   21630   21648   21666       2
   21651   21630   21648   21660       1   21651   21630   21648   21663       1
   21651   21630   21648   21666       2   21648   21666   21669   21678       2
   21648   21666   21669   21684       2   21645   21624   21639   21657       4
   21642   21618   21639   21657       4   21636   21609   21630   21648       2
   21636   21609   21630   21651       1   21636   21609   21630   21654       1
   21633   21609   21630   21648       2   21633   21609   21630   21651       1
   21633   21609   21630   21654       1   21630   21648   21666   21672       2
   21630   21648   21666   21675       2   21627   21606   21624   21639       4
   21627   21606   21624   21645       4   21624   21639   21618   21642       4
   21621   21603   21618   21639       4   21621   21603   21618   21642       4
   21618   21639   21624   21645       4   21615   21594   21609   21630       2
   21615   21594   21609   21633       1   21615   21594   21609   21636       1
   21612   21594   21609   21630       2   21612   21594   21609   21633       1
   21612   21594   21609   21636       1   21609   21630   21648   21660       2
   21609   21630   21648   21663       2   21606   21591   21603   21621       4
   21606   21624   21639   21657       4   21603   21591   21606   21627       4
   21603   21618   21639   21657       4   21600   21582   21594   21609       2
   21600   21582   21594   21612       1   21600   21582   21594   21615       1
   21597   21582   21594   21609       2   21597   21582   21594   21612       1
   21597   21582   21594   21615       1   21594   21609   21630   21651       2
   21594   21609   21630   21654       2   21591   21603   21618   21642       4
   21591   21606   21624   21645       4   21588   21564   21582   21594       2
   21588   21564   21582   21597       1   21588   21564   21582   21600       1
   21585   21564   21582   21594       2   21585   21564   21582   21597       1
   21585   21564   21582   21600       1   21582   21594   21609   21633       2
   21582   21594   21609   21636       2   21579   21555   21573   21591       4
   21576   21552   21573   21591       4   21573   21591   21603   21621       4
   21573   21591   21606   21627       4   21570   21546   21564   21582       2
   21570   21546   21564   21585       1   21570   21546   21564   21588       1
   21567   21546   21564   21582       2   21567   21546   21564   21585       1
   21567   21546   21564   21588       1   21564   21582   21594   21612       2
   21564   21582   21594   21615       2   21558   21540   21555   21573       4
   21558   21540   21555   21579       4   21555   21573   21552   21576       4
   21552   21573   21555   21579       4   21549   21534   21543   21561       4
   21546   21528   21543   21561       4   21546   21564   21582   21597       2
   21546   21564   21582   21600       2   21543   21528   21546   21567       7
   21543   21528   21546   21570       7   21537   21525   21540   21558       4
   21531   21516   21528   21543       4   21531   21516   21528   21546       4
   21528   21543   21534   21549       4   21528   21546   21564   21585       8
   21528   21546   21564   21588       8   21525   21537   21552   21576       4
   21525   21540   21555   21579       4   21522   21537   21552   21576       4
   21519   21507   21516   21531       4   21519   21534   21543   21561       4
   21516   21528   21543   21561       4   21516   21528   21546   21567       7
   21516   21528   21546   21570       7   21513   21525   21540   21558       4
   21510   21519   21534   21549       4   21507   21519   21534   21549       4
   21504   21507   21516   21531       4   21876   21861   21873   21879       1
   21876   21861   21873   21882       1   21876   21861   21873   21885       1
   21870   21861   21873   21879       1   21870   21861   21873   21882       1
   21870   21861   21873   21885       1   21867   21858   21861   21870       1
   21867   21858   21861   21873       2   21867   21858   21861   21876       1
   21864   21858   21861   21870       1   21864   21858   21861   21873       2
   21864   21858   21861   21876       1   21858   21861   21873   21879       2
   21858   21861   21873   21882       2   21858   21861   21873   21885       2
   21855   21840   21858   21861       2   21855   21840   21858   21864       1
   21855   21840   21858   21867       1   21852   21840   21858   21861       2
   21852   21840   21858   21864       1   21852   21840   21858   21867       1
   21846   21822   21840   21852       1   21846   21822   21840   21855       1
   21846   21822   21840   21858       2   21843   21822   21840   21852       1
   21843   21822   21840   21855       1   21843   21822   21840   21858       2
   21840   21858   21861   21870       2   21840   21858   21861   21876       2
   21837   21816   21831   21849       4   21834   21810   21831   21849       4
   21828   21801   21822   21840       2   21828   21801   21822   21843       1
   21828   21801   21822   21846       1   21825   21801   21822   21840       2
   21825   21801   21822   21843       1   21825   21801   21822   21846       1
   21822   21840   21858   21864       2   21822   21840   21858   21867       2
   21819   21798   21816   21831       4   21819   21798   21816   21837       4
   21816   21831   21810   21834       4   21813   21795   21810   21831       4
   21813   21795   21810   21834       4   21810   21831   21816   21837       4
   21807   21786   21801   21822       2   21807   21786   21801   21825       1
   21807   21786   21801   21828       1   21804   21786   21801   21822       2
   21804   21786   21801   21825       1   21804   21786   21801   21828       1
   21801   21822   21840   21852       2   21801   21822   21840   21855       2
   21798   21783   21795   21813       4   21798   21816   21831   21849       4
   21795   21783   21798   21819       4   21795   21810   21831   21849       4
   21792   21774   21786   21801       2   21792   21774   21786   21804       1
   21792   21774   21786   21807       1   21789   21774   21786   21801       2
   21789   21774   21786   21804       1   21789   21774   21786   21807       1
   21786   21801   21822   21843       2   21786   21801   21822   21846       2
   21783   21795   21810   21834       4   21783   21798   21816   21837       4
   21780   21756   21774   21786       2   21780   21756   21774   21789       1
   21780   21756   21774   21792       1   21777   21756   21774   21786       2
   21777   21756   21774   21789       1   21777   21756   21774   21792       1
   21774   21786   21801   21825       2   21774   21786   21801   21828       2
   21771   21747   21765   21783       4   21768   21744   21765   21783       4
   21765   21783   21795   21813       4   21765   21783   21798   21819       4
   21762   21738   21756   21774       2   21762   21738   21756   21777       1
   21762   21738   21756   21780       1   21759   21738   21756   21774       2
   21759   21738   21756   21777       1   21759   21738   21756   21780       1
   21756   21774   21786   21804       2   21756   21774   21786   21807       2
   21750   21732   21747   21765       4   21750   21732   21747   21771       4
   21747   21765   21744   21768       4   21744   21765   21747   21771       4
   21741   21726   21735   21753       4   21738   21720   21735   21753       4
   21738   21756   21774   21789       2   21738   21756   21774   21792       2
   21735   21720   21738   21759       7   21735   21720   21738   21762       7
   21729   21717   21732   21750       4   21723   21708   21720   21735       4
   21723   21708   21720   21738       4   21720   21735   21726   21741       4
   21720   21738   21756   21777       8   21720   21738   21756   21780       8
   21717   21729   21744   21768       4   21717   21732   21747   21771       4
   21714   21729   21744   21768       4   21711   21699   21708   21723       4
   21711   21726   21735   21753       4   21708   21720   21735   21753       4
   21708   21720   21738   21759       7   21708   21720   21738   21762       7
   21705   21717   21732   21750       4   21702   21711   21726   21741       4
   21699   21711   21726   21741       4   21696   21699   21708   21723       4
   22068   22053   22065   22071       1   22068   22053   22065   22074       1
   22068   22053   22065   22077       1   22062   22053   22065   22071       1
   22062   22053   22065   22074       1   22062   22053   22065   22077       1
   22059   22050   22053   22062       1   22059   22050   22053   22065       2
   22059   22050   22053   22068       1   22056   22050   22053   22062       1
   22056   22050   22053   22065       2   22056   22050   22053   22068       1
   22050   22053   22065   22071       2   22050   22053   22065   22074       2
   22050   22053   22065   22077       2   22047   22032   22050   22053       2
   22047   22032   22050   22056       1   22047   22032   22050   22059       1
   22044   22032   22050   22053       2   22044   22032   22050   22056       1
   22044   22032   22050   22059       1   22038   22014   22032   22044       1
   22038   22014   22032   22047       1   22038   22014   22032   22050       2
   22035   22014   22032   22044       1   22035   22014   22032   22047       1
   22035   22014   22032   22050       2   22032   22050   22053   22062       2
   22032   22050   22053   22068       2   22029   22008   22023   22041       4
   22026   22002   22023   22041       4   22020   21993   22014   22032       2
   22020   21993   22014   22035       1   22020   21993   22014   22038       1
   22017   21993   22014   22032       2   22017   21993   22014   22035       1
   22017   21993   22014   22038       1   22014   22032   22050   22056       2
   22014   22032   22050   22059       2   22011   21990   22008   22023       4
   22011   21990   22008   22029       4   22008   22023   22002   22026       4
   22005   21987   22002   22023       4   22005   21987   22002   22026       4
   22002   22023   22008   22029       4   21999   21978   21993   22014       2
   21999   21978   21993   22017       1   21999   21978   21993   22020       1
   21996   21978   21993   22014       2   21996   21978   21993   22017       1
   21996   21978   21993   22020       1   21993   22014   22032   22044       2
   21993   22014   22032   22047       2   21990   21975   21987   22005       4
   21990   22008   22023   22041       4   21987   21975   21990   22011       4
   21987   22002   22023   22041       4   21984   21966   21978   21993       2
   21984   21966   21978   21996       1   21984   21966   21978   21999       1
   21981   21966   21978   21993       2   21981   21966   21978   21996       1
   21981   21966   21978   21999       1   21978   21993   22014   22035       2
   21978   21993   22014   22038       2   21975   21987   22002   22026       4
   21975   21990   22008   22029       4   21972   21948   21966   21978       2
   21972   21948   21966   21981       1   21972   21948   21966   21984       1
   21969   21948   21966   21978       2   21969   21948   21966   21981       1
   21969   21948   21966   21984       1   21966   21978   21993   22017       2
   21966   21978   21993   22020       2   21963   21939   21957   21975       4
   21960   21936   21957   21975       4   21957   21975   21987   22005       4
   21957   21975   21990   22011       4   21954   21930   21948   21966       2
   21954   21930   21948   21969       1   21954   21930   21948   21972       1
   21951   21930   21948   21966       2   21951   21930   21948   21969       1
   21951   21930   21948   21972       1   21948   21966   21978   21996       2
   21948   21966   21978   21999       2   21942   21924   21939   21957       4
   21942   21924   21939   21963       4   21939   21957   21936   21960       4
   21936   21957   21939   21963       4   21933   21918   21927   21945       4
   21930   21912   21927   21945       4   21930   21948   21966   21981       2
   21930   21948   21966   21984       2   21927   21912   21930   21951       7
   21927   21912   21930   21954       7   21921   21909   21924   21942       4
   21915   21900   21912   21927       4   21915   21900   21912   21930       4
   21912   21927   21918   21933       4   21912   21930   21948   21969       8
   21912   21930   21948   21972       8   21909   21921   21936   21960       4
   21909   21924   21939   21963       4   21906   21921   21936   21960       4
   21903   21891   21900   21915       4   21903   21918   21927   21945       4
   21900   21912   21927   21945       4   21900   21912   21930   21951       7
   21900   21912   21930   21954       7   21897   21909   21924   21942       4
   21894   21903   21918   21933       4   21891   21903   21918   21933       4
   21888   21891   21900   21915       4   22260   22245   22257   22263       1
   22260   22245   22257   22266       1   22260   22245   22257   22269       1
   22254   22245   22257   22263       1   22254   22245   22257   22266       1
   22254   22245   22257   22269       1   22251   22242   22245   22254       1
   22251   22242   22245   22257       2   22251   22242   22245   22260       1
   22248   22242   22245   22254       1   22248   22242   22245   22257       2
   22248   22242   22245   22260       1   22242   22245   22257   22263       2
   22242   22245   22257   22266       2   22242   22245   22257   22269       2
   22239   22224   22242   22245       2   22239   22224   22242   22248       1
   22239   22224   22242   22251       1   22236   22224   22242   22245       2
   22236   22224   22242   22248       1   22236   22224   22242   22251       1
   22230   22206   22224   22236       1   22230   22206   22224   22239       1
   22230   22206   22224   22242       2   22227   22206   22224   22236       1
   22227   22206   22224   22239       1   22227   22206   22224   22242       2
   22224   22242   22245   22254       2   22224   22242   22245   22260       2
   22221   22200   22215   22233       4   22218   22194   22215   22233       4
   22212   22185   22206   22224       2   22212   22185   22206   22227       1
   22212   22185   22206   22230       1   22209   22185   22206   22224       2
   22209   22185   22206   22227       1   22209   22185   22206   22230       1
   22206   22224   22242   22248       2   22206   22224   22242   22251       2
   22203   22182   22200   22215       4   22203   22182   22200   22221       4
   22200   22215   22194   22218       4   22197   22179   22194   22215       4
   22197   22179   22194   22218       4   22194   22215   22200   22221       4
   22191   22170   22185   22206       2   22191   22170   22185   22209       1
   22191   22170   22185   22212       1   22188   22170   22185   22206       2
   22188   22170   22185   22209       1   22188   22170   22185   22212       1
   22185   22206   22224   22236       2   22185   22206   22224   22239       2
   22182   22167   22179   22197       4   22182   22200   22215   22233       4
   22179   22167   22182   22203       4   22179   22194   22215   22233       4
   22176   22158   22170   22185       2   22176   22158   22170   22188       1
   22176   22158   22170   22191       1   22173   22158   22170   22185       2
   22173   22158   22170   22188       1   22173   22158   22170   22191       1
   22170   22185   22206   22227       2   22170   22185   22206   22230       2
   22167   22179   22194   22218       4   22167   22182   22200   22221       4
   22164   22140   22158   22170       2   22164   22140   22158   22173       1
   22164   22140   22158   22176       1   22161   22140   22158   22170       2
   22161   22140   22158   22173       1   22161   22140   22158   22176       1
   22158   22170   22185   22209       2   22158   22170   22185   22212       2
   22155   22131   22149   22167       4   22152   22128   22149   22167       4
   22149   22167   22179   22197       4   22149   22167   22182   22203       4
   22146   22122   22140   22158       2   22146   22122   22140   22161       1
   22146   22122   22140   22164       1   22143   22122   22140   22158       2
   22143   22122   22140   22161       1   22143   22122   22140   22164       1
   22140   22158   22170   22188       2   22140   22158   22170   22191       2
   22134   22116   22131   22149       4   22134   22116   22131   22155       4
   22131   22149   22128   22152       4   22128   22149   22131   22155       4
   22125   22110   22119   22137       4   22122   22104   22119   22137       4
   22122   22140   22158   22173       2   22122   22140   22158   22176       2
   22119   22104   22122   22143       7   22119   22104   22122   22146       7
   22113   22101   22116   22134       4   22107   22092   22104   22119       4
   22107   22092   22104   22122       4   22104   22119   22110   22125       4
   22104   22122   22140   22161       8   22104   22122   22140   22164       8
   22101   22113   22128   22152       4   22101   22116   22131   22155       4
   22098   22113   22128   22152       4   22095   22083   22092   22107       4
   22095   22110   22119   22137       4   22092   22104   22119   22137       4
   22092   22104   22122   22143       7   22092   22104   22122   22146       7
   22089   22101   22116   22134       4   22086   22095   22110   22125       4
   22083   22095   22110   22125       4   22080   22083   22092   22107       4
   22452   22437   22449   22455       1   22452   22437   22449   22458       1
   22452   22437   22449   22461       1   22446   22437   22449   22455       1
   22446   22437   22449   22458       1   22446   22437   22449   22461       1
   22443   22434   22437   22446       1   22443   22434   22437   22449       2
   22443   22434   22437   22452       1   22440   22434   22437   22446       1
   22440   22434   22437   22449       2   22440   22434   22437   22452       1
   22434   22437   22449   22455       2   22434   22437   22449   22458       2
   22434   22437   22449   22461       2   22431   22416   22434   22437       2
   22431   22416   22434   22440       1   22431   22416   22434   22443       1
   22428   22416   22434   22437       2   22428   22416   22434   22440       1
   22428   22416   22434   22443       1   22422   22398   22416   22428       1
   22422   22398   22416   22431       1   22422   22398   22416   22434       2
   22419   22398   22416   22428       1   22419   22398   22416   22431       1
   22419   22398   22416   22434       2   22416   22434   22437   22446       2
   22416   22434   22437   22452       2   22413   22392   22407   22425       4
   22410   22386   22407   22425       4   22404   22377   22398   22416       2
   22404   22377   22398   22419       1   22404   22377   22398   22422       1
   22401   22377   22398   22416       2   22401   22377   22398   22419       1
   22401   22377   22398   22422       1   22398   22416   22434   22440       2
   22398   22416   22434   22443       2   22395   22374   22392   22407       4
   22395   22374   22392   22413       4   22392   22407   22386   22410       4
   22389   22371   22386   22407       4   22389   22371   22386   22410       4
   22386   22407   22392   22413       4   22383   22362   22377   22398       2
   22383   22362   22377   22401       1   22383   22362   22377   22404       1
   22380   22362   22377   22398       2   22380   22362   22377   22401       1
   22380   22362   22377   22404       1   22377   22398   22416   22428       2
   22377   22398   22416   22431       2   22374   22359   22371   22389       4
   22374   22392   22407   22425       4   22371   22359   22374   22395       4
   22371   22386   22407   22425       4   22368   22350   22362   22377       2
   22368   22350   22362   22380       1   22368   22350   22362   22383       1
   22365   22350   22362   22377       2   22365   22350   22362   22380       1
   22365   22350   22362   22383       1   22362   22377   22398   22419       2
   22362   22377   22398   22422       2   22359   22371   22386   22410       4
   22359   22374   22392   22413       4   22356   22332   22350   22362       2
   22356   22332   22350   22365       1   22356   22332   22350   22368       1
   22353   22332   22350   22362       2   22353   22332   22350   22365       1
   22353   22332   22350   22368       1   22350   22362   22377   22401       2
   22350   22362   22377   22404       2   22347   22323   22341   22359       4
   22344   22320   22341   22359       4   22341   22359   22371   22389       4
   22341   22359   22374   22395       4   22338   22314   22332   22350       2
   22338   22314   22332   22353       1   22338   22314   22332   22356       1
   22335   22314   22332   22350       2   22335   22314   22332   22353       1
   22335   22314   22332   22356       1   22332   22350   22362   22380       2
   22332   22350   22362   22383       2   22326   22308   22323   22341       4
   22326   22308   22323   22347       4   22323   22341   22320   22344       4
   22320   22341   22323   22347       4   22317   22302   22311   22329       4
   22314   22296   22311   22329       4   22314   22332   22350   22365       2
   22314   22332   22350   22368       2   22311   22296   22314   22335       7
   22311   22296   22314   22338       7   22305   22293   22308   22326       4
   22299   22284   22296   22311       4   22299   22284   22296   22314       4
   22296   22311   22302   22317       4   22296   22314   22332   22353       8
   22296   22314   22332   22356       8   22293   22305   22320   22344       4
   22293   22308   22323   22347       4   22290   22305   22320   22344       4
   22287   22275   22284   22299       4   22287   22302   22311   22329       4
   22284   22296   22311   22329       4   22284   22296   22314   22335       7
   22284   22296   22314   22338       7   22281   22293   22308   22326       4
   22278   22287   22302   22317       4   22275   22287   22302   22317       4
   22272   22275   22284   22299       4   22644   22629   22641   22647       1
   22644   22629   22641   22650       1   22644   22629   22641   22653       1
   22638   22629   22641   22647       1   22638   22629   22641   22650       1
   22638   22629   22641   22653       1   22635   22626   22629   22638       1
   22635   22626   22629   22641       2   22635   22626   22629   22644       1
   22632   22626   22629   22638       1   22632   22626   22629   22641       2
   22632   22626   22629   22644       1   22626   22629   22641   22647       2
   22626   22629   22641   22650       2   22626   22629   22641   22653       2
   22623   22608   22626   22629       2   22623   22608   22626   22632       1
   22623   22608   22626   22635       1   22620   22608   22626   22629       2
   22620   22608   22626   22632       1   22620   22608   22626   22635       1
   22614   22590   22608   22620       1   22614   22590   22608   22623       1
   22614   22590   22608   22626       2   22611   22590   22608   22620       1
   22611   22590   22608   22623       1   22611   22590   22608   22626       2
   22608   22626   22629   22638       2   22608   22626   22629   22644       2
   22605   22584   22599   22617       4   22602   22578   22599   22617       4
   22596   22569   22590   22608       2   22596   22569   22590   22611       1
   22596   22569   22590   22614       1   22593   22569   22590   22608       2
   22593   22569   22590   22611       1   22593   22569   22590   22614       1
   22590   22608   22626   22632       2   22590   22608   22626   22635       2
   22587   22566   22584   22599       4   22587   22566   22584   22605       4
   22584   22599   22578   22602       4   22581   22563   22578   22599       4
   22581   22563   22578   22602       4   22578   22599   22584   22605       4
   22575   22554   22569   22590       2   22575   22554   22569   22593       1
   22575   22554   22569   22596       1   22572   22554   22569   22590       2
   22572   22554   22569   22593       1   22572   22554   22569   22596       1
   22569   22590   22608   22620       2   22569   22590   22608   22623       2
   22566   22551   22563   22581       4   22566   22584   22599   22617       4
   22563   22551   22566   22587       4   22563   22578   22599   22617       4
   22560   22542   22554   22569       2   22560   22542   22554   22572       1
   22560   22542   22554   22575       1   22557   22542   22554   22569       2
   22557   22542   22554   22572       1   22557   22542   22554   22575       1
   22554   22569   22590   22611       2   22554   22569   22590   22614       2
   22551   22563   22578   22602       4   22551   22566   22584   22605       4
   22548   22524   22542   22554       2   22548   22524   22542   22557       1
   22548   22524   22542   22560       1   22545   22524   22542   22554       2
   22545   22524   22542   22557       1   22545   22524   22542   22560       1
   22542   22554   22569   22593       2   22542   22554   22569   22596       2
   22539   22515   22533   22551       4   22536   22512   22533   22551       4
   22533   22551   22563   22581       4   22533   22551   22566   22587       4
   22530   22506   22524   22542       2   22530   22506   22524   22545       1
   22530   22506   22524   22548       1   22527   22506   22524   22542       2
   22527   22506   22524   22545       1   22527   22506   22524   22548       1
   22524   22542   22554   22572       2   22524   22542   22554   22575       2
   22518   22500   22515   22533       4   22518   22500   22515   22539       4
   22515   22533   22512   22536       4   22512   22533   22515   22539       4
   22509   22494   22503   22521       4   22506   22488   22503   22521       4
   22506   22524   22542   22557       2   22506   22524   22542   22560       2
   22503   22488   22506   22527       7   22503   22488   22506   22530       7
   22497   22485   22500   22518       4   22491   22476   22488   22503       4
   22491   22476   22488   22506       4   22488   22503   22494   22509       4
   22488   22506   22524   22545       8   22488   22506   22524   22548       8
   22485   22497   22512   22536       4   22485   22500   22515   22539       4
   22482   22497   22512   22536       4   22479   22467   22476   22491       4
   22479   22494   22503   22521       4   22476   22488   22503   22521       4
   22476   22488   22506   22527       7   22476   22488   22506   22530       7
   22473   22485   22500   22518       4   22470   22479   22494   22509       4
   22467   22479   22494   22509       4   22464   22467   22476   22491       4
   22836   22821   22833   22839       1   22836   22821   22833   22842       1
   22836   22821   22833   22845       1   22830   22821   22833   22839       1
   22830   22821   22833   22842       1   22830   22821   22833   22845       1
   22827   22818   22821   22830       1   22827   22818   22821   22833       2
   22827   22818   22821   22836       1   22824   22818   22821   22830       1
   22824   22818   22821   22833       2   22824   22818   22821   22836       1
   22818   22821   22833   22839       2   22818   22821   22833   22842       2
   22818   22821   22833   22845       2   22815   22800   22818   22821       2
   22815   22800   22818   22824       1   22815   22800   22818   22827       1
   22812   22800   22818   22821       2   22812   22800   22818   22824       1
   22812   22800   22818   22827       1   22806   22782   22800   22812       1
   22806   22782   22800   22815       1   22806   22782   22800   22818       2
   22803   22782   22800   22812       1   22803   22782   22800   22815       1
   22803   22782   22800   22818       2   22800   22818   22821   22830       2
   22800   22818   22821   22836       2   22797   22776   22791   22809       4
   22794   22770   22791   22809       4   22788   22761   22782   22800       2
   22788   22761   22782   22803       1   22788   22761   22782   22806       1
   22785   22761   22782   22800       2   22785   22761   22782   22803       1
   22785   22761   22782   22806       1   22782   22800   22818   22824       2
   22782   22800   22818   22827       2   22779   22758   22776   22791       4
   22779   22758   22776   22797       4   22776   22791   22770   22794       4
   22773   22755   22770   22791       4   22773   22755   22770   22794       4
   22770   22791   22776   22797       4   22767   22746   22761   22782       2
   22767   22746   22761   22785       1   22767   22746   22761   22788       1
   22764   22746   22761   22782       2   22764   22746   22761   22785       1
   22764   22746   22761   22788       1   22761   22782   22800   22812       2
   22761   22782   22800   22815       2   22758   22743   22755   22773       4
   22758   22776   22791   22809       4   22755   22743   22758   22779       4
   22755   22770   22791   22809       4   22752   22734   22746   22761       2
   22752   22734   22746   22764       1   22752   22734   22746   22767       1
   22749   22734   22746   22761       2   22749   22734   22746   22764       1
   22749   22734   22746   22767       1   22746   22761   22782   22803       2
   22746   22761   22782   22806       2   22743   22755   22770   22794       4
   22743   22758   22776   22797       4   22740   22716   22734   22746       2
   22740   22716   22734   22749       1   22740   22716   22734   22752       1
   22737   22716   22734   22746       2   22737   22716   22734   22749       1
   22737   22716   22734   22752       1   22734   22746   22761   22785       2
   22734   22746   22761   22788       2   22731   22707   22725   22743       4
   22728   22704   22725   22743       4   22725   22743   22755   22773       4
   22725   22743   22758   22779       4   22722   22698   22716   22734       2
   22722   22698   22716   22737       1   22722   22698   22716   22740       1
   22719   22698   22716   22734       2   22719   22698   22716   22737       1
   22719   22698   22716   22740       1   22716   22734   22746   22764       2
   22716   22734   22746   22767       2   22710   22692   22707   22725       4
   22710   22692   22707   22731       4   22707   22725   22704   22728       4
   22704   22725   22707   22731       4   22701   22686   22695   22713       4
   22698   22680   22695   22713       4   22698   22716   22734   22749       2
   22698   22716   22734   22752       2   22695   22680   22698   22719       7
   22695   22680   22698   22722       7   22689   22677   22692   22710       4
   22683   22668   22680   22695       4   22683   22668   22680   22698       4
   22680   22695   22686   22701       4   22680   22698   22716   22737       8
   22680   22698   22716   22740       8   22677   22689   22704   22728       4
   22677   22692   22707   22731       4   22674   22689   22704   22728       4
   22671   22659   22668   22683       4   22671   22686   22695   22713       4
   22668   22680   22695   22713       4   22668   22680   22698   22719       7
   22668   22680   22698   22722       7   22665   22677   22692   22710       4
   22662   22671   22686   22701       4   22659   22671   22686   22701       4
   22656   22659   22668   22683       4   23028   23013   23025   23031       1
   23028   23013   23025   23034       1   23028   23013   23025   23037       1
   23022   23013   23025   23031       1   23022   23013   23025   23034       1
   23022   23013   23025   23037       1   23019   23010   23013   23022       1
   23019   23010   23013   23025       2   23019   23010   23013   23028       1
   23016   23010   23013   23022       1   23016   23010   23013   23025       2
   23016   23010   23013   23028       1   23010   23013   23025   23031       2
   23010   23013   23025   23034       2   23010   23013   23025   23037       2
   23007   22992   23010   23013       2   23007   22992   23010   23016       1
   23007   22992   23010   23019       1   23004   22992   23010   23013       2
   23004   22992   23010   23016       1   23004   22992   23010   23019       1
   22998   22974   22992   23004       1   22998   22974   22992   23007       1
   22998   22974   22992   23010       2   22995   22974   22992   23004       1
   22995   22974   22992   23007       1   22995   22974   22992   23010       2
   22992   23010   23013   23022       2   22992   23010   23013   23028       2
   22989   22968   22983   23001       4   22986   22962   22983   23001       4
   22980   22953   22974   22992       2   22980   22953   22974   22995       1
   22980   22953   22974   22998       1   22977   22953   22974   22992       2
   22977   22953   22974   22995       1   22977   22953   22974   22998       1
   22974   22992   23010   23016       2   22974   22992   23010   23019       2
   22971   22950   22968   22983       4   22971   22950   22968   22989       4
   22968   22983   22962   22986       4   22965   22947   22962   22983       4
   22965   22947   22962   22986       4   22962   22983   22968   22989       4
   22959   22938   22953   22974       2   22959   22938   22953   22977       1
   22959   22938   22953   22980       1   22956   22938   22953   22974       2
   22956   22938   22953   22977       1   22956   22938   22953   22980       1
   22953   22974   22992   23004       2   22953   22974   22992   23007       2
   22950   22935   22947   22965       4   22950   22968   22983   23001       4
   22947   22935   22950   22971       4   22947   22962   22983   23001       4
   22944   22926   22938   22953       2   22944   22926   22938   22956       1
   22944   22926   22938   22959       1   22941   22926   22938   22953       2
   22941   22926   22938   22956       1   22941   22926   22938   22959       1
   22938   22953   22974   22995       2   22938   22953   22974   22998       2
   22935   22947   22962   22986       4   22935   22950   22968   22989       4
   22932   22908   22926   22938       2   22932   22908   22926   22941       1
   22932   22908   22926   22944       1   22929   22908   22926   22938       2
   22929   22908   22926   22941       1   22929   22908   22926   22944       1
   22926   22938   22953   22977       2   22926   22938   22953   22980       2
   22923   22899   22917   22935       4   22920   22896   22917   22935       4
   22917   22935   22947   22965       4   22917   22935   22950   22971       4
   22914   22890   22908   22926       2   22914   22890   22908   22929       1
   22914   22890   22908   22932       1   22911   22890   22908   22926       2
   22911   22890   22908   22929       1   22911   22890   22908   22932       1
   22908   22926   22938   22956       2   22908   22926   22938   22959       2
   22902   22884   22899   22917       4   22902   22884   22899   22923       4
   22899   22917   22896   22920       4   22896   22917   22899   22923       4
   22893   22878   22887   22905       4   22890   22872   22887   22905       4
   22890   22908   22926   22941       2   22890   22908   22926   22944       2
   22887   22872   22890   22911       7   22887   22872   22890   22914       7
   22881   22869   22884   22902       4   22875   22860   22872   22887       4
   22875   22860   22872   22890       4   22872   22887   22878   22893       4
   22872   22890   22908   22929       8   22872   22890   22908   22932       8
   22869   22881   22896   22920       4   22869   22884   22899   22923       4
   22866   22881   22896   22920       4   22863   22851   22860   22875       4
   22863   22878   22887   22905       4   22860   22872   22887   22905       4
   22860   22872   22890   22911       7   22860   22872   22890   22914       7
   22857   22869   22884   22902       4   22854   22863   22878   22893       4
   22851   22863   22878   22893       4   22848   22851   22860   22875       4
   23220   23205   23217   23223       1   23220   23205   23217   23226       1
   23220   23205   23217   23229       1   23214   23205   23217   23223       1
   23214   23205   23217   23226       1   23214   23205   23217   23229       1
   23211   23202   23205   23214       1   23211   23202   23205   23217       2
   23211   23202   23205   23220       1   23208   23202   23205   23214       1
   23208   23202   23205   23217       2   23208   23202   23205   23220       1
   23202   23205   23217   23223       2   23202   23205   23217   23226       2
   23202   23205   23217   23229       2   23199   23184   23202   23205       2
   23199   23184   23202   23208       1   23199   23184   23202   23211       1
   23196   23184   23202   23205       2   23196   23184   23202   23208       1
   23196   23184   23202   23211       1   23190   23166   23184   23196       1
   23190   23166   23184   23199       1   23190   23166   23184   23202       2
   23187   23166   23184   23196       1   23187   23166   23184   23199       1
   23187   23166   23184   23202       2   23184   23202   23205   23214       2
   23184   23202   23205   23220       2   23181   23160   23175   23193       4
   23178   23154   23175   23193       4   23172   23145   23166   23184       2
   23172   23145   23166   23187       1   23172   23145   23166   23190       1
   23169   23145   23166   23184       2   23169   23145   23166   23187       1
   23169   23145   23166   23190       1   23166   23184   23202   23208       2
   23166   23184   23202   23211       2   23163   23142   23160   23175       4
   23163   23142   23160   23181       4   23160   23175   23154   23178       4
   23157   23139   23154   23175       4   23157   23139   23154   23178       4
   23154   23175   23160   23181       4   23151   23130   23145   23166       2
   23151   23130   23145   23169       1   23151   23130   23145   23172       1
   23148   23130   23145   23166       2   23148   23130   23145   23169       1
   23148   23130   23145   23172       1   23145   23166   23184   23196       2
   23145   23166   23184   23199       2   23142   23127   23139   23157       4
   23142   23160   23175   23193       4   23139   23127   23142   23163       4
   23139   23154   23175   23193       4   23136   23118   23130   23145       2
   23136   23118   23130   23148       1   23136   23118   23130   23151       1
   23133   23118   23130   23145       2   23133   23118   23130   23148       1
   23133   23118   23130   23151       1   23130   23145   23166   23187       2
   23130   23145   23166   23190       2   23127   23139   23154   23178       4
   23127   23142   23160   23181       4   23124   23100   23118   23130       2
   23124   23100   23118   23133       1   23124   23100   23118   23136       1
   23121   23100   23118   23130       2   23121   23100   23118   23133       1
   23121   23100   23118   23136       1   23118   23130   23145   23169       2
   23118   23130   23145   23172       2   23115   23091   23109   23127       4
   23112   23088   23109   23127       4   23109   23127   23139   23157       4
   23109   23127   23142   23163       4   23106   23082   23100   23118       2
   23106   23082   23100   23121       1   23106   23082   23100   23124       1
   23103   23082   23100   23118       2   23103   23082   23100   23121       1
   23103   23082   23100   23124       1   23100   23118   23130   23148       2
   23100   23118   23130   23151       2   23094   23076   23091   23109       4
   23094   23076   23091   23115       4   23091   23109   23088   23112       4
   23088   23109   23091   23115       4   23085   23070   23079   23097       4
   23082   23064   23079   23097       4   23082   23100   23118   23133       2
   23082   23100   23118   23136       2   23079   23064   23082   23103       7
   23079   23064   23082   23106       7   23073   23061   23076   23094       4
   23067   23052   23064   23079       4   23067   23052   23064   23082       4
   23064   23079   23070   23085       4   23064   23082   23100   23121       8
   23064   23082   23100   23124       8   23061   23073   23088   23112       4
   23061   23076   23091   23115       4   23058   23073   23088   23112       4
   23055   23043   23052   23067       4   23055   23070   23079   23097       4
   23052   23064   23079   23097       4   23052   23064   23082   23103       7
   23052   23064   23082   23106       7   23049   23061   23076   23094       4
   23046   23055   23070   23085       4   23043   23055   23070   23085       4
   23040   23043   23052   23067       4   23412   23397   23409   23415       1
   23412   23397   23409   23418       1   23412   23397   23409   23421       1
   23406   23397   23409   23415       1   23406   23397   23409   23418       1
   23406   23397   23409   23421       1   23403   23394   23397   23406       1
   23403   23394   23397   23409       2   23403   23394   23397   23412       1
   23400   23394   23397   23406       1   23400   23394   23397   23409       2
   23400   23394   23397   23412       1   23394   23397   23409   23415       2
   23394   23397   23409   23418       2   23394   23397   23409   23421       2
   23391   23376   23394   23397       2   23391   23376   23394   23400       1
   23391   23376   23394   23403       1   23388   23376   23394   23397       2
   23388   23376   23394   23400       1   23388   23376   23394   23403       1
   23382   23358   23376   23388       1   23382   23358   23376   23391       1
   23382   23358   23376   23394       2   23379   23358   23376   23388       1
   23379   23358   23376   23391       1   23379   23358   23376   23394       2
   23376   23394   23397   23406       2   23376   23394   23397   23412       2
   23373   23352   23367   23385       4   23370   23346   23367   23385       4
   23364   23337   23358   23376       2   23364   23337   23358   23379       1
   23364   23337   23358   23382       1   23361   23337   23358   23376       2
   23361   23337   23358   23379       1   23361   23337   23358   23382       1
   23358   23376   23394   23400       2   23358   23376   23394   23403       2
   23355   23334   23352   23367       4   23355   23334   23352   23373       4
   23352   23367   23346   23370       4   23349   23331   23346   23367       4
   23349   23331   23346   23370       4   23346   23367   23352   23373       4
   23343   23322   23337   23358       2   23343   23322   23337   23361       1
   23343   23322   23337   23364       1   23340   23322   23337   23358       2
   23340   23322   23337   23361       1   23340   23322   23337   23364       1
   23337   23358   23376   23388       2   23337   23358   23376   23391       2
   23334   23319   23331   23349       4   23334   23352   23367   23385       4
   23331   23319   23334   23355       4   23331   23346   23367   23385       4
   23328   23310   23322   23337       2   23328   23310   23322   23340       1
   23328   23310   23322   23343       1   23325   23310   23322   23337       2
   23325   23310   23322   23340       1   23325   23310   23322   23343       1
   23322   23337   23358   23379       2   23322   23337   23358   23382       2
   23319   23331   23346   23370       4   23319   23334   23352   23373       4
   23316   23292   23310   23322       2   23316   23292   23310   23325       1
   23316   23292   23310   23328       1   23313   23292   23310   23322       2
   23313   23292   23310   23325       1   23313   23292   23310   23328       1
   23310   23322   23337   23361       2   23310   23322   23337   23364       2
   23307   23283   23301   23319       4   23304   23280   23301   23319       4
   23301   23319   23331   23349       4   23301   23319   23334   23355       4
   23298   23274   23292   23310       2   23298   23274   23292   23313       1
   23298   23274   23292   23316       1   23295   23274   23292   23310       2
   23295   23274   23292   23313       1   23295   23274   23292   23316       1
   23292   23310   23322   23340       2   23292   23310   23322   23343       2
   23286   23268   23283   23301       4   23286   23268   23283   23307       4
   23283   23301   23280   23304       4   23280   23301   23283   23307       4
   23277   23262   23271   23289       4   23274   23256   23271   23289       4
   23274   23292   23310   23325       2   23274   23292   23310   23328       2
   23271   23256   23274   23295       7   23271   23256   23274   23298       7
   23265   23253   23268   23286       4   23259   23244   23256   23271       4
   23259   23244   23256   23274       4   23256   23271   23262   23277       4
   23256   23274   23292   23313       8   23256   23274   23292   23316       8
   23253   23265   23280   23304       4   23253   23268   23283   23307       4
   23250   23265   23280   23304       4   23247   23235   23244   23259       4
   23247   23262   23271   23289       4   23244   23256   23271   23289       4
   23244   23256   23274   23295       7   23244   23256   23274   23298       7
   23241   23253   23268   23286       4   23238   23247   23262   23277       4
   23235   23247   23262   23277       4   23232   23235   23244   23259       4
   23604   23589   23601   23607       1   23604   23589   23601   23610       1
   23604   23589   23601   23613       1   23598   23589   23601   23607       1
   23598   23589   23601   23610       1   23598   23589   23601   23613       1
   23595   23586   23589   23598       1   23595   23586   23589   23601       2
   23595   23586   23589   23604       1   23592   23586   23589   23598       1
   23592   23586   23589   23601       2   23592   23586   23589   23604       1
   23586   23589   23601   23607       2   23586   23589   23601   23610       2
   23586   23589   23601   23613       2   23583   23568   23586   23589       2
   23583   23568   23586   23592       1   23583   23568   23586   23595       1
   23580   23568   23586   23589       2   23580   23568   23586   23592       1
   23580   23568   23586   23595       1   23574   23550   23568   23580       1
   23574   23550   23568   23583       1   23574   23550   23568   23586       2
   23571   23550   23568   23580       1   23571   23550   23568   23583       1
   23571   23550   23568   23586       2   23568   23586   23589   23598       2
   23568   23586   23589   23604       2   23565   23544   23559   23577       4
   23562   23538   23559   23577       4   23556   23529   23550   23568       2
   23556   23529   23550   23571       1   23556   23529   23550   23574       1
   23553   23529   23550   23568       2   23553   23529   23550   23571       1
   23553   23529   23550   23574       1   23550   23568   23586   23592       2
   23550   23568   23586   23595       2   23547   23526   23544   23559       4
   23547   23526   23544   23565       4   23544   23559   23538   23562       4
   23541   23523   23538   23559       4   23541   23523   23538   23562       4
   23538   23559   23544   23565       4   23535   23514   23529   23550       2
   23535   23514   23529   23553       1   23535   23514   23529   23556       1
   23532   23514   23529   23550       2   23532   23514   23529   23553       1
   23532   23514   23529   23556       1   23529   23550   23568   23580       2
   23529   23550   23568   23583       2   23526   23511   23523   23541       4
   23526   23544   23559   23577       4   23523   23511   23526   23547       4
   23523   23538   23559   23577       4   23520   23502   23514   23529       2
   23520   23502   23514   23532       1   23520   23502   23514   23535       1
   23517   23502   23514   23529       2   23517   23502   23514   23532       1
   23517   23502   23514   23535       1   23514   23529   23550   23571       2
   23514   23529   23550   23574       2   23511   23523   23538   23562       4
   23511   23526   23544   23565       4   23508   23484   23502   23514       2
   23508   23484   23502   23517       1   23508   23484   23502   23520       1
   23505   23484   23502   23514       2   23505   23484   23502   23517       1
   23505   23484   23502   23520       1   23502   23514   23529   23553       2
   23502   23514   23529   23556       2   23499   23475   23493   23511       4
   23496   23472   23493   23511       4   23493   23511   23523   23541       4
   23493   23511   23526   23547       4   23490   23466   23484   23502       2
   23490   23466   23484   23505       1   23490   23466   23484   23508       1
   23487   23466   23484   23502       2   23487   23466   23484   23505       1
   23487   23466   23484   23508       1   23484   23502   23514   23532       2
   23484   23502   23514   23535       2   23478   23460   23475   23493       4
   23478   23460   23475   23499       4   23475   23493   23472   23496       4
   23472   23493   23475   23499       4   23469   23454   23463   23481       4
   23466   23448   23463   23481       4   23466   23484   23502   23517       2
   23466   23484   23502   23520       2   23463   23448   23466   23487       7
   23463   23448   23466   23490       7   23457   23445   23460   23478       4
   23451   23436   23448   23463       4   23451   23436   23448   23466       4
   23448   23463   23454   23469       4   23448   23466   23484   23505       8
   23448   23466   23484   23508       8   23445   23457   23472   23496       4
   23445   23460   23475   23499       4   23442   23457   23472   23496       4
   23439   23427   23436   23451       4   23439   23454   23463   23481       4
   23436   23448   23463   23481       4   23436   23448   23466   23487       7
   23436   23448   23466   23490       7   23433   23445   23460   23478       4
   23430   23439   23454   23469       4   23427   23439   23454   23469       4
   23424   23427   23436   23451       4   23796   23781   23793   23799       1
   23796   23781   23793   23802       1   23796   23781   23793   23805       1
   23790   23781   23793   23799       1   23790   23781   23793   23802       1
   23790   23781   23793   23805       1   23787   23778   23781   23790       1
   23787   23778   23781   23793       2   23787   23778   23781   23796       1
   23784   23778   23781   23790       1   23784   23778   23781   23793       2
   23784   23778   23781   23796       1   23778   23781   23793   23799       2
   23778   23781   23793   23802       2   23778   23781   23793   23805       2
   23775   23760   23778   23781       2   23775   23760   23778   23784       1
   23775   23760   23778   23787       1   23772   23760   23778   23781       2
   23772   23760   23778   23784       1   23772   23760   23778   23787       1
   23766   23742   23760   23772       1   23766   23742   23760   23775       1
   23766   23742   23760   23778       2   23763   23742   23760   23772       1
   23763   23742   23760   23775       1   23763   23742   23760   23778       2
   23760   23778   23781   23790       2   23760   23778   23781   23796       2
   23757   23736   23751   23769       4   23754   23730   23751   23769       4
   23748   23721   23742   23760       2   23748   23721   23742   23763       1
   23748   23721   23742   23766       1   23745   23721   23742   23760       2
   23745   23721   23742   23763       1   23745   23721   23742   23766       1
   23742   23760   23778   23784       2   23742   23760   23778   23787       2
   23739   23718   23736   23751       4   23739   23718   23736   23757       4
   23736   23751   23730   23754       4   23733   23715   23730   23751       4
   23733   23715   23730   23754       4   23730   23751   23736   23757       4
   23727   23706   23721   23742       2   23727   23706   23721   23745       1
   23727   23706   23721   23748       1   23724   23706   23721   23742       2
   23724   23706   23721   23745       1   23724   23706   23721   23748       1
   23721   23742   23760   23772       2   23721   23742   23760   23775       2
   23718   23703   23715   23733       4   23718   23736   23751   23769       4
   23715   23703   23718   23739       4   23715   23730   23751   23769       4
   23712   23694   23706   23721       2   23712   23694   23706   23724       1
   23712   23694   23706   23727       1   23709   23694   23706   23721       2
   23709   23694   23706   23724       1   23709   23694   23706   23727       1
   23706   23721   23742   23763       2   23706   23721   23742   23766       2
   23703   23715   23730   23754       4   23703   23718   23736   23757       4
   23700   23676   23694   23706       2   23700   23676   23694   23709       1
   23700   23676   23694   23712       1   23697   23676   23694   23706       2
   23697   23676   23694   23709       1   23697   23676   23694   23712       1
   23694   23706   23721   23745       2   23694   23706   23721   23748       2
   23691   23667   23685   23703       4   23688   23664   23685   23703       4
   23685   23703   23715   23733       4   23685   23703   23718   23739       4
   23682   23658   23676   23694       2   23682   23658   23676   23697       1
   23682   23658   23676   23700       1   23679   23658   23676   23694       2
   23679   23658   23676   23697       1   23679   23658   23676   23700       1
   23676   23694   23706   23724       2   23676   23694   23706   23727       2
   23670   23652   23667   23685       4   23670   23652   23667   23691       4
   23667   23685   23664   23688       4   23664   23685   23667   23691       4
   23661   23646   23655   23673       4   23658   23640   23655   23673       4
   23658   23676   23694   23709       2   23658   23676   23694   23712       2
   23655   23640   23658   23679       7   23655   23640   23658   23682       7
   23649   23637   23652   23670       4   23643   23628   23640   23655       4
   23643   23628   23640   23658       4   23640   23655   23646   23661       4
   23640   23658   23676   23697       8   23640   23658   23676   23700       8
   23637   23649   23664   23688       4   23637   23652   23667   23691       4
   23634   23649   23664   23688       4   23631   23619   23628   23643       4
   23631   23646   23655   23673       4   23628   23640   23655   23673       4
   23628   23640   23658   23679       7   23628   23640   23658   23682       7
   23625   23637   23652   23670       4   23622   23631   23646   23661       4
   23619   23631   23646   23661       4   23616   23619   23628   23643       4
   23988   23973   23985   23991       1   23988   23973   23985   23994       1
   23988   23973   23985   23997       1   23982   23973   23985   23991       1
   23982   23973   23985   23994       1   23982   23973   23985   23997       1
   23979   23970   23973   23982       1   23979   23970   23973   23985       2
   23979   23970   23973   23988       1   23976   23970   23973   23982       1
   23976   23970   23973   23985       2   23976   23970   23973   23988       1
   23970   23973   23985   23991       2   23970   23973   23985   23994       2
   23970   23973   23985   23997       2   23967   23952   23970   23973       2
   23967   23952   23970   23976       1   23967   23952   23970   23979       1
   23964   23952   23970   23973       2   23964   23952   23970   23976       1
   23964   23952   23970   23979       1   23958   23934   23952   23964       1
   23958   23934   23952   23967       1   23958   23934   23952   23970       2
   23955   23934   23952   23964       1   23955   23934   23952   23967       1
   23955   23934   23952   23970       2   23952   23970   23973   23982       2
   23952   23970   23973   23988       2   23949   23928   23943   23961       4
   23946   23922   23943   23961       4   23940   23913   23934   23952       2
   23940   23913   23934   23955       1   23940   23913   23934   23958       1
   23937   23913   23934   23952       2   23937   23913   23934   23955       1
   23937   23913   23934   23958       1   23934   23952   23970   23976       2
   23934   23952   23970   23979       2   23931   23910   23928   23943       4
   23931   23910   23928   23949       4   23928   23943   23922   23946       4
   23925   23907   23922   23943       4   23925   23907   23922   23946       4
   23922   23943   23928   23949       4   23919   23898   23913   23934       2
   23919   23898   23913   23937       1   23919   23898   23913   23940       1
   23916   23898   23913   23934       2   23916   23898   23913   23937       1
   23916   23898   23913   23940       1   23913   23934   23952   23964       2
   23913   23934   23952   23967       2   23910   23895   23907   23925       4
   23910   23928   23943   23961       4   23907   23895   23910   23931       4
   23907   23922   23943   23961       4   23904   23886   23898   23913       2
   23904   23886   23898   23916       1   23904   23886   23898   23919       1
   23901   23886   23898   23913       2   23901   23886   23898   23916       1
   23901   23886   23898   23919       1   23898   23913   23934   23955       2
   23898   23913   23934   23958       2   23895   23907   23922   23946       4
   23895   23910   23928   23949       4   23892   23868   23886   23898       2
   23892   23868   23886   23901       1   23892   23868   23886   23904       1
   23889   23868   23886   23898       2   23889   23868   23886   23901       1
   23889   23868   23886   23904       1   23886   23898   23913   23937       2
   23886   23898   23913   23940       2   23883   23859   23877   23895       4
   23880   23856   23877   23895       4   23877   23895   23907   23925       4
   23877   23895   23910   23931       4   23874   23850   23868   23886       2
   23874   23850   23868   23889       1   23874   23850   23868   23892       1
   23871   23850   23868   23886       2   23871   23850   23868   23889       1
   23871   23850   23868   23892       1   23868   23886   23898   23916       2
   23868   23886   23898   23919       2   23862   23844   23859   23877       4
   23862   23844   23859   23883       4   23859   23877   23856   23880       4
   23856   23877   23859   23883       4   23853   23838   23847   23865       4
   23850   23832   23847   23865       4   23850   23868   23886   23901       2
   23850   23868   23886   23904       2   23847   23832   23850   23871       7
   23847   23832   23850   23874       7   23841   23829   23844   23862       4
   23835   23820   23832   23847       4   23835   23820   23832   23850       4
   23832   23847   23838   23853       4   23832   23850   23868   23889       8
   23832   23850   23868   23892       8   23829   23841   23856   23880       4
   23829   23844   23859   23883       4   23826   23841   23856   23880       4
   23823   23811   23820   23835       4   23823   23838   23847   23865       4
   23820   23832   23847   23865       4   23820   23832   23850   23871       7
   23820   23832   23850   23874       7   23817   23829   23844   23862       4
   23814   23823   23838   23853       4   23811   23823   23838   23853       4
   23808   23811   23820   23835       4   24180   24165   24177   24183       1
   24180   24165   24177   24186       1   24180   24165   24177   24189       1
   24174   24165   24177   24183       1   24174   24165   24177   24186       1
   24174   24165   24177   24189       1   24171   24162   24165   24174       1
   24171   24162   24165   24177       2   24171   24162   24165   24180       1
   24168   24162   24165   24174       1   24168   24162   24165   24177       2
   24168   24162   24165   24180       1   24162   24165   24177   24183       2
   24162   24165   24177   24186       2   24162   24165   24177   24189       2
   24159   24144   24162   24165       2   24159   24144   24162   24168       1
   24159   24144   24162   24171       1   24156   24144   24162   24165       2
   24156   24144   24162   24168       1   24156   24144   24162   24171       1
   24150   24126   24144   24156       1   24150   24126   24144   24159       1
   24150   24126   24144   24162       2   24147   24126   24144   24156       1
   24147   24126   24144   24159       1   24147   24126   24144   24162       2
   24144   24162   24165   24174       2   24144   24162   24165   24180       2
   24141   24120   24135   24153       4   24138   24114   24135   24153       4
   24132   24105   24126   24144       2   24132   24105   24126   24147       1
   24132   24105   24126   24150       1   24129   24105   24126   24144       2
   24129   24105   24126   24147       1   24129   24105   24126   24150       1
   24126   24144   24162   24168       2   24126   24144   24162   24171       2
   24123   24102   24120   24135       4   24123   24102   24120   24141       4
   24120   24135   24114   24138       4   24117   24099   24114   24135       4
   24117   24099   24114   24138       4   24114   24135   24120   24141       4
   24111   24090   24105   24126       2   24111   24090   24105   24129       1
   24111   24090   24105   24132       1   24108   24090   24105   24126       2
   24108   24090   24105   24129       1   24108   24090   24105   24132       1
   24105   24126   24144   24156       2   24105   24126   24144   24159       2
   24102   24087   24099   24117       4   24102   24120   24135   24153       4
   24099   24087   24102   24123       4   24099   24114   24135   24153       4
   24096   24078   24090   24105       2   24096   24078   24090   24108       1
   24096   24078   24090   24111       1   24093   24078   24090   24105       2
   24093   24078   24090   24108       1   24093   24078   24090   24111       1
   24090   24105   24126   24147       2   24090   24105   24126   24150       2
   24087   24099   24114   24138       4   24087   24102   24120   24141       4
   24084   24060   24078   24090       2   24084   24060   24078   24093       1
   24084   24060   24078   24096       1   24081   24060   24078   24090       2
   24081   24060   24078   24093       1   24081   24060   24078   24096       1
   24078   24090   24105   24129       2   24078   24090   24105   24132       2
   24075   24051   24069   24087       4   24072   24048   24069   24087       4
   24069   24087   24099   24117       4   24069   24087   24102   24123       4
   24066   24042   24060   24078       2   24066   24042   24060   24081       1
   24066   24042   24060   24084       1   24063   24042   24060   24078       2
   24063   24042   24060   24081       1   24063   24042   24060   24084       1
   24060   24078   24090   24108       2   24060   24078   24090   24111       2
   24054   24036   24051   24069       4   24054   24036   24051   24075       4
   24051   24069   24048   24072       4   24048   24069   24051   24075       4
   24045   24030   24039   24057       4   24042   24024   24039   24057       4
   24042   24060   24078   24093       2   24042   24060   24078   24096       2
   24039   24024   24042   24063       7   24039   24024   24042   24066       7
   24033   24021   24036   24054       4   24027   24012   24024   24039       4
   24027   24012   24024   24042       4   24024   24039   24030   24045       4
   24024   24042   24060   24081       8   24024   24042   24060   24084       8
   24021   24033   24048   24072       4   24021   24036   24051   24075       4
   24018   24033   24048   24072       4   24015   24003   24012   24027       4
   24015   24030   24039   24057       4   24012   24024   24039   24057       4
   24012   24024   24042   24063       7   24012   24024   24042   24066       7
   24009   24021   24036   24054       4   24006   24015   24030   24045       4
   24003   24015   24030   24045       4   24000   24003   24012   24027       4
   24372   24357   24369   24375       1   24372   24357   24369   24378       1
   24372   24357   24369   24381       1   24366   24357   24369   24375       1
   24366   24357   24369   24378       1   24366   24357   24369   24381       1
   24363   24354   24357   24366       1   24363   24354   24357   24369       2
   24363   24354   24357   24372       1   24360   24354   24357   24366       1
   24360   24354   24357   24369       2   24360   24354   24357   24372       1
   24354   24357   24369   24375       2   24354   24357   24369   24378       2
   24354   24357   24369   24381       2   24351   24336   24354   24357       2
   24351   24336   24354   24360       1   24351   24336   24354   24363       1
   24348   24336   24354   24357       2   24348   24336   24354   24360       1
   24348   24336   24354   24363       1   24342   24318   24336   24348       1
   24342   24318   24336   24351       1   24342   24318   24336   24354       2
   24339   24318   24336   24348       1   24339   24318   24336   24351       1
   24339   24318   24336   24354       2   24336   24354   24357   24366       2
   24336   24354   24357   24372       2   24333   24312   24327   24345       4
   24330   24306   24327   24345       4   24324   24297   24318   24336       2
   24324   24297   24318   24339       1   24324   24297   24318   24342       1
   24321   24297   24318   24336       2   24321   24297   24318   24339       1
   24321   24297   24318   24342       1   24318   24336   24354   24360       2
   24318   24336   24354   24363       2   24315   24294   24312   24327       4
   24315   24294   24312   24333       4   24312   24327   24306   24330       4
   24309   24291   24306   24327       4   24309   24291   24306   24330       4
   24306   24327   24312   24333       4   24303   24282   24297   24318       2
   24303   24282   24297   24321       1   24303   24282   24297   24324       1
   24300   24282   24297   24318       2   24300   24282   24297   24321       1
   24300   24282   24297   24324       1   24297   24318   24336   24348       2
   24297   24318   24336   24351       2   24294   24279   24291   24309       4
   24294   24312   24327   24345       4   24291   24279   24294   24315       4
   24291   24306   24327   24345       4   24288   24270   24282   24297       2
   24288   24270   24282   24300       1   24288   24270   24282   24303       1
   24285   24270   24282   24297       2   24285   24270   24282   24300       1
   24285   24270   24282   24303       1   24282   24297   24318   24339       2
   24282   24297   24318   24342       2   24279   24291   24306   24330       4
   24279   24294   24312   24333       4   24276   24252   24270   24282       2
   24276   24252   24270   24285       1   24276   24252   24270   24288       1
   24273   24252   24270   24282       2   24273   24252   24270   24285       1
   24273   24252   24270   24288       1   24270   24282   24297   24321       2
   24270   24282   24297   24324       2   24267   24243   24261   24279       4
   24264   24240   24261   24279       4   24261   24279   24291   24309       4
   24261   24279   24294   24315       4   24258   24234   24252   24270       2
   24258   24234   24252   24273       1   24258   24234   24252   24276       1
   24255   24234   24252   24270       2   24255   24234   24252   24273       1
   24255   24234   24252   24276       1   24252   24270   24282   24300       2
   24252   24270   24282   24303       2   24246   24228   24243   24261       4
   24246   24228   24243   24267       4   24243   24261   24240   24264       4
   24240   24261   24243   24267       4   24237   24222   24231   24249       4
   24234   24216   24231   24249       4   24234   24252   24270   24285       2
   24234   24252   24270   24288       2   24231   24216   24234   24255       7
   24231   24216   24234   24258       7   24225   24213   24228   24246       4
   24219   24204   24216   24231       4   24219   24204   24216   24234       4
   24216   24231   24222   24237       4   24216   24234   24252   24273       8
   24216   24234   24252   24276       8   24213   24225   24240   24264       4
   24213   24228   24243   24267       4   24210   24225   24240   24264       4
   24207   24195   24204   24219       4   24207   24222   24231   24249       4
   24204   24216   24231   24249       4   24204   24216   24234   24255       7
   24204   24216   24234   24258       7   24201   24213   24228   24246       4
   24198   24207   24222   24237       4   24195   24207   24222   24237       4
   24192   24195   24204   24219       4   24564   24549   24561   24567       1
   24564   24549   24561   24570       1   24564   24549   24561   24573       1
   24558   24549   24561   24567       1   24558   24549   24561   24570       1
   24558   24549   24561   24573       1   24555   24546   24549   24558       1
   24555   24546   24549   24561       2   24555   24546   24549   24564       1
   24552   24546   24549   24558       1   24552   24546   24549   24561       2
   24552   24546   24549   24564       1   24546   24549   24561   24567       2
   24546   24549   24561   24570       2   24546   24549   24561   24573       2
   24543   24528   24546   24549       2   24543   24528   24546   24552       1
   24543   24528   24546   24555       1   24540   24528   24546   24549       2
   24540   24528   24546   24552       1   24540   24528   24546   24555       1
   24534   24510   24528   24540       1   24534   24510   24528   24543       1
   24534   24510   24528   24546       2   24531   24510   24528   24540       1
   24531   24510   24528   24543       1   24531   24510   24528   24546       2
   24528   24546   24549   24558       2   24528   24546   24549   24564       2
   24525   24504   24519   24537       4   24522   24498   24519   24537       4
   24516   24489   24510   24528       2   24516   24489   24510   24531       1
   24516   24489   24510   24534       1   24513   24489   24510   24528       2
   24513   24489   24510   24531       1   24513   24489   24510   24534       1
   24510   24528   24546   24552       2   24510   24528   24546   24555       2
   24507   24486   24504   24519       4   24507   24486   24504   24525       4
   24504   24519   24498   24522       4   24501   24483   24498   24519       4
   24501   24483   24498   24522       4   24498   24519   24504   24525       4
   24495   24474   24489   24510       2   24495   24474   24489   24513       1
   24495   24474   24489   24516       1   24492   24474   24489   24510       2
   24492   24474   24489   24513       1   24492   24474   24489   24516       1
   24489   24510   24528   24540       2   24489   24510   24528   24543       2
   24486   24471   24483   24501       4   24486   24504   24519   24537       4
   24483   24471   24486   24507       4   24483   24498   24519   24537       4
   24480   24462   24474   24489       2   24480   24462   24474   24492       1
   24480   24462   24474   24495       1   24477   24462   24474   24489       2
   24477   24462   24474   24492       1   24477   24462   24474   24495       1
   24474   24489   24510   24531       2   24474   24489   24510   24534       2
   24471   24483   24498   24522       4   24471   24486   24504   24525       4
   24468   24444   24462   24474       2   24468   24444   24462   24477       1
   24468   24444   24462   24480       1   24465   24444   24462   24474       2
   24465   24444   24462   24477       1   24465   24444   24462   24480       1
   24462   24474   24489   24513       2   24462   24474   24489   24516       2
   24459   24435   24453   24471       4   24456   24432   24453   24471       4
   24453   24471   24483   24501       4   24453   24471   24486   24507       4
   24450   24426   24444   24462       2   24450   24426   24444   24465       1
   24450   24426   24444   24468       1   24447   24426   24444   24462       2
   24447   24426   24444   24465       1   24447   24426   24444   24468       1
   24444   24462   24474   24492       2   24444   24462   24474   24495       2
   24438   24420   24435   24453       4   24438   24420   24435   24459       4
   24435   24453   24432   24456       4   24432   24453   24435   24459       4
   24429   24414   24423   24441       4   24426   24408   24423   24441       4
   24426   24444   24462   24477       2   24426   24444   24462   24480       2
   24423   24408   24426   24447       7   24423   24408   24426   24450       7
   24417   24405   24420   24438       4   24411   24396   24408   24423       4
   24411   24396   24408   24426       4   24408   24423   24414   24429       4
   24408   24426   24444   24465       8   24408   24426   24444   24468       8
   24405   24417   24432   24456       4   24405   24420   24435   24459       4
   24402   24417   24432   24456       4   24399   24387   24396   24411       4
   24399   24414   24423   24441       4   24396   24408   24423   24441       4
   24396   24408   24426   24447       7   24396   24408   24426   24450       7
   24393   24405   24420   24438       4   24390   24399   24414   24429       4
   24387   24399   24414   24429       4   24384   24387   24396   24411       4
   24756   24741   24753   24759       1   24756   24741   24753   24762       1
   24756   24741   24753   24765       1   24750   24741   24753   24759       1
   24750   24741   24753   24762       1   24750   24741   24753   24765       1
   24747   24738   24741   24750       1   24747   24738   24741   24753       2
   24747   24738   24741   24756       1   24744   24738   24741   24750       1
   24744   24738   24741   24753       2   24744   24738   24741   24756       1
   24738   24741   24753   24759       2   24738   24741   24753   24762       2
   24738   24741   24753   24765       2   24735   24720   24738   24741       2
   24735   24720   24738   24744       1   24735   24720   24738   24747       1
   24732   24720   24738   24741       2   24732   24720   24738   24744       1
   24732   24720   24738   24747       1   24726   24702   24720   24732       1
   24726   24702   24720   24735       1   24726   24702   24720   24738       2
   24723   24702   24720   24732       1   24723   24702   24720   24735       1
   24723   24702   24720   24738       2   24720   24738   24741   24750       2
   24720   24738   24741   24756       2   24717   24696   24711   24729       4
   24714   24690   24711   24729       4   24708   24681   24702   24720       2
   24708   24681   24702   24723       1   24708   24681   24702   24726       1
   24705   24681   24702   24720       2   24705   24681   24702   24723       1
   24705   24681   24702   24726       1   24702   24720   24738   24744       2
   24702   24720   24738   24747       2   24699   24678   24696   24711       4
   24699   24678   24696   24717       4   24696   24711   24690   24714       4
   24693   24675   24690   24711       4   24693   24675   24690   24714       4
   24690   24711   24696   24717       4   24687   24666   24681   24702       2
   24687   24666   24681   24705       1   24687   24666   24681   24708       1
   24684   24666   24681   24702       2   24684   24666   24681   24705       1
   24684   24666   24681   24708       1   24681   24702   24720   24732       2
   24681   24702   24720   24735       2   24678   24663   24675   24693       4
   24678   24696   24711   24729       4   24675   24663   24678   24699       4
   24675   24690   24711   24729       4   24672   24654   24666   24681       2
   24672   24654   24666   24684       1   24672   24654   24666   24687       1
   24669   24654   24666   24681       2   24669   24654   24666   24684       1
   24669   24654   24666   24687       1   24666   24681   24702   24723       2
   24666   24681   24702   24726       2   24663   24675   24690   24714       4
   24663   24678   24696   24717       4   24660   24636   24654   24666       2
   24660   24636   24654   24669       1   24660   24636   24654   24672       1
   24657   24636   24654   24666       2   24657   24636   24654   24669       1
   24657   24636   24654   24672       1   24654   24666   24681   24705       2
   24654   24666   24681   24708       2   24651   24627   24645   24663       4
   24648   24624   24645   24663       4   24645   24663   24675   24693       4
   24645   24663   24678   24699       4   24642   24618   24636   24654       2
   24642   24618   24636   24657       1   24642   24618   24636   24660       1
   24639   24618   24636   24654       2   24639   24618   24636   24657       1
   24639   24618   24636   24660       1   24636   24654   24666   24684       2
   24636   24654   24666   24687       2   24630   24612   24627   24645       4
   24630   24612   24627   24651       4   24627   24645   24624   24648       4
   24624   24645   24627   24651       4   24621   24606   24615   24633       4
   24618   24600   24615   24633       4   24618   24636   24654   24669       2
   24618   24636   24654   24672       2   24615   24600   24618   24639       7
   24615   24600   24618   24642       7   24609   24597   24612   24630       4
   24603   24588   24600   24615       4   24603   24588   24600   24618       4
   24600   24615   24606   24621       4   24600   24618   24636   24657       8
   24600   24618   24636   24660       8   24597   24609   24624   24648       4
   24597   24612   24627   24651       4   24594   24609   24624   24648       4
   24591   24579   24588   24603       4   24591   24606   24615   24633       4
   24588   24600   24615   24633       4   24588   24600   24618   24639       7
   24588   24600   24618   24642       7   24585   24597   24612   24630       4
   24582   24591   24606   24621       4   24579   24591   24606   24621       4
   24576   24579   24588   24603       4   24948   24933   24945   24951       1
   24948   24933   24945   24954       1   24948   24933   24945   24957       1
   24942   24933   24945   24951       1   24942   24933   24945   24954       1
   24942   24933   24945   24957       1   24939   24930   24933   24942       1
   24939   24930   24933   24945       2   24939   24930   24933   24948       1
   24936   24930   24933   24942       1   24936   24930   24933   24945       2
   24936   24930   24933   24948       1   24930   24933   24945   24951       2
   24930   24933   24945   24954       2   24930   24933   24945   24957       2
   24927   24912   24930   24933       2   24927   24912   24930   24936       1
   24927   24912   24930   24939       1   24924   24912   24930   24933       2
   24924   24912   24930   24936       1   24924   24912   24930   24939       1
   24918   24894   24912   24924       1   24918   24894   24912   24927       1
   24918   24894   24912   24930       2   24915   24894   24912   24924       1
   24915   24894   24912   24927       1   24915   24894   24912   24930       2
   24912   24930   24933   24942       2   24912   24930   24933   24948       2
   24909   24888   24903   24921       4   24906   24882   24903   24921       4
   24900   24873   24894   24912       2   24900   24873   24894   24915       1
   24900   24873   24894   24918       1   24897   24873   24894   24912       2
   24897   24873   24894   24915       1   24897   24873   24894   24918       1
   24894   24912   24930   24936       2   24894   24912   24930   24939       2
   24891   24870   24888   24903       4   24891   24870   24888   24909       4
   24888   24903   24882   24906       4   24885   24867   24882   24903       4
   24885   24867   24882   24906       4   24882   24903   24888   24909       4
   24879   24858   24873   24894       2   24879   24858   24873   24897       1
   24879   24858   24873   24900       1   24876   24858   24873   24894       2
   24876   24858   24873   24897       1   24876   24858   24873   24900       1
   24873   24894   24912   24924       2   24873   24894   24912   24927       2
   24870   24855   24867   24885       4   24870   24888   24903   24921       4
   24867   24855   24870   24891       4   24867   24882   24903   24921       4
   24864   24846   24858   24873       2   24864   24846   24858   24876       1
   24864   24846   24858   24879       1   24861   24846   24858   24873       2
   24861   24846   24858   24876       1   24861   24846   24858   24879       1
   24858   24873   24894   24915       2   24858   24873   24894   24918       2
   24855   24867   24882   24906       4   24855   24870   24888   24909       4
   24852   24828   24846   24858       2   24852   24828   24846   24861       1
   24852   24828   24846   24864       1   24849   24828   24846   24858       2
   24849   24828   24846   24861       1   24849   24828   24846   24864       1
   24846   24858   24873   24897       2   24846   24858   24873   24900       2
   24843   24819   24837   24855       4   24840   24816   24837   24855       4
   24837   24855   24867   24885       4   24837   24855   24870   24891       4
   24834   24810   24828   24846       2   24834   24810   24828   24849       1
   24834   24810   24828   24852       1   24831   24810   24828   24846       2
   24831   24810   24828   24849       1   24831   24810   24828   24852       1
   24828   24846   24858   24876       2   24828   24846   24858   24879       2
   24822   24804   24819   24837       4   24822   24804   24819   24843       4
   24819   24837   24816   24840       4   24816   24837   24819   24843       4
   24813   24798   24807   24825       4   24810   24792   24807   24825       4
   24810   24828   24846   24861       2   24810   24828   24846   24864       2
   24807   24792   24810   24831       7   24807   24792   24810   24834       7
   24801   24789   24804   24822       4   24795   24780   24792   24807       4
   24795   24780   24792   24810       4   24792   24807   24798   24813       4
   24792   24810   24828   24849       8   24792   24810   24828   24852       8
   24789   24801   24816   24840       4   24789   24804   24819   24843       4
   24786   24801   24816   24840       4   24783   24771   24780   24795       4
   24783   24798   24807   24825       4   24780   24792   24807   24825       4
   24780   24792   24810   24831       7   24780   24792   24810   24834       7
   24777   24789   24804   24822       4   24774   24783   24798   24813       4
   24771   24783   24798   24813       4   24768   24771   24780   24795       4
   25140   25125   25137   25143       1   25140   25125   25137   25146       1
   25140   25125   25137   25149       1   25134   25125   25137   25143       1
   25134   25125   25137   25146       1   25134   25125   25137   25149       1
   25131   25122   25125   25134       1   25131   25122   25125   25137       2
   25131   25122   25125   25140       1   25128   25122   25125   25134       1
   25128   25122   25125   25137       2   25128   25122   25125   25140       1
   25122   25125   25137   25143       2   25122   25125   25137   25146       2
   25122   25125   25137   25149       2   25119   25104   25122   25125       2
   25119   25104   25122   25128       1   25119   25104   25122   25131       1
   25116   25104   25122   25125       2   25116   25104   25122   25128       1
   25116   25104   25122   25131       1   25110   25086   25104   25116       1
   25110   25086   25104   25119       1   25110   25086   25104   25122       2
   25107   25086   25104   25116       1   25107   25086   25104   25119       1
   25107   25086   25104   25122       2   25104   25122   25125   25134       2
   25104   25122   25125   25140       2   25101   25080   25095   25113       4
   25098   25074   25095   25113       4   25092   25065   25086   25104       2
   25092   25065   25086   25107       1   25092   25065   25086   25110       1
   25089   25065   25086   25104       2   25089   25065   25086   25107       1
   25089   25065   25086   25110       1   25086   25104   25122   25128       2
   25086   25104   25122   25131       2   25083   25062   25080   25095       4
   25083   25062   25080   25101       4   25080   25095   25074   25098       4
   25077   25059   25074   25095       4   25077   25059   25074   25098       4
   25074   25095   25080   25101       4   25071   25050   25065   25086       2
   25071   25050   25065   25089       1   25071   25050   25065   25092       1
   25068   25050   25065   25086       2   25068   25050   25065   25089       1
   25068   25050   25065   25092       1   25065   25086   25104   25116       2
   25065   25086   25104   25119       2   25062   25047   25059   25077       4
   25062   25080   25095   25113       4   25059   25047   25062   25083       4
   25059   25074   25095   25113       4   25056   25038   25050   25065       2
   25056   25038   25050   25068       1   25056   25038   25050   25071       1
   25053   25038   25050   25065       2   25053   25038   25050   25068       1
   25053   25038   25050   25071       1   25050   25065   25086   25107       2
   25050   25065   25086   25110       2   25047   25059   25074   25098       4
   25047   25062   25080   25101       4   25044   25020   25038   25050       2
   25044   25020   25038   25053       1   25044   25020   25038   25056       1
   25041   25020   25038   25050       2   25041   25020   25038   25053       1
   25041   25020   25038   25056       1   25038   25050   25065   25089       2
   25038   25050   25065   25092       2   25035   25011   25029   25047       4
   25032   25008   25029   25047       4   25029   25047   25059   25077       4
   25029   25047   25062   25083       4   25026   25002   25020   25038       2
   25026   25002   25020   25041       1   25026   25002   25020   25044       1
   25023   25002   25020   25038       2   25023   25002   25020   25041       1
   25023   25002   25020   25044       1   25020   25038   25050   25068       2
   25020   25038   25050   25071       2   25014   24996   25011   25029       4
   25014   24996   25011   25035       4   25011   25029   25008   25032       4
   25008   25029   25011   25035       4   25005   24990   24999   25017       4
   25002   24984   24999   25017       4   25002   25020   25038   25053       2
   25002   25020   25038   25056       2   24999   24984   25002   25023       7
   24999   24984   25002   25026       7   24993   24981   24996   25014       4
   24987   24972   24984   24999       4   24987   24972   24984   25002       4
   24984   24999   24990   25005       4   24984   25002   25020   25041       8
   24984   25002   25020   25044       8   24981   24993   25008   25032       4
   24981   24996   25011   25035       4   24978   24993   25008   25032       4
   24975   24963   24972   24987       4   24975   24990   24999   25017       4
   24972   24984   24999   25017       4   24972   24984   25002   25023       7
   24972   24984   25002   25026       7   24969   24981   24996   25014       4
   24966   24975   24990   25005       4   24963   24975   24990   25005       4
   24960   24963   24972   24987       4   25332   25317   25329   25335       1
   25332   25317   25329   25338       1   25332   25317   25329   25341       1
   25326   25317   25329   25335       1   25326   25317   25329   25338       1
   25326   25317   25329   25341       1   25323   25314   25317   25326       1
   25323   25314   25317   25329       2   25323   25314   25317   25332       1
   25320   25314   25317   25326       1   25320   25314   25317   25329       2
   25320   25314   25317   25332       1   25314   25317   25329   25335       2
   25314   25317   25329   25338       2   25314   25317   25329   25341       2
   25311   25296   25314   25317       2   25311   25296   25314   25320       1
   25311   25296   25314   25323       1   25308   25296   25314   25317       2
   25308   25296   25314   25320       1   25308   25296   25314   25323       1
   25302   25278   25296   25308       1   25302   25278   25296   25311       1
   25302   25278   25296   25314       2   25299   25278   25296   25308       1
   25299   25278   25296   25311       1   25299   25278   25296   25314       2
   25296   25314   25317   25326       2   25296   25314   25317   25332       2
   25293   25272   25287   25305       4   25290   25266   25287   25305       4
   25284   25257   25278   25296       2   25284   25257   25278   25299       1
   25284   25257   25278   25302       1   25281   25257   25278   25296       2
   25281   25257   25278   25299       1   25281   25257   25278   25302       1
   25278   25296   25314   25320       2   25278   25296   25314   25323       2
   25275   25254   25272   25287       4   25275   25254   25272   25293       4
   25272   25287   25266   25290       4   25269   25251   25266   25287       4
   25269   25251   25266   25290       4   25266   25287   25272   25293       4
   25263   25242   25257   25278       2   25263   25242   25257   25281       1
   25263   25242   25257   25284       1   25260   25242   25257   25278       2
   25260   25242   25257   25281       1   25260   25242   25257   25284       1
   25257   25278   25296   25308       2   25257   25278   25296   25311       2
   25254   25239   25251   25269       4   25254   25272   25287   25305       4
   25251   25239   25254   25275       4   25251   25266   25287   25305       4
   25248   25230   25242   25257       2   25248   25230   25242   25260       1
   25248   25230   25242   25263       1   25245   25230   25242   25257       2
   25245   25230   25242   25260       1   25245   25230   25242   25263       1
   25242   25257   25278   25299       2   25242   25257   25278   25302       2
   25239   25251   25266   25290       4   25239   25254   25272   25293       4
   25236   25212   25230   25242       2   25236   25212   25230   25245       1
   25236   25212   25230   25248       1   25233   25212   25230   25242       2
   25233   25212   25230   25245       1   25233   25212   25230   25248       1
   25230   25242   25257   25281       2   25230   25242   25257   25284       2
   25227   25203   25221   25239       4   25224   25200   25221   25239       4
   25221   25239   25251   25269       4   25221   25239   25254   25275       4
   25218   25194   25212   25230       2   25218   25194   25212   25233       1
   25218   25194   25212   25236       1   25215   25194   25212   25230       2
   25215   25194   25212   25233       1   25215   25194   25212   25236       1
   25212   25230   25242   25260       2   25212   25230   25242   25263       2
   25206   25188   25203   25221       4   25206   25188   25203   25227       4
   25203   25221   25200   25224       4   25200   25221   25203   25227       4
   25197   25182   25191   25209       4   25194   25176   25191   25209       4
   25194   25212   25230   25245       2   25194   25212   25230   25248       2
   25191   25176   25194   25215       7   25191   25176   25194   25218       7
   25185   25173   25188   25206       4   25179   25164   25176   25191       4
   25179   25164   25176   25194       4   25176   25191   25182   25197       4
   25176   25194   25212   25233       8   25176   25194   25212   25236       8
   25173   25185   25200   25224       4   25173   25188   25203   25227       4
   25170   25185   25200   25224       4   25167   25155   25164   25179       4
   25167   25182   25191   25209       4   25164   25176   25191   25209       4
   25164   25176   25194   25215       7   25164   25176   25194   25218       7
   25161   25173   25188   25206       4   25158   25167   25182   25197       4
   25155   25167   25182   25197       4   25152   25155   25164   25179       4
   25524   25509   25521   25527       1   25524   25509   25521   25530       1
   25524   25509   25521   25533       1   25518   25509   25521   25527       1
   25518   25509   25521   25530       1   25518   25509   25521   25533       1
   25515   25506   25509   25518       1   25515   25506   25509   25521       2
   25515   25506   25509   25524       1   25512   25506   25509   25518       1
   25512   25506   25509   25521       2   25512   25506   25509   25524       1
   25506   25509   25521   25527       2   25506   25509   25521   25530       2
   25506   25509   25521   25533       2   25503   25488   25506   25509       2
   25503   25488   25506   25512       1   25503   25488   25506   25515       1
   25500   25488   25506   25509       2   25500   25488   25506   25512       1
   25500   25488   25506   25515       1   25494   25470   25488   25500       1
   25494   25470   25488   25503       1   25494   25470   25488   25506       2
   25491   25470   25488   25500       1   25491   25470   25488   25503       1
   25491   25470   25488   25506       2   25488   25506   25509   25518       2
   25488   25506   25509   25524       2   25485   25464   25479   25497       4
   25482   25458   25479   25497       4   25476   25449   25470   25488       2
   25476   25449   25470   25491       1   25476   25449   25470   25494       1
   25473   25449   25470   25488       2   25473   25449   25470   25491       1
   25473   25449   25470   25494       1   25470   25488   25506   25512       2
   25470   25488   25506   25515       2   25467   25446   25464   25479       4
   25467   25446   25464   25485       4   25464   25479   25458   25482       4
   25461   25443   25458   25479       4   25461   25443   25458   25482       4
   25458   25479   25464   25485       4   25455   25434   25449   25470       2
   25455   25434   25449   25473       1   25455   25434   25449   25476       1
   25452   25434   25449   25470       2   25452   25434   25449   25473       1
   25452   25434   25449   25476       1   25449   25470   25488   25500       2
   25449   25470   25488   25503       2   25446   25431   25443   25461       4
   25446   25464   25479   25497       4   25443   25431   25446   25467       4
   25443   25458   25479   25497       4   25440   25422   25434   25449       2
   25440   25422   25434   25452       1   25440   25422   25434   25455       1
   25437   25422   25434   25449       2   25437   25422   25434   25452       1
   25437   25422   25434   25455       1   25434   25449   25470   25491       2
   25434   25449   25470   25494       2   25431   25443   25458   25482       4
   25431   25446   25464   25485       4   25428   25404   25422   25434       2
   25428   25404   25422   25437       1   25428   25404   25422   25440       1
   25425   25404   25422   25434       2   25425   25404   25422   25437       1
   25425   25404   25422   25440       1   25422   25434   25449   25473       2
   25422   25434   25449   25476       2   25419   25395   25413   25431       4
   25416   25392   25413   25431       4   25413   25431   25443   25461       4
   25413   25431   25446   25467       4   25410   25386   25404   25422       2
   25410   25386   25404   25425       1   25410   25386   25404   25428       1
   25407   25386   25404   25422       2   25407   25386   25404   25425       1
   25407   25386   25404   25428       1   25404   25422   25434   25452       2
   25404   25422   25434   25455       2   25398   25380   25395   25413       4
   25398   25380   25395   25419       4   25395   25413   25392   25416       4
   25392   25413   25395   25419       4   25389   25374   25383   25401       4
   25386   25368   25383   25401       4   25386   25404   25422   25437       2
   25386   25404   25422   25440       2   25383   25368   25386   25407       7
   25383   25368   25386   25410       7   25377   25365   25380   25398       4
   25371   25356   25368   25383       4   25371   25356   25368   25386       4
   25368   25383   25374   25389       4   25368   25386   25404   25425       8
   25368   25386   25404   25428       8   25365   25377   25392   25416       4
   25365   25380   25395   25419       4   25362   25377   25392   25416       4
   25359   25347   25356   25371       4   25359   25374   25383   25401       4
   25356   25368   25383   25401       4   25356   25368   25386   25407       7
   25356   25368   25386   25410       7   25353   25365   25380   25398       4
   25350   25359   25374   25389       4   25347   25359   25374   25389       4
   25344   25347   25356   25371       4   25716   25701   25713   25719       1
   25716   25701   25713   25722       1   25716   25701   25713   25725       1
   25710   25701   25713   25719       1   25710   25701   25713   25722       1
   25710   25701   25713   25725       1   25707   25698   25701   25710       1
   25707   25698   25701   25713       2   25707   25698   25701   25716       1
   25704   25698   25701   25710       1   25704   25698   25701   25713       2
   25704   25698   25701   25716       1   25698   25701   25713   25719       2
   25698   25701   25713   25722       2   25698   25701   25713   25725       2
   25695   25680   25698   25701       2   25695   25680   25698   25704       1
   25695   25680   25698   25707       1   25692   25680   25698   25701       2
   25692   25680   25698   25704       1   25692   25680   25698   25707       1
   25686   25662   25680   25692       1   25686   25662   25680   25695       1
   25686   25662   25680   25698       2   25683   25662   25680   25692       1
   25683   25662   25680   25695       1   25683   25662   25680   25698       2
   25680   25698   25701   25710       2   25680   25698   25701   25716       2
   25677   25656   25671   25689       4   25674   25650   25671   25689       4
   25668   25641   25662   25680       2   25668   25641   25662   25683       1
   25668   25641   25662   25686       1   25665   25641   25662   25680       2
   25665   25641   25662   25683       1   25665   25641   25662   25686       1
   25662   25680   25698   25704       2   25662   25680   25698   25707       2
   25659   25638   25656   25671       4   25659   25638   25656   25677       4
   25656   25671   25650   25674       4   25653   25635   25650   25671       4
   25653   25635   25650   25674       4   25650   25671   25656   25677       4
   25647   25626   25641   25662       2   25647   25626   25641   25665       1
   25647   25626   25641   25668       1   25644   25626   25641   25662       2
   25644   25626   25641   25665       1   25644   25626   25641   25668       1
   25641   25662   25680   25692       2   25641   25662   25680   25695       2
   25638   25623   25635   25653       4   25638   25656   25671   25689       4
   25635   25623   25638   25659       4   25635   25650   25671   25689       4
   25632   25614   25626   25641       2   25632   25614   25626   25644       1
   25632   25614   25626   25647       1   25629   25614   25626   25641       2
   25629   25614   25626   25644       1   25629   25614   25626   25647       1
   25626   25641   25662   25683       2   25626   25641   25662   25686       2
   25623   25635   25650   25674       4   25623   25638   25656   25677       4
   25620   25596   25614   25626       2   25620   25596   25614   25629       1
   25620   25596   25614   25632       1   25617   25596   25614   25626       2
   25617   25596   25614   25629       1   25617   25596   25614   25632       1
   25614   25626   25641   25665       2   25614   25626   25641   25668       2
   25611   25587   25605   25623       4   25608   25584   25605   25623       4
   25605   25623   25635   25653       4   25605   25623   25638   25659       4
   25602   25578   25596   25614       2   25602   25578   25596   25617       1
   25602   25578   25596   25620       1   25599   25578   25596   25614       2
   25599   25578   25596   25617       1   25599   25578   25596   25620       1
   25596   25614   25626   25644       2   25596   25614   25626   25647       2
   25590   25572   25587   25605       4   25590   25572   25587   25611       4
   25587   25605   25584   25608       4   25584   25605   25587   25611       4
   25581   25566   25575   25593       4   25578   25560   25575   25593       4
   25578   25596   25614   25629       2   25578   25596   25614   25632       2
   25575   25560   25578   25599       7   25575   25560   25578   25602       7
   25569   25557   25572   25590       4   25563   25548   25560   25575       4
   25563   25548   25560   25578       4   25560   25575   25566   25581       4
   25560   25578   25596   25617       8   25560   25578   25596   25620       8
   25557   25569   25584   25608       4   25557   25572   25587   25611       4
   25554   25569   25584   25608       4   25551   25539   25548   25563       4
   25551   25566   25575   25593       4   25548   25560   25575   25593       4
   25548   25560   25578   25599       7   25548   25560   25578   25602       7
   25545   25557   25572   25590       4   25542   25551   25566   25581       4
   25539   25551   25566   25581       4   25536   25539   25548   25563       4
   25908   25893   25905   25911       1   25908   25893   25905   25914       1
   25908   25893   25905   25917       1   25902   25893   25905   25911       1
   25902   25893   25905   25914       1   25902   25893   25905   25917       1
   25899   25890   25893   25902       1   25899   25890   25893   25905       2
   25899   25890   25893   25908       1   25896   25890   25893   25902       1
   25896   25890   25893   25905       2   25896   25890   25893   25908       1
   25890   25893   25905   25911       2   25890   25893   25905   25914       2
   25890   25893   25905   25917       2   25887   25872   25890   25893       2
   25887   25872   25890   25896       1   25887   25872   25890   25899       1
   25884   25872   25890   25893       2   25884   25872   25890   25896       1
   25884   25872   25890   25899       1   25878   25854   25872   25884       1
   25878   25854   25872   25887       1   25878   25854   25872   25890       2
   25875   25854   25872   25884       1   25875   25854   25872   25887       1
   25875   25854   25872   25890       2   25872   25890   25893   25902       2
   25872   25890   25893   25908       2   25869   25848   25863   25881       4
   25866   25842   25863   25881       4   25860   25833   25854   25872       2
   25860   25833   25854   25875       1   25860   25833   25854   25878       1
   25857   25833   25854   25872       2   25857   25833   25854   25875       1
   25857   25833   25854   25878       1   25854   25872   25890   25896       2
   25854   25872   25890   25899       2   25851   25830   25848   25863       4
   25851   25830   25848   25869       4   25848   25863   25842   25866       4
   25845   25827   25842   25863       4   25845   25827   25842   25866       4
   25842   25863   25848   25869       4   25839   25818   25833   25854       2
   25839   25818   25833   25857       1   25839   25818   25833   25860       1
   25836   25818   25833   25854       2   25836   25818   25833   25857       1
   25836   25818   25833   25860       1   25833   25854   25872   25884       2
   25833   25854   25872   25887       2   25830   25815   25827   25845       4
   25830   25848   25863   25881       4   25827   25815   25830   25851       4
   25827   25842   25863   25881       4   25824   25806   25818   25833       2
   25824   25806   25818   25836       1   25824   25806   25818   25839       1
   25821   25806   25818   25833       2   25821   25806   25818   25836       1
   25821   25806   25818   25839       1   25818   25833   25854   25875       2
   25818   25833   25854   25878       2   25815   25827   25842   25866       4
   25815   25830   25848   25869       4   25812   25788   25806   25818       2
   25812   25788   25806   25821       1   25812   25788   25806   25824       1
   25809   25788   25806   25818       2   25809   25788   25806   25821       1
   25809   25788   25806   25824       1   25806   25818   25833   25857       2
   25806   25818   25833   25860       2   25803   25779   25797   25815       4
   25800   25776   25797   25815       4   25797   25815   25827   25845       4
   25797   25815   25830   25851       4   25794   25770   25788   25806       2
   25794   25770   25788   25809       1   25794   25770   25788   25812       1
   25791   25770   25788   25806       2   25791   25770   25788   25809       1
   25791   25770   25788   25812       1   25788   25806   25818   25836       2
   25788   25806   25818   25839       2   25782   25764   25779   25797       4
   25782   25764   25779   25803       4   25779   25797   25776   25800       4
   25776   25797   25779   25803       4   25773   25758   25767   25785       4
   25770   25752   25767   25785       4   25770   25788   25806   25821       2
   25770   25788   25806   25824       2   25767   25752   25770   25791       7
   25767   25752   25770   25794       7   25761   25749   25764   25782       4
   25755   25740   25752   25767       4   25755   25740   25752   25770       4
   25752   25767   25758   25773       4   25752   25770   25788   25809       8
   25752   25770   25788   25812       8   25749   25761   25776   25800       4
   25749   25764   25779   25803       4   25746   25761   25776   25800       4
   25743   25731   25740   25755       4   25743   25758   25767   25785       4
   25740   25752   25767   25785       4   25740   25752   25770   25791       7
   25740   25752   25770   25794       7   25737   25749   25764   25782       4
   25734   25743   25758   25773       4   25731   25743   25758   25773       4
   25728   25731   25740   25755       4   26100   26085   26097   26103       1
   26100   26085   26097   26106       1   26100   26085   26097   26109       1
   26094   26085   26097   26103       1   26094   26085   26097   26106       1
   26094   26085   26097   26109       1   26091   26082   26085   26094       1
   26091   26082   26085   26097       2   26091   26082   26085   26100       1
   26088   26082   26085   26094       1   26088   26082   26085   26097       2
   26088   26082   26085   26100       1   26082   26085   26097   26103       2
   26082   26085   26097   26106       2   26082   26085   26097   26109       2
   26079   26064   26082   26085       2   26079   26064   26082   26088       1
   26079   26064   26082   26091       1   26076   26064   26082   26085       2
   26076   26064   26082   26088       1   26076   26064   26082   26091       1
   26070   26046   26064   26076       1   26070   26046   26064   26079       1
   26070   26046   26064   26082       2   26067   26046   26064   26076       1
   26067   26046   26064   26079       1   26067   26046   26064   26082       2
   26064   26082   26085   26094       2   26064   26082   26085   26100       2
   26061   26040   26055   26073       4   26058   26034   26055   26073       4
   26052   26025   26046   26064       2   26052   26025   26046   26067       1
   26052   26025   26046   26070       1   26049   26025   26046   26064       2
   26049   26025   26046   26067       1   26049   26025   26046   26070       1
   26046   26064   26082   26088       2   26046   26064   26082   26091       2
   26043   26022   26040   26055       4   26043   26022   26040   26061       4
   26040   26055   26034   26058       4   26037   26019   26034   26055       4
   26037   26019   26034   26058       4   26034   26055   26040   26061       4
   26031   26010   26025   26046       2   26031   26010   26025   26049       1
   26031   26010   26025   26052       1   26028   26010   26025   26046       2
   26028   26010   26025   26049       1   26028   26010   26025   26052       1
   26025   26046   26064   26076       2   26025   26046   26064   26079       2
   26022   26007   26019   26037       4   26022   26040   26055   26073       4
   26019   26007   26022   26043       4   26019   26034   26055   26073       4
   26016   25998   26010   26025       2   26016   25998   26010   26028       1
   26016   25998   26010   26031       1   26013   25998   26010   26025       2
   26013   25998   26010   26028       1   26013   25998   26010   26031       1
   26010   26025   26046   26067       2   26010   26025   26046   26070       2
   26007   26019   26034   26058       4   26007   26022   26040   26061       4
   26004   25980   25998   26010       2   26004   25980   25998   26013       1
   26004   25980   25998   26016       1   26001   25980   25998   26010       2
   26001   25980   25998   26013       1   26001   25980   25998   26016       1
   25998   26010   26025   26049       2   25998   26010   26025   26052       2
   25995   25971   25989   26007       4   25992   25968   25989   26007       4
   25989   26007   26019   26037       4   25989   26007   26022   26043       4
   25986   25962   25980   25998       2   25986   25962   25980   26001       1
   25986   25962   25980   26004       1   25983   25962   25980   25998       2
   25983   25962   25980   26001       1   25983   25962   25980   26004       1
   25980   25998   26010   26028       2   25980   25998   26010   26031       2
   25974   25956   25971   25989       4   25974   25956   25971   25995       4
   25971   25989   25968   25992       4   25968   25989   25971   25995       4
   25965   25950   25959   25977       4   25962   25944   25959   25977       4
   25962   25980   25998   26013       2   25962   25980   25998   26016       2
   25959   25944   25962   25983       7   25959   25944   25962   25986       7
   25953   25941   25956   25974       4   25947   25932   25944   25959       4
   25947   25932   25944   25962       4   25944   25959   25950   25965       4
   25944   25962   25980   26001       8   25944   25962   25980   26004       8
   25941   25953   25968   25992       4   25941   25956   25971   25995       4
   25938   25953   25968   25992       4   25935   25923   25932   25947       4
   25935   25950   25959   25977       4   25932   25944   25959   25977       4
   25932   25944   25962   25983       7   25932   25944   25962   25986       7
   25929   25941   25956   25974       4   25926   25935   25950   25965       4
   25923   25935   25950   25965       4   25920   25923   25932   25947       4
   26292   26277   26289   26295       1   26292   26277   26289   26298       1
   26292   26277   26289   26301       1   26286   26277   26289   26295       1
   26286   26277   26289   26298       1   26286   26277   26289   26301       1
   26283   26274   26277   26286       1   26283   26274   26277   26289       2
   26283   26274   26277   26292       1   26280   26274   26277   26286       1
   26280   26274   26277   26289       2   26280   26274   26277   26292       1
   26274   26277   26289   26295       2   26274   26277   26289   26298       2
   26274   26277   26289   26301       2   26271   26256   26274   26277       2
   26271   26256   26274   26280       1   26271   26256   26274   26283       1
   26268   26256   26274   26277       2   26268   26256   26274   26280       1
   26268   26256   26274   26283       1   26262   26238   26256   26268       1
   26262   26238   26256   26271       1   26262   26238   26256   26274       2
   26259   26238   26256   26268       1   26259   26238   26256   26271       1
   26259   26238   26256   26274       2   26256   26274   26277   26286       2
   26256   26274   26277   26292       2   26253   26232   26247   26265       4
   26250   26226   26247   26265       4   26244   26217   26238   26256       2
   26244   26217   26238   26259       1   26244   26217   26238   26262       1
   26241   26217   26238   26256       2   26241   26217   26238   26259       1
   26241   26217   26238   26262       1   26238   26256   26274   26280       2
   26238   26256   26274   26283       2   26235   26214   26232   26247       4
   26235   26214   26232   26253       4   26232   26247   26226   26250       4
   26229   26211   26226   26247       4   26229   26211   26226   26250       4
   26226   26247   26232   26253       4   26223   26202   26217   26238       2
   26223   26202   26217   26241       1   26223   26202   26217   26244       1
   26220   26202   26217   26238       2   26220   26202   26217   26241       1
   26220   26202   26217   26244       1   26217   26238   26256   26268       2
   26217   26238   26256   26271       2   26214   26199   26211   26229       4
   26214   26232   26247   26265       4   26211   26199   26214   26235       4
   26211   26226   26247   26265       4   26208   26190   26202   26217       2
   26208   26190   26202   26220       1   26208   26190   26202   26223       1
   26205   26190   26202   26217       2   26205   26190   26202   26220       1
   26205   26190   26202   26223       1   26202   26217   26238   26259       2
   26202   26217   26238   26262       2   26199   26211   26226   26250       4
   26199   26214   26232   26253       4   26196   26172   26190   26202       2
   26196   26172   26190   26205       1   26196   26172   26190   26208       1
   26193   26172   26190   26202       2   26193   26172   26190   26205       1
   26193   26172   26190   26208       1   26190   26202   26217   26241       2
   26190   26202   26217   26244       2   26187   26163   26181   26199       4
   26184   26160   26181   26199       4   26181   26199   26211   26229       4
   26181   26199   26214   26235       4   26178   26154   26172   26190       2
   26178   26154   26172   26193       1   26178   26154   26172   26196       1
   26175   26154   26172   26190       2   26175   26154   26172   26193       1
   26175   26154   26172   26196       1   26172   26190   26202   26220       2
   26172   26190   26202   26223       2   26166   26148   26163   26181       4
   26166   26148   26163   26187       4   26163   26181   26160   26184       4
   26160   26181   26163   26187       4   26157   26142   26151   26169       4
   26154   26136   26151   26169       4   26154   26172   26190   26205       2
   26154   26172   26190   26208       2   26151   26136   26154   26175       7
   26151   26136   26154   26178       7   26145   26133   26148   26166       4
   26139   26124   26136   26151       4   26139   26124   26136   26154       4
   26136   26151   26142   26157       4   26136   26154   26172   26193       8
   26136   26154   26172   26196       8   26133   26145   26160   26184       4
   26133   26148   26163   26187       4   26130   26145   26160   26184       4
   26127   26115   26124   26139       4   26127   26142   26151   26169       4
   26124   26136   26151   26169       4   26124   26136   26154   26175       7
   26124   26136   26154   26178       7   26121   26133   26148   26166       4
   26118   26127   26142   26157       4   26115   26127   26142   26157       4
   26112   26115   26124   26139       4   26484   26469   26481   26487       1
   26484   26469   26481   26490       1   26484   26469   26481   26493       1
   26478   26469   26481   26487       1   26478   26469   26481   26490       1
   26478   26469   26481   26493       1   26475   26466   26469   26478       1
   26475   26466   26469   26481       2   26475   26466   26469   26484       1
   26472   26466   26469   26478       1   26472   26466   26469   26481       2
   26472   26466   26469   26484       1   26466   26469   26481   26487       2
   26466   26469   26481   26490       2   26466   26469   26481   26493       2
   26463   26448   26466   26469       2   26463   26448   26466   26472       1
   26463   26448   26466   26475       1   26460   26448   26466   26469       2
   26460   26448   26466   26472       1   26460   26448   26466   26475       1
   26454   26430   26448   26460       1   26454   26430   26448   26463       1
   26454   26430   26448   26466       2   26451   26430   26448   26460       1
   26451   26430   26448   26463       1   26451   26430   26448   26466       2
   26448   26466   26469   26478       2   26448   26466   26469   26484       2
   26445   26424   26439   26457       4   26442   26418   26439   26457       4
   26436   26409   26430   26448       2   26436   26409   26430   26451       1
   26436   26409   26430   26454       1   26433   26409   26430   26448       2
   26433   26409   26430   26451       1   26433   26409   26430   26454       1
   26430   26448   26466   26472       2   26430   26448   26466   26475       2
   26427   26406   26424   26439       4   26427   26406   26424   26445       4
   26424   26439   26418   26442       4   26421   26403   26418   26439       4
   26421   26403   26418   26442       4   26418   26439   26424   26445       4
   26415   26394   26409   26430       2   26415   26394   26409   26433       1
   26415   26394   26409   26436       1   26412   26394   26409   26430       2
   26412   26394   26409   26433       1   26412   26394   26409   26436       1
   26409   26430   26448   26460       2   26409   26430   26448   26463       2
   26406   26391   26403   26421       4   26406   26424   26439   26457       4
   26403   26391   26406   26427       4   26403   26418   26439   26457       4
   26400   26382   26394   26409       2   26400   26382   26394   26412       1
   26400   26382   26394   26415       1   26397   26382   26394   26409       2
   26397   26382   26394   26412       1   26397   26382   26394   26415       1
   26394   26409   26430   26451       2   26394   26409   26430   26454       2
   26391   26403   26418   26442       4   26391   26406   26424   26445       4
   26388   26364   26382   26394       2   26388   26364   26382   26397       1
   26388   26364   26382   26400       1   26385   26364   26382   26394       2
   26385   26364   26382   26397       1   26385   26364   26382   26400       1
   26382   26394   26409   26433       2   26382   26394   26409   26436       2
   26379   26355   26373   26391       4   26376   26352   26373   26391       4
   26373   26391   26403   26421       4   26373   26391   26406   26427       4
   26370   26346   26364   26382       2   26370   26346   26364   26385       1
   26370   26346   26364   26388       1   26367   26346   26364   26382       2
   26367   26346   26364   26385       1   26367   26346   26364   26388       1
   26364   26382   26394   26412       2   26364   26382   26394   26415       2
   26358   26340   26355   26373       4   26358   26340   26355   26379       4
   26355   26373   26352   26376       4   26352   26373   26355   26379       4
   26349   26334   26343   26361       4   26346   26328   26343   26361       4
   26346   26364   26382   26397       2   26346   26364   26382   26400       2
   26343   26328   26346   26367       7   26343   26328   26346   26370       7
   26337   26325   26340   26358       4   26331   26316   26328   26343       4
   26331   26316   26328   26346       4   26328   26343   26334   26349       4
   26328   26346   26364   26385       8   26328   26346   26364   26388       8
   26325   26337   26352   26376       4   26325   26340   26355   26379       4
   26322   26337   26352   26376       4   26319   26307   26316   26331       4
   26319   26334   26343   26361       4   26316   26328   26343   26361       4
   26316   26328   26346   26367       7   26316   26328   26346   26370       7
   26313   26325   26340   26358       4   26310   26319   26334   26349       4
   26307   26319   26334   26349       4   26304   26307   26316   26331       4
   26676   26661   26673   26679       1   26676   26661   26673   26682       1
   26676   26661   26673   26685       1   26670   26661   26673   26679       1
   26670   26661   26673   26682       1   26670   26661   26673   26685       1
   26667   26658   26661   26670       1   26667   26658   26661   26673       2
   26667   26658   26661   26676       1   26664   26658   26661   26670       1
   26664   26658   26661   26673       2   26664   26658   26661   26676       1
   26658   26661   26673   26679       2   26658   26661   26673   26682       2
   26658   26661   26673   26685       2   26655   26640   26658   26661       2
   26655   26640   26658   26664       1   26655   26640   26658   26667       1
   26652   26640   26658   26661       2   26652   26640   26658   26664       1
   26652   26640   26658   26667       1   26646   26622   26640   26652       1
   26646   26622   26640   26655       1   26646   26622   26640   26658       2
   26643   26622   26640   26652       1   26643   26622   26640   26655       1
   26643   26622   26640   26658       2   26640   26658   26661   26670       2
   26640   26658   26661   26676       2   26637   26616   26631   26649       4
   26634   26610   26631   26649       4   26628   26601   26622   26640       2
   26628   26601   26622   26643       1   26628   26601   26622   26646       1
   26625   26601   26622   26640       2   26625   26601   26622   26643       1
   26625   26601   26622   26646       1   26622   26640   26658   26664       2
   26622   26640   26658   26667       2   26619   26598   26616   26631       4
   26619   26598   26616   26637       4   26616   26631   26610   26634       4
   26613   26595   26610   26631       4   26613   26595   26610   26634       4
   26610   26631   26616   26637       4   26607   26586   26601   26622       2
   26607   26586   26601   26625       1   26607   26586   26601   26628       1
   26604   26586   26601   26622       2   26604   26586   26601   26625       1
   26604   26586   26601   26628       1   26601   26622   26640   26652       2
   26601   26622   26640   26655       2   26598   26583   26595   26613       4
   26598   26616   26631   26649       4   26595   26583   26598   26619       4
   26595   26610   26631   26649       4   26592   26574   26586   26601       2
   26592   26574   26586   26604       1   26592   26574   26586   26607       1
   26589   26574   26586   26601       2   26589   26574   26586   26604       1
   26589   26574   26586   26607       1   26586   26601   26622   26643       2
   26586   26601   26622   26646       2   26583   26595   26610   26634       4
   26583   26598   26616   26637       4   26580   26556   26574   26586       2
   26580   26556   26574   26589       1   26580   26556   26574   26592       1
   26577   26556   26574   26586       2   26577   26556   26574   26589       1
   26577   26556   26574   26592       1   26574   26586   26601   26625       2
   26574   26586   26601   26628       2   26571   26547   26565   26583       4
   26568   26544   26565   26583       4   26565   26583   26595   26613       4
   26565   26583   26598   26619       4   26562   26538   26556   26574       2
   26562   26538   26556   26577       1   26562   26538   26556   26580       1
   26559   26538   26556   26574       2   26559   26538   26556   26577       1
   26559   26538   26556   26580       1   26556   26574   26586   26604       2
   26556   26574   26586   26607       2   26550   26532   26547   26565       4
   26550   26532   26547   26571       4   26547   26565   26544   26568       4
   26544   26565   26547   26571       4   26541   26526   26535   26553       4
   26538   26520   26535   26553       4   26538   26556   26574   26589       2
   26538   26556   26574   26592       2   26535   26520   26538   26559       7
   26535   26520   26538   26562       7   26529   26517   26532   26550       4
   26523   26508   26520   26535       4   26523   26508   26520   26538       4
   26520   26535   26526   26541       4   26520   26538   26556   26577       8
   26520   26538   26556   26580       8   26517   26529   26544   26568       4
   26517   26532   26547   26571       4   26514   26529   26544   26568       4
   26511   26499   26508   26523       4   26511   26526   26535   26553       4
   26508   26520   26535   26553       4   26508   26520   26538   26559       7
   26508   26520   26538   26562       7   26505   26517   26532   26550       4
   26502   26511   26526   26541       4   26499   26511   26526   26541       4
   26496   26499   26508   26523       4   26868   26853   26865   26871       1
   26868   26853   26865   26874       1   26868   26853   26865   26877       1
   26862   26853   26865   26871       1   26862   26853   26865   26874       1
   26862   26853   26865   26877       1   26859   26850   26853   26862       1
   26859   26850   26853   26865       2   26859   26850   26853   26868       1
   26856   26850   26853   26862       1   26856   26850   26853   26865       2
   26856   26850   26853   26868       1   26850   26853   26865   26871       2
   26850   26853   26865   26874       2   26850   26853   26865   26877       2
   26847   26832   26850   26853       2   26847   26832   26850   26856       1
   26847   26832   26850   26859       1   26844   26832   26850   26853       2
   26844   26832   26850   26856       1   26844   26832   26850   26859       1
   26838   26814   26832   26844       1   26838   26814   26832   26847       1
   26838   26814   26832   26850       2   26835   26814   26832   26844       1
   26835   26814   26832   26847       1   26835   26814   26832   26850       2
   26832   26850   26853   26862       2   26832   26850   26853   26868       2
   26829   26808   26823   26841       4   26826   26802   26823   26841       4
   26820   26793   26814   26832       2   26820   26793   26814   26835       1
   26820   26793   26814   26838       1   26817   26793   26814   26832       2
   26817   26793   26814   26835       1   26817   26793   26814   26838       1
   26814   26832   26850   26856       2   26814   26832   26850   26859       2
   26811   26790   26808   26823       4   26811   26790   26808   26829       4
   26808   26823   26802   26826       4   26805   26787   26802   26823       4
   26805   26787   26802   26826       4   26802   26823   26808   26829       4
   26799   26778   26793   26814       2   26799   26778   26793   26817       1
   26799   26778   26793   26820       1   26796   26778   26793   26814       2
   26796   26778   26793   26817       1   26796   26778   26793   26820       1
   26793   26814   26832   26844       2   26793   26814   26832   26847       2
   26790   26775   26787   26805       4   26790   26808   26823   26841       4
   26787   26775   26790   26811       4   26787   26802   26823   26841       4
   26784   26766   26778   26793       2   26784   26766   26778   26796       1
   26784   26766   26778   26799       1   26781   26766   26778   26793       2
   26781   26766   26778   26796       1   26781   26766   26778   26799       1
   26778   26793   26814   26835       2   26778   26793   26814   26838       2
   26775   26787   26802   26826       4   26775   26790   26808   26829       4
   26772   26748   26766   26778       2   26772   26748   26766   26781       1
   26772   26748   26766   26784       1   26769   26748   26766   26778       2
   26769   26748   26766   26781       1   26769   26748   26766   26784       1
   26766   26778   26793   26817       2   26766   26778   26793   26820       2
   26763   26739   26757   26775       4   26760   26736   26757   26775       4
   26757   26775   26787   26805       4   26757   26775   26790   26811       4
   26754   26730   26748   26766       2   26754   26730   26748   26769       1
   26754   26730   26748   26772       1   26751   26730   26748   26766       2
   26751   26730   26748   26769       1   26751   26730   26748   26772       1
   26748   26766   26778   26796       2   26748   26766   26778   26799       2
   26742   26724   26739   26757       4   26742   26724   26739   26763       4
   26739   26757   26736   26760       4   26736   26757   26739   26763       4
   26733   26718   26727   26745       4   26730   26712   26727   26745       4
   26730   26748   26766   26781       2   26730   26748   26766   26784       2
   26727   26712   26730   26751       7   26727   26712   26730   26754       7
   26721   26709   26724   26742       4   26715   26700   26712   26727       4
   26715   26700   26712   26730       4   26712   26727   26718   26733       4
   26712   26730   26748   26769       8   26712   26730   26748   26772       8
   26709   26721   26736   26760       4   26709   26724   26739   26763       4
   26706   26721   26736   26760       4   26703   26691   26700   26715       4
   26703   26718   26727   26745       4   26700   26712   26727   26745       4
   26700   26712   26730   26751       7   26700   26712   26730   26754       7
   26697   26709   26724   26742       4   26694   26703   26718   26733       4
   26691   26703   26718   26733       4   26688   26691   26700   26715       4
   27060   27045   27057   27063       1   27060   27045   27057   27066       1
   27060   27045   27057   27069       1   27054   27045   27057   27063       1
   27054   27045   27057   27066       1   27054   27045   27057   27069       1
   27051   27042   27045   27054       1   27051   27042   27045   27057       2
   27051   27042   27045   27060       1   27048   27042   27045   27054       1
   27048   27042   27045   27057       2   27048   27042   27045   27060       1
   27042   27045   27057   27063       2   27042   27045   27057   27066       2
   27042   27045   27057   27069       2   27039   27024   27042   27045       2
   27039   27024   27042   27048       1   27039   27024   27042   27051       1
   27036   27024   27042   27045       2   27036   27024   27042   27048       1
   27036   27024   27042   27051       1   27030   27006   27024   27036       1
   27030   27006   27024   27039       1   27030   27006   27024   27042       2
   27027   27006   27024   27036       1   27027   27006   27024   27039       1
   27027   27006   27024   27042       2   27024   27042   27045   27054       2
   27024   27042   27045   27060       2   27021   27000   27015   27033       4
   27018   26994   27015   27033       4   27012   26985   27006   27024       2
   27012   26985   27006   27027       1   27012   26985   27006   27030       1
   27009   26985   27006   27024       2   27009   26985   27006   27027       1
   27009   26985   27006   27030       1   27006   27024   27042   27048       2
   27006   27024   27042   27051       2   27003   26982   27000   27015       4
   27003   26982   27000   27021       4   27000   27015   26994   27018       4
   26997   26979   26994   27015       4   26997   26979   26994   27018       4
   26994   27015   27000   27021       4   26991   26970   26985   27006       2
   26991   26970   26985   27009       1   26991   26970   26985   27012       1
   26988   26970   26985   27006       2   26988   26970   26985   27009       1
   26988   26970   26985   27012       1   26985   27006   27024   27036       2
   26985   27006   27024   27039       2   26982   26967   26979   26997       4
   26982   27000   27015   27033       4   26979   26967   26982   27003       4
   26979   26994   27015   27033       4   26976   26958   26970   26985       2
   26976   26958   26970   26988       1   26976   26958   26970   26991       1
   26973   26958   26970   26985       2   26973   26958   26970   26988       1
   26973   26958   26970   26991       1   26970   26985   27006   27027       2
   26970   26985   27006   27030       2   26967   26979   26994   27018       4
   26967   26982   27000   27021       4   26964   26940   26958   26970       2
   26964   26940   26958   26973       1   26964   26940   26958   26976       1
   26961   26940   26958   26970       2   26961   26940   26958   26973       1
   26961   26940   26958   26976       1   26958   26970   26985   27009       2
   26958   26970   26985   27012       2   26955   26931   26949   26967       4
   26952   26928   26949   26967       4   26949   26967   26979   26997       4
   26949   26967   26982   27003       4   26946   26922   26940   26958       2
   26946   26922   26940   26961       1   26946   26922   26940   26964       1
   26943   26922   26940   26958       2   26943   26922   26940   26961       1
   26943   26922   26940   26964       1   26940   26958   26970   26988       2
   26940   26958   26970   26991       2   26934   26916   26931   26949       4
   26934   26916   26931   26955       4   26931   26949   26928   26952       4
   26928   26949   26931   26955       4   26925   26910   26919   26937       4
   26922   26904   26919   26937       4   26922   26940   26958   26973       2
   26922   26940   26958   26976       2   26919   26904   26922   26943       7
   26919   26904   26922   26946       7   26913   26901   26916   26934       4
   26907   26892   26904   26919       4   26907   26892   26904   26922       4
   26904   26919   26910   26925       4   26904   26922   26940   26961       8
   26904   26922   26940   26964       8   26901   26913   26928   26952       4
   26901   26916   26931   26955       4   26898   26913   26928   26952       4
   26895   26883   26892   26907       4   26895   26910   26919   26937       4
   26892   26904   26919   26937       4   26892   26904   26922   26943       7
   26892   26904   26922   26946       7   26889   26901   26916   26934       4
   26886   26895   26910   26925       4   26883   26895   26910   26925       4
   26880   26883   26892   26907       4   27252   27237   27249   27255       1
   27252   27237   27249   27258       1   27252   27237   27249   27261       1
   27246   27237   27249   27255       1   27246   27237   27249   27258       1
   27246   27237   27249   27261       1   27243   27234   27237   27246       1
   27243   27234   27237   27249       2   27243   27234   27237   27252       1
   27240   27234   27237   27246       1   27240   27234   27237   27249       2
   27240   27234   27237   27252       1   27234   27237   27249   27255       2
   27234   27237   27249   27258       2   27234   27237   27249   27261       2
   27231   27216   27234   27237       2   27231   27216   27234   27240       1
   27231   27216   27234   27243       1   27228   27216   27234   27237       2
   27228   27216   27234   27240       1   27228   27216   27234   27243       1
   27222   27198   27216   27228       1   27222   27198   27216   27231       1
   27222   27198   27216   27234       2   27219   27198   27216   27228       1
   27219   27198   27216   27231       1   27219   27198   27216   27234       2
   27216   27234   27237   27246       2   27216   27234   27237   27252       2
   27213   27192   27207   27225       4   27210   27186   27207   27225       4
   27204   27177   27198   27216       2   27204   27177   27198   27219       1
   27204   27177   27198   27222       1   27201   27177   27198   27216       2
   27201   27177   27198   27219       1   27201   27177   27198   27222       1
   27198   27216   27234   27240       2   27198   27216   27234   27243       2
   27195   27174   27192   27207       4   27195   27174   27192   27213       4
   27192   27207   27186   27210       4   27189   27171   27186   27207       4
   27189   27171   27186   27210       4   27186   27207   27192   27213       4
   27183   27162   27177   27198       2   27183   27162   27177   27201       1
   27183   27162   27177   27204       1   27180   27162   27177   27198       2
   27180   27162   27177   27201       1   27180   27162   27177   27204       1
   27177   27198   27216   27228       2   27177   27198   27216   27231       2
   27174   27159   27171   27189       4   27174   27192   27207   27225       4
   27171   27159   27174   27195       4   27171   27186   27207   27225       4
   27168   27150   27162   27177       2   27168   27150   27162   27180       1
   27168   27150   27162   27183       1   27165   27150   27162   27177       2
   27165   27150   27162   27180       1   27165   27150   27162   27183       1
   27162   27177   27198   27219       2   27162   27177   27198   27222       2
   27159   27171   27186   27210       4   27159   27174   27192   27213       4
   27156   27132   27150   27162       2   27156   27132   27150   27165       1
   27156   27132   27150   27168       1   27153   27132   27150   27162       2
   27153   27132   27150   27165       1   27153   27132   27150   27168       1
   27150   27162   27177   27201       2   27150   27162   27177   27204       2
   27147   27123   27141   27159       4   27144   27120   27141   27159       4
   27141   27159   27171   27189       4   27141   27159   27174   27195       4
   27138   27114   27132   27150       2   27138   27114   27132   27153       1
   27138   27114   27132   27156       1   27135   27114   27132   27150       2
   27135   27114   27132   27153       1   27135   27114   27132   27156       1
   27132   27150   27162   27180       2   27132   27150   27162   27183       2
   27126   27108   27123   27141       4   27126   27108   27123   27147       4
   27123   27141   27120   27144       4   27120   27141   27123   27147       4
   27117   27102   27111   27129       4   27114   27096   27111   27129       4
   27114   27132   27150   27165       2   27114   27132   27150   27168       2
   27111   27096   27114   27135       7   27111   27096   27114   27138       7
   27105   27093   27108   27126       4   27099   27084   27096   27111       4
   27099   27084   27096   27114       4   27096   27111   27102   27117       4
   27096   27114   27132   27153       8   27096   27114   27132   27156       8
   27093   27105   27120   27144       4   27093   27108   27123   27147       4
   27090   27105   27120   27144       4   27087   27075   27084   27099       4
   27087   27102   27111   27129       4   27084   27096   27111   27129       4
   27084   27096   27114   27135       7   27084   27096   27114   27138       7
   27081   27093   27108   27126       4   27078   27087   27102   27117       4
   27075   27087   27102   27117       4   27072   27075   27084   27099       4
   27444   27429   27441   27447       1   27444   27429   27441   27450       1
   27444   27429   27441   27453       1   27438   27429   27441   27447       1
   27438   27429   27441   27450       1   27438   27429   27441   27453       1
   27435   27426   27429   27438       1   27435   27426   27429   27441       2
   27435   27426   27429   27444       1   27432   27426   27429   27438       1
   27432   27426   27429   27441       2   27432   27426   27429   27444       1
   27426   27429   27441   27447       2   27426   27429   27441   27450       2
   27426   27429   27441   27453       2   27423   27408   27426   27429       2
   27423   27408   27426   27432       1   27423   27408   27426   27435       1
   27420   27408   27426   27429       2   27420   27408   27426   27432       1
   27420   27408   27426   27435       1   27414   27390   27408   27420       1
   27414   27390   27408   27423       1   27414   27390   27408   27426       2
   27411   27390   27408   27420       1   27411   27390   27408   27423       1
   27411   27390   27408   27426       2   27408   27426   27429   27438       2
   27408   27426   27429   27444       2   27405   27384   27399   27417       4
   27402   27378   27399   27417       4   27396   27369   27390   27408       2
   27396   27369   27390   27411       1   27396   27369   27390   27414       1
   27393   27369   27390   27408       2   27393   27369   27390   27411       1
   27393   27369   27390   27414       1   27390   27408   27426   27432       2
   27390   27408   27426   27435       2   27387   27366   27384   27399       4
   27387   27366   27384   27405       4   27384   27399   27378   27402       4
   27381   27363   27378   27399       4   27381   27363   27378   27402       4
   27378   27399   27384   27405       4   27375   27354   27369   27390       2
   27375   27354   27369   27393       1   27375   27354   27369   27396       1
   27372   27354   27369   27390       2   27372   27354   27369   27393       1
   27372   27354   27369   27396       1   27369   27390   27408   27420       2
   27369   27390   27408   27423       2   27366   27351   27363   27381       4
   27366   27384   27399   27417       4   27363   27351   27366   27387       4
   27363   27378   27399   27417       4   27360   27342   27354   27369       2
   27360   27342   27354   27372       1   27360   27342   27354   27375       1
   27357   27342   27354   27369       2   27357   27342   27354   27372       1
   27357   27342   27354   27375       1   27354   27369   27390   27411       2
   27354   27369   27390   27414       2   27351   27363   27378   27402       4
   27351   27366   27384   27405       4   27348   27324   27342   27354       2
   27348   27324   27342   27357       1   27348   27324   27342   27360       1
   27345   27324   27342   27354       2   27345   27324   27342   27357       1
   27345   27324   27342   27360       1   27342   27354   27369   27393       2
   27342   27354   27369   27396       2   27339   27315   27333   27351       4
   27336   27312   27333   27351       4   27333   27351   27363   27381       4
   27333   27351   27366   27387       4   27330   27306   27324   27342       2
   27330   27306   27324   27345       1   27330   27306   27324   27348       1
   27327   27306   27324   27342       2   27327   27306   27324   27345       1
   27327   27306   27324   27348       1   27324   27342   27354   27372       2
   27324   27342   27354   27375       2   27318   27300   27315   27333       4
   27318   27300   27315   27339       4   27315   27333   27312   27336       4
   27312   27333   27315   27339       4   27309   27294   27303   27321       4
   27306   27288   27303   27321       4   27306   27324   27342   27357       2
   27306   27324   27342   27360       2   27303   27288   27306   27327       7
   27303   27288   27306   27330       7   27297   27285   27300   27318       4
   27291   27276   27288   27303       4   27291   27276   27288   27306       4
   27288   27303   27294   27309       4   27288   27306   27324   27345       8
   27288   27306   27324   27348       8   27285   27297   27312   27336       4
   27285   27300   27315   27339       4   27282   27297   27312   27336       4
   27279   27267   27276   27291       4   27279   27294   27303   27321       4
   27276   27288   27303   27321       4   27276   27288   27306   27327       7
   27276   27288   27306   27330       7   27273   27285   27300   27318       4
   27270   27279   27294   27309       4   27267   27279   27294   27309       4
   27264   27267   27276   27291       4   27636   27621   27633   27639       1
   27636   27621   27633   27642       1   27636   27621   27633   27645       1
   27630   27621   27633   27639       1   27630   27621   27633   27642       1
   27630   27621   27633   27645       1   27627   27618   27621   27630       1
   27627   27618   27621   27633       2   27627   27618   27621   27636       1
   27624   27618   27621   27630       1   27624   27618   27621   27633       2
   27624   27618   27621   27636       1   27618   27621   27633   27639       2
   27618   27621   27633   27642       2   27618   27621   27633   27645       2
   27615   27600   27618   27621       2   27615   27600   27618   27624       1
   27615   27600   27618   27627       1   27612   27600   27618   27621       2
   27612   27600   27618   27624       1   27612   27600   27618   27627       1
   27606   27582   27600   27612       1   27606   27582   27600   27615       1
   27606   27582   27600   27618       2   27603   27582   27600   27612       1
   27603   27582   27600   27615       1   27603   27582   27600   27618       2
   27600   27618   27621   27630       2   27600   27618   27621   27636       2
   27597   27576   27591   27609       4   27594   27570   27591   27609       4
   27588   27561   27582   27600       2   27588   27561   27582   27603       1
   27588   27561   27582   27606       1   27585   27561   27582   27600       2
   27585   27561   27582   27603       1   27585   27561   27582   27606       1
   27582   27600   27618   27624       2   27582   27600   27618   27627       2
   27579   27558   27576   27591       4   27579   27558   27576   27597       4
   27576   27591   27570   27594       4   27573   27555   27570   27591       4
   27573   27555   27570   27594       4   27570   27591   27576   27597       4
   27567   27546   27561   27582       2   27567   27546   27561   27585       1
   27567   27546   27561   27588       1   27564   27546   27561   27582       2
   27564   27546   27561   27585       1   27564   27546   27561   27588       1
   27561   27582   27600   27612       2   27561   27582   27600   27615       2
   27558   27543   27555   27573       4   27558   27576   27591   27609       4
   27555   27543   27558   27579       4   27555   27570   27591   27609       4
   27552   27534   27546   27561       2   27552   27534   27546   27564       1
   27552   27534   27546   27567       1   27549   27534   27546   27561       2
   27549   27534   27546   27564       1   27549   27534   27546   27567       1
   27546   27561   27582   27603       2   27546   27561   27582   27606       2
   27543   27555   27570   27594       4   27543   27558   27576   27597       4
   27540   27516   27534   27546       2   27540   27516   27534   27549       1
   27540   27516   27534   27552       1   27537   27516   27534   27546       2
   27537   27516   27534   27549       1   27537   27516   27534   27552       1
   27534   27546   27561   27585       2   27534   27546   27561   27588       2
   27531   27507   27525   27543       4   27528   27504   27525   27543       4
   27525   27543   27555   27573       4   27525   27543   27558   27579       4
   27522   27498   27516   27534       2   27522   27498   27516   27537       1
   27522   27498   27516   27540       1   27519   27498   27516   27534       2
   27519   27498   27516   27537       1   27519   27498   27516   27540       1
   27516   27534   27546   27564       2   27516   27534   27546   27567       2
   27510   27492   27507   27525       4   27510   27492   27507   27531       4
   27507   27525   27504   27528       4   27504   27525   27507   27531       4
   27501   27486   27495   27513       4   27498   27480   27495   27513       4
   27498   27516   27534   27549       2   27498   27516   27534   27552       2
   27495   27480   27498   27519       7   27495   27480   27498   27522       7
   27489   27477   27492   27510       4   27483   27468   27480   27495       4
   27483   27468   27480   27498       4   27480   27495   27486   27501       4
   27480   27498   27516   27537       8   27480   27498   27516   27540       8
   27477   27489   27504   27528       4   27477   27492   27507   27531       4
   27474   27489   27504   27528       4   27471   27459   27468   27483       4
   27471   27486   27495   27513       4   27468   27480   27495   27513       4
   27468   27480   27498   27519       7   27468   27480   27498   27522       7
   27465   27477   27492   27510       4   27462   27471   27486   27501       4
   27459   27471   27486   27501       4   27456   27459   27468   27483       4
   27828   27813   27825   27831       1   27828   27813   27825   27834       1
   27828   27813   27825   27837       1   27822   27813   27825   27831       1
   27822   27813   27825   27834       1   27822   27813   27825   27837       1
   27819   27810   27813   27822       1   27819   27810   27813   27825       2
   27819   27810   27813   27828       1   27816   27810   27813   27822       1
   27816   27810   27813   27825       2   27816   27810   27813   27828       1
   27810   27813   27825   27831       2   27810   27813   27825   27834       2
   27810   27813   27825   27837       2   27807   27792   27810   27813       2
   27807   27792   27810   27816       1   27807   27792   27810   27819       1
   27804   27792   27810   27813       2   27804   27792   27810   27816       1
   27804   27792   27810   27819       1   27798   27774   27792   27804       1
   27798   27774   27792   27807       1   27798   27774   27792   27810       2
   27795   27774   27792   27804       1   27795   27774   27792   27807       1
   27795   27774   27792   27810       2   27792   27810   27813   27822       2
   27792   27810   27813   27828       2   27789   27768   27783   27801       4
   27786   27762   27783   27801       4   27780   27753   27774   27792       2
   27780   27753   27774   27795       1   27780   27753   27774   27798       1
   27777   27753   27774   27792       2   27777   27753   27774   27795       1
   27777   27753   27774   27798       1   27774   27792   27810   27816       2
   27774   27792   27810   27819       2   27771   27750   27768   27783       4
   27771   27750   27768   27789       4   27768   27783   27762   27786       4
   27765   27747   27762   27783       4   27765   27747   27762   27786       4
   27762   27783   27768   27789       4   27759   27738   27753   27774       2
   27759   27738   27753   27777       1   27759   27738   27753   27780       1
   27756   27738   27753   27774       2   27756   27738   27753   27777       1
   27756   27738   27753   27780       1   27753   27774   27792   27804       2
   27753   27774   27792   27807       2   27750   27735   27747   27765       4
   27750   27768   27783   27801       4   27747   27735   27750   27771       4
   27747   27762   27783   27801       4   27744   27726   27738   27753       2
   27744   27726   27738   27756       1   27744   27726   27738   27759       1
   27741   27726   27738   27753       2   27741   27726   27738   27756       1
   27741   27726   27738   27759       1   27738   27753   27774   27795       2
   27738   27753   27774   27798       2   27735   27747   27762   27786       4
   27735   27750   27768   27789       4   27732   27708   27726   27738       2
   27732   27708   27726   27741       1   27732   27708   27726   27744       1
   27729   27708   27726   27738       2   27729   27708   27726   27741       1
   27729   27708   27726   27744       1   27726   27738   27753   27777       2
   27726   27738   27753   27780       2   27723   27699   27717   27735       4
   27720   27696   27717   27735       4   27717   27735   27747   27765       4
   27717   27735   27750   27771       4   27714   27690   27708   27726       2
   27714   27690   27708   27729       1   27714   27690   27708   27732       1
   27711   27690   27708   27726       2   27711   27690   27708   27729       1
   27711   27690   27708   27732       1   27708   27726   27738   27756       2
   27708   27726   27738   27759       2   27702   27684   27699   27717       4
   27702   27684   27699   27723       4   27699   27717   27696   27720       4
   27696   27717   27699   27723       4   27693   27678   27687   27705       4
   27690   27672   27687   27705       4   27690   27708   27726   27741       2
   27690   27708   27726   27744       2   27687   27672   27690   27711       7
   27687   27672   27690   27714       7   27681   27669   27684   27702       4
   27675   27660   27672   27687       4   27675   27660   27672   27690       4
   27672   27687   27678   27693       4   27672   27690   27708   27729       8
   27672   27690   27708   27732       8   27669   27681   27696   27720       4
   27669   27684   27699   27723       4   27666   27681   27696   27720       4
   27663   27651   27660   27675       4   27663   27678   27687   27705       4
   27660   27672   27687   27705       4   27660   27672   27690   27711       7
   27660   27672   27690   27714       7   27657   27669   27684   27702       4
   27654   27663   27678   27693       4   27651   27663   27678   27693       4
   27648   27651   27660   27675       4   28020   28005   28017   28023       1
   28020   28005   28017   28026       1   28020   28005   28017   28029       1
   28014   28005   28017   28023       1   28014   28005   28017   28026       1
   28014   28005   28017   28029       1   28011   28002   28005   28014       1
   28011   28002   28005   28017       2   28011   28002   28005   28020       1
   28008   28002   28005   28014       1   28008   28002   28005   28017       2
   28008   28002   28005   28020       1   28002   28005   28017   28023       2
   28002   28005   28017   28026       2   28002   28005   28017   28029       2
   27999   27984   28002   28005       2   27999   27984   28002   28008       1
   27999   27984   28002   28011       1   27996   27984   28002   28005       2
   27996   27984   28002   28008       1   27996   27984   28002   28011       1
   27990   27966   27984   27996       1   27990   27966   27984   27999       1
   27990   27966   27984   28002       2   27987   27966   27984   27996       1
   27987   27966   27984   27999       1   27987   27966   27984   28002       2
   27984   28002   28005   28014       2   27984   28002   28005   28020       2
   27981   27960   27975   27993       4   27978   27954   27975   27993       4
   27972   27945   27966   27984       2   27972   27945   27966   27987       1
   27972   27945   27966   27990       1   27969   27945   27966   27984       2
   27969   27945   27966   27987       1   27969   27945   27966   27990       1
   27966   27984   28002   28008       2   27966   27984   28002   28011       2
   27963   27942   27960   27975       4   27963   27942   27960   27981       4
   27960   27975   27954   27978       4   27957   27939   27954   27975       4
   27957   27939   27954   27978       4   27954   27975   27960   27981       4
   27951   27930   27945   27966       2   27951   27930   27945   27969       1
   27951   27930   27945   27972       1   27948   27930   27945   27966       2
   27948   27930   27945   27969       1   27948   27930   27945   27972       1
   27945   27966   27984   27996       2   27945   27966   27984   27999       2
   27942   27927   27939   27957       4   27942   27960   27975   27993       4
   27939   27927   27942   27963       4   27939   27954   27975   27993       4
   27936   27918   27930   27945       2   27936   27918   27930   27948       1
   27936   27918   27930   27951       1   27933   27918   27930   27945       2
   27933   27918   27930   27948       1   27933   27918   27930   27951       1
   27930   27945   27966   27987       2   27930   27945   27966   27990       2
   27927   27939   27954   27978       4   27927   27942   27960   27981       4
   27924   27900   27918   27930       2   27924   27900   27918   27933       1
   27924   27900   27918   27936       1   27921   27900   27918   27930       2
   27921   27900   27918   27933       1   27921   27900   27918   27936       1
   27918   27930   27945   27969       2   27918   27930   27945   27972       2
   27915   27891   27909   27927       4   27912   27888   27909   27927       4
   27909   27927   27939   27957       4   27909   27927   27942   27963       4
   27906   27882   27900   27918       2   27906   27882   27900   27921       1
   27906   27882   27900   27924       1   27903   27882   27900   27918       2
   27903   27882   27900   27921       1   27903   27882   27900   27924       1
   27900   27918   27930   27948       2   27900   27918   27930   27951       2
   27894   27876   27891   27909       4   27894   27876   27891   27915       4
   27891   27909   27888   27912       4   27888   27909   27891   27915       4
   27885   27870   27879   27897       4   27882   27864   27879   27897       4
   27882   27900   27918   27933       2   27882   27900   27918   27936       2
   27879   27864   27882   27903       7   27879   27864   27882   27906       7
   27873   27861   27876   27894       4   27867   27852   27864   27879       4
   27867   27852   27864   27882       4   27864   27879   27870   27885       4
   27864   27882   27900   27921       8   27864   27882   27900   27924       8
   27861   27873   27888   27912       4   27861   27876   27891   27915       4
   27858   27873   27888   27912       4   27855   27843   27852   27867       4
   27855   27870   27879   27897       4   27852   27864   27879   27897       4
   27852   27864   27882   27903       7   27852   27864   27882   27906       7
   27849   27861   27876   27894       4   27846   27855   27870   27885       4
   27843   27855   27870   27885       4   27840   27843   27852   27867       4
   28212   28197   28209   28215       1   28212   28197   28209   28218       1
   28212   28197   28209   28221       1   28206   28197   28209   28215       1
   28206   28197   28209   28218       1   28206   28197   28209   28221       1
   28203   28194   28197   28206       1   28203   28194   28197   28209       2
   28203   28194   28197   28212       1   28200   28194   28197   28206       1
   28200   28194   28197   28209       2   28200   28194   28197   28212       1
   28194   28197   28209   28215       2   28194   28197   28209   28218       2
   28194   28197   28209   28221       2   28191   28176   28194   28197       2
   28191   28176   28194   28200       1   28191   28176   28194   28203       1
   28188   28176   28194   28197       2   28188   28176   28194   28200       1
   28188   28176   28194   28203       1   28182   28158   28176   28188       1
   28182   28158   28176   28191       1   28182   28158   28176   28194       2
   28179   28158   28176   28188       1   28179   28158   28176   28191       1
   28179   28158   28176   28194       2   28176   28194   28197   28206       2
   28176   28194   28197   28212       2   28173   28152   28167   28185       4
   28170   28146   28167   28185       4   28164   28137   28158   28176       2
   28164   28137   28158   28179       1   28164   28137   28158   28182       1
   28161   28137   28158   28176       2   28161   28137   28158   28179       1
   28161   28137   28158   28182       1   28158   28176   28194   28200       2
   28158   28176   28194   28203       2   28155   28134   28152   28167       4
   28155   28134   28152   28173       4   28152   28167   28146   28170       4
   28149   28131   28146   28167       4   28149   28131   28146   28170       4
   28146   28167   28152   28173       4   28143   28122   28137   28158       2
   28143   28122   28137   28161       1   28143   28122   28137   28164       1
   28140   28122   28137   28158       2   28140   28122   28137   28161       1
   28140   28122   28137   28164       1   28137   28158   28176   28188       2
   28137   28158   28176   28191       2   28134   28119   28131   28149       4
   28134   28152   28167   28185       4   28131   28119   28134   28155       4
   28131   28146   28167   28185       4   28128   28110   28122   28137       2
   28128   28110   28122   28140       1   28128   28110   28122   28143       1
   28125   28110   28122   28137       2   28125   28110   28122   28140       1
   28125   28110   28122   28143       1   28122   28137   28158   28179       2
   28122   28137   28158   28182       2   28119   28131   28146   28170       4
   28119   28134   28152   28173       4   28116   28092   28110   28122       2
   28116   28092   28110   28125       1   28116   28092   28110   28128       1
   28113   28092   28110   28122       2   28113   28092   28110   28125       1
   28113   28092   28110   28128       1   28110   28122   28137   28161       2
   28110   28122   28137   28164       2   28107   28083   28101   28119       4
   28104   28080   28101   28119       4   28101   28119   28131   28149       4
   28101   28119   28134   28155       4   28098   28074   28092   28110       2
   28098   28074   28092   28113       1   28098   28074   28092   28116       1
   28095   28074   28092   28110       2   28095   28074   28092   28113       1
   28095   28074   28092   28116       1   28092   28110   28122   28140       2
   28092   28110   28122   28143       2   28086   28068   28083   28101       4
   28086   28068   28083   28107       4   28083   28101   28080   28104       4
   28080   28101   28083   28107       4   28077   28062   28071   28089       4
   28074   28056   28071   28089       4   28074   28092   28110   28125       2
   28074   28092   28110   28128       2   28071   28056   28074   28095       7
   28071   28056   28074   28098       7   28065   28053   28068   28086       4
   28059   28044   28056   28071       4   28059   28044   28056   28074       4
   28056   28071   28062   28077       4   28056   28074   28092   28113       8
   28056   28074   28092   28116       8   28053   28065   28080   28104       4
   28053   28068   28083   28107       4   28050   28065   28080   28104       4
   28047   28035   28044   28059       4   28047   28062   28071   28089       4
   28044   28056   28071   28089       4   28044   28056   28074   28095       7
   28044   28056   28074   28098       7   28041   28053   28068   28086       4
   28038   28047   28062   28077       4   28035   28047   28062   28077       4
   28032   28035   28044   28059       4   28404   28389   28401   28407       1
   28404   28389   28401   28410       1   28404   28389   28401   28413       1
   28398   28389   28401   28407       1   28398   28389   28401   28410       1
   28398   28389   28401   28413       1   28395   28386   28389   28398       1
   28395   28386   28389   28401       2   28395   28386   28389   28404       1
   28392   28386   28389   28398       1   28392   28386   28389   28401       2
   28392   28386   28389   28404       1   28386   28389   28401   28407       2
   28386   28389   28401   28410       2   28386   28389   28401   28413       2
   28383   28368   28386   28389       2   28383   28368   28386   28392       1
   28383   28368   28386   28395       1   28380   28368   28386   28389       2
   28380   28368   28386   28392       1   28380   28368   28386   28395       1
   28374   28350   28368   28380       1   28374   28350   28368   28383       1
   28374   28350   28368   28386       2   28371   28350   28368   28380       1
   28371   28350   28368   28383       1   28371   28350   28368   28386       2
   28368   28386   28389   28398       2   28368   28386   28389   28404       2
   28365   28344   28359   28377       4   28362   28338   28359   28377       4
   28356   28329   28350   28368       2   28356   28329   28350   28371       1
   28356   28329   28350   28374       1   28353   28329   28350   28368       2
   28353   28329   28350   28371       1   28353   28329   28350   28374       1
   28350   28368   28386   28392       2   28350   28368   28386   28395       2
   28347   28326   28344   28359       4   28347   28326   28344   28365       4
   28344   28359   28338   28362       4   28341   28323   28338   28359       4
   28341   28323   28338   28362       4   28338   28359   28344   28365       4
   28335   28314   28329   28350       2   28335   28314   28329   28353       1
   28335   28314   28329   28356       1   28332   28314   28329   28350       2
   28332   28314   28329   28353       1   28332   28314   28329   28356       1
   28329   28350   28368   28380       2   28329   28350   28368   28383       2
   28326   28311   28323   28341       4   28326   28344   28359   28377       4
   28323   28311   28326   28347       4   28323   28338   28359   28377       4
   28320   28302   28314   28329       2   28320   28302   28314   28332       1
   28320   28302   28314   28335       1   28317   28302   28314   28329       2
   28317   28302   28314   28332       1   28317   28302   28314   28335       1
   28314   28329   28350   28371       2   28314   28329   28350   28374       2
   28311   28323   28338   28362       4   28311   28326   28344   28365       4
   28308   28284   28302   28314       2   28308   28284   28302   28317       1
   28308   28284   28302   28320       1   28305   28284   28302   28314       2
   28305   28284   28302   28317       1   28305   28284   28302   28320       1
   28302   28314   28329   28353       2   28302   28314   28329   28356       2
   28299   28275   28293   28311       4   28296   28272   28293   28311       4
   28293   28311   28323   28341       4   28293   28311   28326   28347       4
   28290   28266   28284   28302       2   28290   28266   28284   28305       1
   28290   28266   28284   28308       1   28287   28266   28284   28302       2
   28287   28266   28284   28305       1   28287   28266   28284   28308       1
   28284   28302   28314   28332       2   28284   28302   28314   28335       2
   28278   28260   28275   28293       4   28278   28260   28275   28299       4
   28275   28293   28272   28296       4   28272   28293   28275   28299       4
   28269   28254   28263   28281       4   28266   28248   28263   28281       4
   28266   28284   28302   28317       2   28266   28284   28302   28320       2
   28263   28248   28266   28287       7   28263   28248   28266   28290       7
   28257   28245   28260   28278       4   28251   28236   28248   28263       4
   28251   28236   28248   28266       4   28248   28263   28254   28269       4
   28248   28266   28284   28305       8   28248   28266   28284   28308       8
   28245   28257   28272   28296       4   28245   28260   28275   28299       4
   28242   28257   28272   28296       4   28239   28227   28236   28251       4
   28239   28254   28263   28281       4   28236   28248   28263   28281       4
   28236   28248   28266   28287       7   28236   28248   28266   28290       7
   28233   28245   28260   28278       4   28230   28239   28254   28269       4
   28227   28239   28254   28269       4   28224   28227   28236   28251       4
   28596   28581   28593   28599       1   28596   28581   28593   28602       1
   28596   28581   28593   28605       1   28590   28581   28593   28599       1
   28590   28581   28593   28602       1   28590   28581   28593   28605       1
   28587   28578   28581   28590       1   28587   28578   28581   28593       2
   28587   28578   28581   28596       1   28584   28578   28581   28590       1
   28584   28578   28581   28593       2   28584   28578   28581   28596       1
   28578   28581   28593   28599       2   28578   28581   28593   28602       2
   28578   28581   28593   28605       2   28575   28560   28578   28581       2
   28575   28560   28578   28584       1   28575   28560   28578   28587       1
   28572   28560   28578   28581       2   28572   28560   28578   28584       1
   28572   28560   28578   28587       1   28566   28542   28560   28572       1
   28566   28542   28560   28575       1   28566   28542   28560   28578       2
   28563   28542   28560   28572       1   28563   28542   28560   28575       1
   28563   28542   28560   28578       2   28560   28578   28581   28590       2
   28560   28578   28581   28596       2   28557   28536   28551   28569       4
   28554   28530   28551   28569       4   28548   28521   28542   28560       2
   28548   28521   28542   28563       1   28548   28521   28542   28566       1
   28545   28521   28542   28560       2   28545   28521   28542   28563       1
   28545   28521   28542   28566       1   28542   28560   28578   28584       2
   28542   28560   28578   28587       2   28539   28518   28536   28551       4
   28539   28518   28536   28557       4   28536   28551   28530   28554       4
   28533   28515   28530   28551       4   28533   28515   28530   28554       4
   28530   28551   28536   28557       4   28527   28506   28521   28542       2
   28527   28506   28521   28545       1   28527   28506   28521   28548       1
   28524   28506   28521   28542       2   28524   28506   28521   28545       1
   28524   28506   28521   28548       1   28521   28542   28560   28572       2
   28521   28542   28560   28575       2   28518   28503   28515   28533       4
   28518   28536   28551   28569       4   28515   28503   28518   28539       4
   28515   28530   28551   28569       4   28512   28494   28506   28521       2
   28512   28494   28506   28524       1   28512   28494   28506   28527       1
   28509   28494   28506   28521       2   28509   28494   28506   28524       1
   28509   28494   28506   28527       1   28506   28521   28542   28563       2
   28506   28521   28542   28566       2   28503   28515   28530   28554       4
   28503   28518   28536   28557       4   28500   28476   28494   28506       2
   28500   28476   28494   28509       1   28500   28476   28494   28512       1
   28497   28476   28494   28506       2   28497   28476   28494   28509       1
   28497   28476   28494   28512       1   28494   28506   28521   28545       2
   28494   28506   28521   28548       2   28491   28467   28485   28503       4
   28488   28464   28485   28503       4   28485   28503   28515   28533       4
   28485   28503   28518   28539       4   28482   28458   28476   28494       2
   28482   28458   28476   28497       1   28482   28458   28476   28500       1
   28479   28458   28476   28494       2   28479   28458   28476   28497       1
   28479   28458   28476   28500       1   28476   28494   28506   28524       2
   28476   28494   28506   28527       2   28470   28452   28467   28485       4
   28470   28452   28467   28491       4   28467   28485   28464   28488       4
   28464   28485   28467   28491       4   28461   28446   28455   28473       4
   28458   28440   28455   28473       4   28458   28476   28494   28509       2
   28458   28476   28494   28512       2   28455   28440   28458   28479       7
   28455   28440   28458   28482       7   28449   28437   28452   28470       4
   28443   28428   28440   28455       4   28443   28428   28440   28458       4
   28440   28455   28446   28461       4   28440   28458   28476   28497       8
   28440   28458   28476   28500       8   28437   28449   28464   28488       4
   28437   28452   28467   28491       4   28434   28449   28464   28488       4
   28431   28419   28428   28443       4   28431   28446   28455   28473       4
   28428   28440   28455   28473       4   28428   28440   28458   28479       7
   28428   28440   28458   28482       7   28425   28437   28452   28470       4
   28422   28431   28446   28461       4   28419   28431   28446   28461       4
   28416   28419   28428   28443       4   28788   28773   28785   28791       1
   28788   28773   28785   28794       1   28788   28773   28785   28797       1
   28782   28773   28785   28791       1   28782   28773   28785   28794       1
   28782   28773   28785   28797       1   28779   28770   28773   28782       1
   28779   28770   28773   28785       2   28779   28770   28773   28788       1
   28776   28770   28773   28782       1   28776   28770   28773   28785       2
   28776   28770   28773   28788       1   28770   28773   28785   28791       2
   28770   28773   28785   28794       2   28770   28773   28785   28797       2
   28767   28752   28770   28773       2   28767   28752   28770   28776       1
   28767   28752   28770   28779       1   28764   28752   28770   28773       2
   28764   28752   28770   28776       1   28764   28752   28770   28779       1
   28758   28734   28752   28764       1   28758   28734   28752   28767       1
   28758   28734   28752   28770       2   28755   28734   28752   28764       1
   28755   28734   28752   28767       1   28755   28734   28752   28770       2
   28752   28770   28773   28782       2   28752   28770   28773   28788       2
   28749   28728   28743   28761       4   28746   28722   28743   28761       4
   28740   28713   28734   28752       2   28740   28713   28734   28755       1
   28740   28713   28734   28758       1   28737   28713   28734   28752       2
   28737   28713   28734   28755       1   28737   28713   28734   28758       1
   28734   28752   28770   28776       2   28734   28752   28770   28779       2
   28731   28710   28728   28743       4   28731   28710   28728   28749       4
   28728   28743   28722   28746       4   28725   28707   28722   28743       4
   28725   28707   28722   28746       4   28722   28743   28728   28749       4
   28719   28698   28713   28734       2   28719   28698   28713   28737       1
   28719   28698   28713   28740       1   28716   28698   28713   28734       2
   28716   28698   28713   28737       1   28716   28698   28713   28740       1
   28713   28734   28752   28764       2   28713   28734   28752   28767       2
   28710   28695   28707   28725       4   28710   28728   28743   28761       4
   28707   28695   28710   28731       4   28707   28722   28743   28761       4
   28704   28686   28698   28713       2   28704   28686   28698   28716       1
   28704   28686   28698   28719       1   28701   28686   28698   28713       2
   28701   28686   28698   28716       1   28701   28686   28698   28719       1
   28698   28713   28734   28755       2   28698   28713   28734   28758       2
   28695   28707   28722   28746       4   28695   28710   28728   28749       4
   28692   28668   28686   28698       2   28692   28668   28686   28701       1
   28692   28668   28686   28704       1   28689   28668   28686   28698       2
   28689   28668   28686   28701       1   28689   28668   28686   28704       1
   28686   28698   28713   28737       2   28686   28698   28713   28740       2
   28683   28659   28677   28695       4   28680   28656   28677   28695       4
   28677   28695   28707   28725       4   28677   28695   28710   28731       4
   28674   28650   28668   28686       2   28674   28650   28668   28689       1
   28674   28650   28668   28692       1   28671   28650   28668   28686       2
   28671   28650   28668   28689       1   28671   28650   28668   28692       1
   28668   28686   28698   28716       2   28668   28686   28698   28719       2
   28662   28644   28659   28677       4   28662   28644   28659   28683       4
   28659   28677   28656   28680       4   28656   28677   28659   28683       4
   28653   28638   28647   28665       4   28650   28632   28647   28665       4
   28650   28668   28686   28701       2   28650   28668   28686   28704       2
   28647   28632   28650   28671       7   28647   28632   28650   28674       7
   28641   28629   28644   28662       4   28635   28620   28632   28647       4
   28635   28620   28632   28650       4   28632   28647   28638   28653       4
   28632   28650   28668   28689       8   28632   28650   28668   28692       8
   28629   28641   28656   28680       4   28629   28644   28659   28683       4
   28626   28641   28656   28680       4   28623   28611   28620   28635       4
   28623   28638   28647   28665       4   28620   28632   28647   28665       4
   28620   28632   28650   28671       7   28620   28632   28650   28674       7
   28617   28629   28644   28662       4   28614   28623   28638   28653       4
   28611   28623   28638   28653       4   28608   28611   28620   28635       4
   28980   28965   28977   28983       1   28980   28965   28977   28986       1
   28980   28965   28977   28989       1   28974   28965   28977   28983       1
   28974   28965   28977   28986       1   28974   28965   28977   28989       1
   28971   28962   28965   28974       1   28971   28962   28965   28977       2
   28971   28962   28965   28980       1   28968   28962   28965   28974       1
   28968   28962   28965   28977       2   28968   28962   28965   28980       1
   28962   28965   28977   28983       2   28962   28965   28977   28986       2
   28962   28965   28977   28989       2   28959   28944   28962   28965       2
   28959   28944   28962   28968       1   28959   28944   28962   28971       1
   28956   28944   28962   28965       2   28956   28944   28962   28968       1
   28956   28944   28962   28971       1   28950   28926   28944   28956       1
   28950   28926   28944   28959       1   28950   28926   28944   28962       2
   28947   28926   28944   28956       1   28947   28926   28944   28959       1
   28947   28926   28944   28962       2   28944   28962   28965   28974       2
   28944   28962   28965   28980       2   28941   28920   28935   28953       4
   28938   28914   28935   28953       4   28932   28905   28926   28944       2
   28932   28905   28926   28947       1   28932   28905   28926   28950       1
   28929   28905   28926   28944       2   28929   28905   28926   28947       1
   28929   28905   28926   28950       1   28926   28944   28962   28968       2
   28926   28944   28962   28971       2   28923   28902   28920   28935       4
   28923   28902   28920   28941       4   28920   28935   28914   28938       4
   28917   28899   28914   28935       4   28917   28899   28914   28938       4
   28914   28935   28920   28941       4   28911   28890   28905   28926       2
   28911   28890   28905   28929       1   28911   28890   28905   28932       1
   28908   28890   28905   28926       2   28908   28890   28905   28929       1
   28908   28890   28905   28932       1   28905   28926   28944   28956       2
   28905   28926   28944   28959       2   28902   28887   28899   28917       4
   28902   28920   28935   28953       4   28899   28887   28902   28923       4
   28899   28914   28935   28953       4   28896   28878   28890   28905       2
   28896   28878   28890   28908       1   28896   28878   28890   28911       1
   28893   28878   28890   28905       2   28893   28878   28890   28908       1
   28893   28878   28890   28911       1   28890   28905   28926   28947       2
   28890   28905   28926   28950       2   28887   28899   28914   28938       4
   28887   28902   28920   28941       4   28884   28860   28878   28890       2
   28884   28860   28878   28893       1   28884   28860   28878   28896       1
   28881   28860   28878   28890       2   28881   28860   28878   28893       1
   28881   28860   28878   28896       1   28878   28890   28905   28929       2
   28878   28890   28905   28932       2   28875   28851   28869   28887       4
   28872   28848   28869   28887       4   28869   28887   28899   28917       4
   28869   28887   28902   28923       4   28866   28842   28860   28878       2
   28866   28842   28860   28881       1   28866   28842   28860   28884       1
   28863   28842   28860   28878       2   28863   28842   28860   28881       1
   28863   28842   28860   28884       1   28860   28878   28890   28908       2
   28860   28878   28890   28911       2   28854   28836   28851   28869       4
   28854   28836   28851   28875       4   28851   28869   28848   28872       4
   28848   28869   28851   28875       4   28845   28830   28839   28857       4
   28842   28824   28839   28857       4   28842   28860   28878   28893       2
   28842   28860   28878   28896       2   28839   28824   28842   28863       7
   28839   28824   28842   28866       7   28833   28821   28836   28854       4
   28827   28812   28824   28839       4   28827   28812   28824   28842       4
   28824   28839   28830   28845       4   28824   28842   28860   28881       8
   28824   28842   28860   28884       8   28821   28833   28848   28872       4
   28821   28836   28851   28875       4   28818   28833   28848   28872       4
   28815   28803   28812   28827       4   28815   28830   28839   28857       4
   28812   28824   28839   28857       4   28812   28824   28842   28863       7
   28812   28824   28842   28866       7   28809   28821   28836   28854       4
   28806   28815   28830   28845       4   28803   28815   28830   28845       4
   28800   28803   28812   28827       4   29172   29157   29169   29175       1
   29172   29157   29169   29178       1   29172   29157   29169   29181       1
   29166   29157   29169   29175       1   29166   29157   29169   29178       1
   29166   29157   29169   29181       1   29163   29154   29157   29166       1
   29163   29154   29157   29169       2   29163   29154   29157   29172       1
   29160   29154   29157   29166       1   29160   29154   29157   29169       2
   29160   29154   29157   29172       1   29154   29157   29169   29175       2
   29154   29157   29169   29178       2   29154   29157   29169   29181       2
   29151   29136   29154   29157       2   29151   29136   29154   29160       1
   29151   29136   29154   29163       1   29148   29136   29154   29157       2
   29148   29136   29154   29160       1   29148   29136   29154   29163       1
   29142   29118   29136   29148       1   29142   29118   29136   29151       1
   29142   29118   29136   29154       2   29139   29118   29136   29148       1
   29139   29118   29136   29151       1   29139   29118   29136   29154       2
   29136   29154   29157   29166       2   29136   29154   29157   29172       2
   29133   29112   29127   29145       4   29130   29106   29127   29145       4
   29124   29097   29118   29136       2   29124   29097   29118   29139       1
   29124   29097   29118   29142       1   29121   29097   29118   29136       2
   29121   29097   29118   29139       1   29121   29097   29118   29142       1
   29118   29136   29154   29160       2   29118   29136   29154   29163       2
   29115   29094   29112   29127       4   29115   29094   29112   29133       4
   29112   29127   29106   29130       4   29109   29091   29106   29127       4
   29109   29091   29106   29130       4   29106   29127   29112   29133       4
   29103   29082   29097   29118       2   29103   29082   29097   29121       1
   29103   29082   29097   29124       1   29100   29082   29097   29118       2
   29100   29082   29097   29121       1   29100   29082   29097   29124       1
   29097   29118   29136   29148       2   29097   29118   29136   29151       2
   29094   29079   29091   29109       4   29094   29112   29127   29145       4
   29091   29079   29094   29115       4   29091   29106   29127   29145       4
   29088   29070   29082   29097       2   29088   29070   29082   29100       1
   29088   29070   29082   29103       1   29085   29070   29082   29097       2
   29085   29070   29082   29100       1   29085   29070   29082   29103       1
   29082   29097   29118   29139       2   29082   29097   29118   29142       2
   29079   29091   29106   29130       4   29079   29094   29112   29133       4
   29076   29052   29070   29082       2   29076   29052   29070   29085       1
   29076   29052   29070   29088       1   29073   29052   29070   29082       2
   29073   29052   29070   29085       1   29073   29052   29070   29088       1
   29070   29082   29097   29121       2   29070   29082   29097   29124       2
   29067   29043   29061   29079       4   29064   29040   29061   29079       4
   29061   29079   29091   29109       4   29061   29079   29094   29115       4
   29058   29034   29052   29070       2   29058   29034   29052   29073       1
   29058   29034   29052   29076       1   29055   29034   29052   29070       2
   29055   29034   29052   29073       1   29055   29034   29052   29076       1
   29052   29070   29082   29100       2   29052   29070   29082   29103       2
   29046   29028   29043   29061       4   29046   29028   29043   29067       4
   29043   29061   29040   29064       4   29040   29061   29043   29067       4
   29037   29022   29031   29049       4   29034   29016   29031   29049       4
   29034   29052   29070   29085       2   29034   29052   29070   29088       2
   29031   29016   29034   29055       7   29031   29016   29034   29058       7
   29025   29013   29028   29046       4   29019   29004   29016   29031       4
   29019   29004   29016   29034       4   29016   29031   29022   29037       4
   29016   29034   29052   29073       8   29016   29034   29052   29076       8
   29013   29025   29040   29064       4   29013   29028   29043   29067       4
   29010   29025   29040   29064       4   29007   28995   29004   29019       4
   29007   29022   29031   29049       4   29004   29016   29031   29049       4
   29004   29016   29034   29055       7   29004   29016   29034   29058       7
   29001   29013   29028   29046       4   28998   29007   29022   29037       4
   28995   29007   29022   29037       4   28992   28995   29004   29019       4
   29364   29349   29361   29367       1   29364   29349   29361   29370       1
   29364   29349   29361   29373       1   29358   29349   29361   29367       1
   29358   29349   29361   29370       1   29358   29349   29361   29373       1
   29355   29346   29349   29358       1   29355   29346   29349   29361       2
   29355   29346   29349   29364       1   29352   29346   29349   29358       1
   29352   29346   29349   29361       2   29352   29346   29349   29364       1
   29346   29349   29361   29367       2   29346   29349   29361   29370       2
   29346   29349   29361   29373       2   29343   29328   29346   29349       2
   29343   29328   29346   29352       1   29343   29328   29346   29355       1
   29340   29328   29346   29349       2   29340   29328   29346   29352       1
   29340   29328   29346   29355       1   29334   29310   29328   29340       1
   29334   29310   29328   29343       1   29334   29310   29328   29346       2
   29331   29310   29328   29340       1   29331   29310   29328   29343       1
   29331   29310   29328   29346       2   29328   29346   29349   29358       2
   29328   29346   29349   29364       2   29325   29304   29319   29337       4
   29322   29298   29319   29337       4   29316   29289   29310   29328       2
   29316   29289   29310   29331       1   29316   29289   29310   29334       1
   29313   29289   29310   29328       2   29313   29289   29310   29331       1
   29313   29289   29310   29334       1   29310   29328   29346   29352       2
   29310   29328   29346   29355       2   29307   29286   29304   29319       4
   29307   29286   29304   29325       4   29304   29319   29298   29322       4
   29301   29283   29298   29319       4   29301   29283   29298   29322       4
   29298   29319   29304   29325       4   29295   29274   29289   29310       2
   29295   29274   29289   29313       1   29295   29274   29289   29316       1
   29292   29274   29289   29310       2   29292   29274   29289   29313       1
   29292   29274   29289   29316       1   29289   29310   29328   29340       2
   29289   29310   29328   29343       2   29286   29271   29283   29301       4
   29286   29304   29319   29337       4   29283   29271   29286   29307       4
   29283   29298   29319   29337       4   29280   29262   29274   29289       2
   29280   29262   29274   29292       1   29280   29262   29274   29295       1
   29277   29262   29274   29289       2   29277   29262   29274   29292       1
   29277   29262   29274   29295       1   29274   29289   29310   29331       2
   29274   29289   29310   29334       2   29271   29283   29298   29322       4
   29271   29286   29304   29325       4   29268   29244   29262   29274       2
   29268   29244   29262   29277       1   29268   29244   29262   29280       1
   29265   29244   29262   29274       2   29265   29244   29262   29277       1
   29265   29244   29262   29280       1   29262   29274   29289   29313       2
   29262   29274   29289   29316       2   29259   29235   29253   29271       4
   29256   29232   29253   29271       4   29253   29271   29283   29301       4
   29253   29271   29286   29307       4   29250   29226   29244   29262       2
   29250   29226   29244   29265       1   29250   29226   29244   29268       1
   29247   29226   29244   29262       2   29247   29226   29244   29265       1
   29247   29226   29244   29268       1   29244   29262   29274   29292       2
   29244   29262   29274   29295       2   29238   29220   29235   29253       4
   29238   29220   29235   29259       4   29235   29253   29232   29256       4
   29232   29253   29235   29259       4   29229   29214   29223   29241       4
   29226   29208   29223   29241       4   29226   29244   29262   29277       2
   29226   29244   29262   29280       2   29223   29208   29226   29247       7
   29223   29208   29226   29250       7   29217   29205   29220   29238       4
   29211   29196   29208   29223       4   29211   29196   29208   29226       4
   29208   29223   29214   29229       4   29208   29226   29244   29265       8
   29208   29226   29244   29268       8   29205   29217   29232   29256       4
   29205   29220   29235   29259       4   29202   29217   29232   29256       4
   29199   29187   29196   29211       4   29199   29214   29223   29241       4
   29196   29208   29223   29241       4   29196   29208   29226   29247       7
   29196   29208   29226   29250       7   29193   29205   29220   29238       4
   29190   29199   29214   29229       4   29187   29199   29214   29229       4
   29184   29187   29196   29211       4   29556   29541   29553   29559       1
   29556   29541   29553   29562       1   29556   29541   29553   29565       1
   29550   29541   29553   29559       1   29550   29541   29553   29562       1
   29550   29541   29553   29565       1   29547   29538   29541   29550       1
   29547   29538   29541   29553       2   29547   29538   29541   29556       1
   29544   29538   29541   29550       1   29544   29538   29541   29553       2
   29544   29538   29541   29556       1   29538   29541   29553   29559       2
   29538   29541   29553   29562       2   29538   29541   29553   29565       2
   29535   29520   29538   29541       2   29535   29520   29538   29544       1
   29535   29520   29538   29547       1   29532   29520   29538   29541       2
   29532   29520   29538   29544       1   29532   29520   29538   29547       1
   29526   29502   29520   29532       1   29526   29502   29520   29535       1
   29526   29502   29520   29538       2   29523   29502   29520   29532       1
   29523   29502   29520   29535       1   29523   29502   29520   29538       2
   29520   29538   29541   29550       2   29520   29538   29541   29556       2
   29517   29496   29511   29529       4   29514   29490   29511   29529       4
   29508   29481   29502   29520       2   29508   29481   29502   29523       1
   29508   29481   29502   29526       1   29505   29481   29502   29520       2
   29505   29481   29502   29523       1   29505   29481   29502   29526       1
   29502   29520   29538   29544       2   29502   29520   29538   29547       2
   29499   29478   29496   29511       4   29499   29478   29496   29517       4
   29496   29511   29490   29514       4   29493   29475   29490   29511       4
   29493   29475   29490   29514       4   29490   29511   29496   29517       4
   29487   29466   29481   29502       2   29487   29466   29481   29505       1
   29487   29466   29481   29508       1   29484   29466   29481   29502       2
   29484   29466   29481   29505       1   29484   29466   29481   29508       1
   29481   29502   29520   29532       2   29481   29502   29520   29535       2
   29478   29463   29475   29493       4   29478   29496   29511   29529       4
   29475   29463   29478   29499       4   29475   29490   29511   29529       4
   29472   29454   29466   29481       2   29472   29454   29466   29484       1
   29472   29454   29466   29487       1   29469   29454   29466   29481       2
   29469   29454   29466   29484       1   29469   29454   29466   29487       1
   29466   29481   29502   29523       2   29466   29481   29502   29526       2
   29463   29475   29490   29514       4   29463   29478   29496   29517       4
   29460   29436   29454   29466       2   29460   29436   29454   29469       1
   29460   29436   29454   29472       1   29457   29436   29454   29466       2
   29457   29436   29454   29469       1   29457   29436   29454   29472       1
   29454   29466   29481   29505       2   29454   29466   29481   29508       2
   29451   29427   29445   29463       4   29448   29424   29445   29463       4
   29445   29463   29475   29493       4   29445   29463   29478   29499       4
   29442   29418   29436   29454       2   29442   29418   29436   29457       1
   29442   29418   29436   29460       1   29439   29418   29436   29454       2
   29439   29418   29436   29457       1   29439   29418   29436   29460       1
   29436   29454   29466   29484       2   29436   29454   29466   29487       2
   29430   29412   29427   29445       4   29430   29412   29427   29451       4
   29427   29445   29424   29448       4   29424   29445   29427   29451       4
   29421   29406   29415   29433       4   29418   29400   29415   29433       4
   29418   29436   29454   29469       2   29418   29436   29454   29472       2
   29415   29400   29418   29439       7   29415   29400   29418   29442       7
   29409   29397   29412   29430       4   29403   29388   29400   29415       4
   29403   29388   29400   29418       4   29400   29415   29406   29421       4
   29400   29418   29436   29457       8   29400   29418   29436   29460       8
   29397   29409   29424   29448       4   29397   29412   29427   29451       4
   29394   29409   29424   29448       4   29391   29379   29388   29403       4
   29391   29406   29415   29433       4   29388   29400   29415   29433       4
   29388   29400   29418   29439       7   29388   29400   29418   29442       7
   29385   29397   29412   29430       4   29382   29391   29406   29421       4
   29379   29391   29406   29421       4   29376   29379   29388   29403       4
   29748   29733   29745   29751       1   29748   29733   29745   29754       1
   29748   29733   29745   29757       1   29742   29733   29745   29751       1
   29742   29733   29745   29754       1   29742   29733   29745   29757       1
   29739   29730   29733   29742       1   29739   29730   29733   29745       2
   29739   29730   29733   29748       1   29736   29730   29733   29742       1
   29736   29730   29733   29745       2   29736   29730   29733   29748       1
   29730   29733   29745   29751       2   29730   29733   29745   29754       2
   29730   29733   29745   29757       2   29727   29712   29730   29733       2
   29727   29712   29730   29736       1   29727   29712   29730   29739       1
   29724   29712   29730   29733       2   29724   29712   29730   29736       1
   29724   29712   29730   29739       1   29718   29694   29712   29724       1
   29718   29694   29712   29727       1   29718   29694   29712   29730       2
   29715   29694   29712   29724       1   29715   29694   29712   29727       1
   29715   29694   29712   29730       2   29712   29730   29733   29742       2
   29712   29730   29733   29748       2   29709   29688   29703   29721       4
   29706   29682   29703   29721       4   29700   29673   29694   29712       2
   29700   29673   29694   29715       1   29700   29673   29694   29718       1
   29697   29673   29694   29712       2   29697   29673   29694   29715       1
   29697   29673   29694   29718       1   29694   29712   29730   29736       2
   29694   29712   29730   29739       2   29691   29670   29688   29703       4
   29691   29670   29688   29709       4   29688   29703   29682   29706       4
   29685   29667   29682   29703       4   29685   29667   29682   29706       4
   29682   29703   29688   29709       4   29679   29658   29673   29694       2
   29679   29658   29673   29697       1   29679   29658   29673   29700       1
   29676   29658   29673   29694       2   29676   29658   29673   29697       1
   29676   29658   29673   29700       1   29673   29694   29712   29724       2
   29673   29694   29712   29727       2   29670   29655   29667   29685       4
   29670   29688   29703   29721       4   29667   29655   29670   29691       4
   29667   29682   29703   29721       4   29664   29646   29658   29673       2
   29664   29646   29658   29676       1   29664   29646   29658   29679       1
   29661   29646   29658   29673       2   29661   29646   29658   29676       1
   29661   29646   29658   29679       1   29658   29673   29694   29715       2
   29658   29673   29694   29718       2   29655   29667   29682   29706       4
   29655   29670   29688   29709       4   29652   29628   29646   29658       2
   29652   29628   29646   29661       1   29652   29628   29646   29664       1
   29649   29628   29646   29658       2   29649   29628   29646   29661       1
   29649   29628   29646   29664       1   29646   29658   29673   29697       2
   29646   29658   29673   29700       2   29643   29619   29637   29655       4
   29640   29616   29637   29655       4   29637   29655   29667   29685       4
   29637   29655   29670   29691       4   29634   29610   29628   29646       2
   29634   29610   29628   29649       1   29634   29610   29628   29652       1
   29631   29610   29628   29646       2   29631   29610   29628   29649       1
   29631   29610   29628   29652       1   29628   29646   29658   29676       2
   29628   29646   29658   29679       2   29622   29604   29619   29637       4
   29622   29604   29619   29643       4   29619   29637   29616   29640       4
   29616   29637   29619   29643       4   29613   29598   29607   29625       4
   29610   29592   29607   29625       4   29610   29628   29646   29661       2
   29610   29628   29646   29664       2   29607   29592   29610   29631       7
   29607   29592   29610   29634       7   29601   29589   29604   29622       4
   29595   29580   29592   29607       4   29595   29580   29592   29610       4
   29592   29607   29598   29613       4   29592   29610   29628   29649       8
   29592   29610   29628   29652       8   29589   29601   29616   29640       4
   29589   29604   29619   29643       4   29586   29601   29616   29640       4
   29583   29571   29580   29595       4   29583   29598   29607   29625       4
   29580   29592   29607   29625       4   29580   29592   29610   29631       7
   29580   29592   29610   29634       7   29577   29589   29604   29622       4
   29574   29583   29598   29613       4   29571   29583   29598   29613       4
   29568   29571   29580   29595       4   29940   29925   29937   29943       1
   29940   29925   29937   29946       1   29940   29925   29937   29949       1
   29934   29925   29937   29943       1   29934   29925   29937   29946       1
   29934   29925   29937   29949       1   29931   29922   29925   29934       1
   29931   29922   29925   29937       2   29931   29922   29925   29940       1
   29928   29922   29925   29934       1   29928   29922   29925   29937       2
   29928   29922   29925   29940       1   29922   29925   29937   29943       2
   29922   29925   29937   29946       2   29922   29925   29937   29949       2
   29919   29904   29922   29925       2   29919   29904   29922   29928       1
   29919   29904   29922   29931       1   29916   29904   29922   29925       2
   29916   29904   29922   29928       1   29916   29904   29922   29931       1
   29910   29886   29904   29916       1   29910   29886   29904   29919       1
   29910   29886   29904   29922       2   29907   29886   29904   29916       1
   29907   29886   29904   29919       1   29907   29886   29904   29922       2
   29904   29922   29925   29934       2   29904   29922   29925   29940       2
   29901   29880   29895   29913       4   29898   29874   29895   29913       4
   29892   29865   29886   29904       2   29892   29865   29886   29907       1
   29892   29865   29886   29910       1   29889   29865   29886   29904       2
   29889   29865   29886   29907       1   29889   29865   29886   29910       1
   29886   29904   29922   29928       2   29886   29904   29922   29931       2
   29883   29862   29880   29895       4   29883   29862   29880   29901       4
   29880   29895   29874   29898       4   29877   29859   29874   29895       4
   29877   29859   29874   29898       4   29874   29895   29880   29901       4
   29871   29850   29865   29886       2   29871   29850   29865   29889       1
   29871   29850   29865   29892       1   29868   29850   29865   29886       2
   29868   29850   29865   29889       1   29868   29850   29865   29892       1
   29865   29886   29904   29916       2   29865   29886   29904   29919       2
   29862   29847   29859   29877       4   29862   29880   29895   29913       4
   29859   29847   29862   29883       4   29859   29874   29895   29913       4
   29856   29838   29850   29865       2   29856   29838   29850   29868       1
   29856   29838   29850   29871       1   29853   29838   29850   29865       2
   29853   29838   29850   29868       1   29853   29838   29850   29871       1
   29850   29865   29886   29907       2   29850   29865   29886   29910       2
   29847   29859   29874   29898       4   29847   29862   29880   29901       4
   29844   29820   29838   29850       2   29844   29820   29838   29853       1
   29844   29820   29838   29856       1   29841   29820   29838   29850       2
   29841   29820   29838   29853       1   29841   29820   29838   29856       1
   29838   29850   29865   29889       2   29838   29850   29865   29892       2
   29835   29811   29829   29847       4   29832   29808   29829   29847       4
   29829   29847   29859   29877       4   29829   29847   29862   29883       4
   29826   29802   29820   29838       2   29826   29802   29820   29841       1
   29826   29802   29820   29844       1   29823   29802   29820   29838       2
   29823   29802   29820   29841       1   29823   29802   29820   29844       1
   29820   29838   29850   29868       2   29820   29838   29850   29871       2
   29814   29796   29811   29829       4   29814   29796   29811   29835       4
   29811   29829   29808   29832       4   29808   29829   29811   29835       4
   29805   29790   29799   29817       4   29802   29784   29799   29817       4
   29802   29820   29838   29853       2   29802   29820   29838   29856       2
   29799   29784   29802   29823       7   29799   29784   29802   29826       7
   29793   29781   29796   29814       4   29787   29772   29784   29799       4
   29787   29772   29784   29802       4   29784   29799   29790   29805       4
   29784   29802   29820   29841       8   29784   29802   29820   29844       8
   29781   29793   29808   29832       4   29781   29796   29811   29835       4
   29778   29793   29808   29832       4   29775   29763   29772   29787       4
   29775   29790   29799   29817       4   29772   29784   29799   29817       4
   29772   29784   29802   29823       7   29772   29784   29802   29826       7
   29769   29781   29796   29814       4   29766   29775   29790   29805       4
   29763   29775   29790   29805       4   29760   29763   29772   29787       4
   30132   30117   30129   30135       1   30132   30117   30129   30138       1
   30132   30117   30129   30141       1   30126   30117   30129   30135       1
   30126   30117   30129   30138       1   30126   30117   30129   30141       1
   30123   30114   30117   30126       1   30123   30114   30117   30129       2
   30123   30114   30117   30132       1   30120   30114   30117   30126       1
   30120   30114   30117   30129       2   30120   30114   30117   30132       1
   30114   30117   30129   30135       2   30114   30117   30129   30138       2
   30114   30117   30129   30141       2   30111   30096   30114   30117       2
   30111   30096   30114   30120       1   30111   30096   30114   30123       1
   30108   30096   30114   30117       2   30108   30096   30114   30120       1
   30108   30096   30114   30123       1   30102   30078   30096   30108       1
   30102   30078   30096   30111       1   30102   30078   30096   30114       2
   30099   30078   30096   30108       1   30099   30078   30096   30111       1
   30099   30078   30096   30114       2   30096   30114   30117   30126       2
   30096   30114   30117   30132       2   30093   30072   30087   30105       4
   30090   30066   30087   30105       4   30084   30057   30078   30096       2
   30084   30057   30078   30099       1   30084   30057   30078   30102       1
   30081   30057   30078   30096       2   30081   30057   30078   30099       1
   30081   30057   30078   30102       1   30078   30096   30114   30120       2
   30078   30096   30114   30123       2   30075   30054   30072   30087       4
   30075   30054   30072   30093       4   30072   30087   30066   30090       4
   30069   30051   30066   30087       4   30069   30051   30066   30090       4
   30066   30087   30072   30093       4   30063   30042   30057   30078       2
   30063   30042   30057   30081       1   30063   30042   30057   30084       1
   30060   30042   30057   30078       2   30060   30042   30057   30081       1
   30060   30042   30057   30084       1   30057   30078   30096   30108       2
   30057   30078   30096   30111       2   30054   30039   30051   30069       4
   30054   30072   30087   30105       4   30051   30039   30054   30075       4
   30051   30066   30087   30105       4   30048   30030   30042   30057       2
   30048   30030   30042   30060       1   30048   30030   30042   30063       1
   30045   30030   30042   30057       2   30045   30030   30042   30060       1
   30045   30030   30042   30063       1   30042   30057   30078   30099       2
   30042   30057   30078   30102       2   30039   30051   30066   30090       4
   30039   30054   30072   30093       4   30036   30012   30030   30042       2
   30036   30012   30030   30045       1   30036   30012   30030   30048       1
   30033   30012   30030   30042       2   30033   30012   30030   30045       1
   30033   30012   30030   30048       1   30030   30042   30057   30081       2
   30030   30042   30057   30084       2   30027   30003   30021   30039       4
   30024   30000   30021   30039       4   30021   30039   30051   30069       4
   30021   30039   30054   30075       4   30018   29994   30012   30030       2
   30018   29994   30012   30033       1   30018   29994   30012   30036       1
   30015   29994   30012   30030       2   30015   29994   30012   30033       1
   30015   29994   30012   30036       1   30012   30030   30042   30060       2
   30012   30030   30042   30063       2   30006   29988   30003   30021       4
   30006   29988   30003   30027       4   30003   30021   30000   30024       4
   30000   30021   30003   30027       4   29997   29982   29991   30009       4
   29994   29976   29991   30009       4   29994   30012   30030   30045       2
   29994   30012   30030   30048       2   29991   29976   29994   30015       7
   29991   29976   29994   30018       7   29985   29973   29988   30006       4
   29979   29964   29976   29991       4   29979   29964   29976   29994       4
   29976   29991   29982   29997       4   29976   29994   30012   30033       8
   29976   29994   30012   30036       8   29973   29985   30000   30024       4
   29973   29988   30003   30027       4   29970   29985   30000   30024       4
   29967   29955   29964   29979       4   29967   29982   29991   30009       4
   29964   29976   29991   30009       4   29964   29976   29994   30015       7
   29964   29976   29994   30018       7   29961   29973   29988   30006       4
   29958   29967   29982   29997       4   29955   29967   29982   29997       4
   29952   29955   29964   29979       4   30324   30309   30321   30327       1
   30324   30309   30321   30330       1   30324   30309   30321   30333       1
   30318   30309   30321   30327       1   30318   30309   30321   30330       1
   30318   30309   30321   30333       1   30315   30306   30309   30318       1
   30315   30306   30309   30321       2   30315   30306   30309   30324       1
   30312   30306   30309   30318       1   30312   30306   30309   30321       2
   30312   30306   30309   30324       1   30306   30309   30321   30327       2
   30306   30309   30321   30330       2   30306   30309   30321   30333       2
   30303   30288   30306   30309       2   30303   30288   30306   30312       1
   30303   30288   30306   30315       1   30300   30288   30306   30309       2
   30300   30288   30306   30312       1   30300   30288   30306   30315       1
   30294   30270   30288   30300       1   30294   30270   30288   30303       1
   30294   30270   30288   30306       2   30291   30270   30288   30300       1
   30291   30270   30288   30303       1   30291   30270   30288   30306       2
   30288   30306   30309   30318       2   30288   30306   30309   30324       2
   30285   30264   30279   30297       4   30282   30258   30279   30297       4
   30276   30249   30270   30288       2   30276   30249   30270   30291       1
   30276   30249   30270   30294       1   30273   30249   30270   30288       2
   30273   30249   30270   30291       1   30273   30249   30270   30294       1
   30270   30288   30306   30312       2   30270   30288   30306   30315       2
   30267   30246   30264   30279       4   30267   30246   30264   30285       4
   30264   30279   30258   30282       4   30261   30243   30258   30279       4
   30261   30243   30258   30282       4   30258   30279   30264   30285       4
   30255   30234   30249   30270       2   30255   30234   30249   30273       1
   30255   30234   30249   30276       1   30252   30234   30249   30270       2
   30252   30234   30249   30273       1   30252   30234   30249   30276       1
   30249   30270   30288   30300       2   30249   30270   30288   30303       2
   30246   30231   30243   30261       4   30246   30264   30279   30297       4
   30243   30231   30246   30267       4   30243   30258   30279   30297       4
   30240   30222   30234   30249       2   30240   30222   30234   30252       1
   30240   30222   30234   30255       1   30237   30222   30234   30249       2
   30237   30222   30234   30252       1   30237   30222   30234   30255       1
   30234   30249   30270   30291       2   30234   30249   30270   30294       2
   30231   30243   30258   30282       4   30231   30246   30264   30285       4
   30228   30204   30222   30234       2   30228   30204   30222   30237       1
   30228   30204   30222   30240       1   30225   30204   30222   30234       2
   30225   30204   30222   30237       1   30225   30204   30222   30240       1
   30222   30234   30249   30273       2   30222   30234   30249   30276       2
   30219   30195   30213   30231       4   30216   30192   30213   30231       4
   30213   30231   30243   30261       4   30213   30231   30246   30267       4
   30210   30186   30204   30222       2   30210   30186   30204   30225       1
   30210   30186   30204   30228       1   30207   30186   30204   30222       2
   30207   30186   30204   30225       1   30207   30186   30204   30228       1
   30204   30222   30234   30252       2   30204   30222   30234   30255       2
   30198   30180   30195   30213       4   30198   30180   30195   30219       4
   30195   30213   30192   30216       4   30192   30213   30195   30219       4
   30189   30174   30183   30201       4   30186   30168   30183   30201       4
   30186   30204   30222   30237       2   30186   30204   30222   30240       2
   30183   30168   30186   30207       7   30183   30168   30186   30210       7
   30177   30165   30180   30198       4   30171   30156   30168   30183       4
   30171   30156   30168   30186       4   30168   30183   30174   30189       4
   30168   30186   30204   30225       8   30168   30186   30204   30228       8
   30165   30177   30192   30216       4   30165   30180   30195   30219       4
   30162   30177   30192   30216       4   30159   30147   30156   30171       4
   30159   30174   30183   30201       4   30156   30168   30183   30201       4
   30156   30168   30186   30207       7   30156   30168   30186   30210       7
   30153   30165   30180   30198       4   30150   30159   30174   30189       4
   30147   30159   30174   30189       4   30144   30147   30156   30171       4
   30516   30501   30513   30519       1   30516   30501   30513   30522       1
   30516   30501   30513   30525       1   30510   30501   30513   30519       1
   30510   30501   30513   30522       1   30510   30501   30513   30525       1
   30507   30498   30501   30510       1   30507   30498   30501   30513       2
   30507   30498   30501   30516       1   30504   30498   30501   30510       1
   30504   30498   30501   30513       2   30504   30498   30501   30516       1
   30498   30501   30513   30519       2   30498   30501   30513   30522       2
   30498   30501   30513   30525       2   30495   30480   30498   30501       2
   30495   30480   30498   30504       1   30495   30480   30498   30507       1
   30492   30480   30498   30501       2   30492   30480   30498   30504       1
   30492   30480   30498   30507       1   30486   30462   30480   30492       1
   30486   30462   30480   30495       1   30486   30462   30480   30498       2
   30483   30462   30480   30492       1   30483   30462   30480   30495       1
   30483   30462   30480   30498       2   30480   30498   30501   30510       2
   30480   30498   30501   30516       2   30477   30456   30471   30489       4
   30474   30450   30471   30489       4   30468   30441   30462   30480       2
   30468   30441   30462   30483       1   30468   30441   30462   30486       1
   30465   30441   30462   30480       2   30465   30441   30462   30483       1
   30465   30441   30462   30486       1   30462   30480   30498   30504       2
   30462   30480   30498   30507       2   30459   30438   30456   30471       4
   30459   30438   30456   30477       4   30456   30471   30450   30474       4
   30453   30435   30450   30471       4   30453   30435   30450   30474       4
   30450   30471   30456   30477       4   30447   30426   30441   30462       2
   30447   30426   30441   30465       1   30447   30426   30441   30468       1
   30444   30426   30441   30462       2   30444   30426   30441   30465       1
   30444   30426   30441   30468       1   30441   30462   30480   30492       2
   30441   30462   30480   30495       2   30438   30423   30435   30453       4
   30438   30456   30471   30489       4   30435   30423   30438   30459       4
   30435   30450   30471   30489       4   30432   30414   30426   30441       2
   30432   30414   30426   30444       1   30432   30414   30426   30447       1
   30429   30414   30426   30441       2   30429   30414   30426   30444       1
   30429   30414   30426   30447       1   30426   30441   30462   30483       2
   30426   30441   30462   30486       2   30423   30435   30450   30474       4
   30423   30438   30456   30477       4   30420   30396   30414   30426       2
   30420   30396   30414   30429       1   30420   30396   30414   30432       1
   30417   30396   30414   30426       2   30417   30396   30414   30429       1
   30417   30396   30414   30432       1   30414   30426   30441   30465       2
   30414   30426   30441   30468       2   30411   30387   30405   30423       4
   30408   30384   30405   30423       4   30405   30423   30435   30453       4
   30405   30423   30438   30459       4   30402   30378   30396   30414       2
   30402   30378   30396   30417       1   30402   30378   30396   30420       1
   30399   30378   30396   30414       2   30399   30378   30396   30417       1
   30399   30378   30396   30420       1   30396   30414   30426   30444       2
   30396   30414   30426   30447       2   30390   30372   30387   30405       4
   30390   30372   30387   30411       4   30387   30405   30384   30408       4
   30384   30405   30387   30411       4   30381   30366   30375   30393       4
   30378   30360   30375   30393       4   30378   30396   30414   30429       2
   30378   30396   30414   30432       2   30375   30360   30378   30399       7
   30375   30360   30378   30402       7   30369   30357   30372   30390       4
   30363   30348   30360   30375       4   30363   30348   30360   30378       4
   30360   30375   30366   30381       4   30360   30378   30396   30417       8
   30360   30378   30396   30420       8   30357   30369   30384   30408       4
   30357   30372   30387   30411       4   30354   30369   30384   30408       4
   30351   30339   30348   30363       4   30351   30366   30375   30393       4
   30348   30360   30375   30393       4   30348   30360   30378   30399       7
   30348   30360   30378   30402       7   30345   30357   30372   30390       4
   30342   30351   30366   30381       4   30339   30351   30366   30381       4
   30336   30339   30348   30363       4   30708   30693   30705   30711       1
   30708   30693   30705   30714       1   30708   30693   30705   30717       1
   30702   30693   30705   30711       1   30702   30693   30705   30714       1
   30702   30693   30705   30717       1   30699   30690   30693   30702       1
   30699   30690   30693   30705       2   30699   30690   30693   30708       1
   30696   30690   30693   30702       1   30696   30690   30693   30705       2
   30696   30690   30693   30708       1   30690   30693   30705   30711       2
   30690   30693   30705   30714       2   30690   30693   30705   30717       2
   30687   30672   30690   30693       2   30687   30672   30690   30696       1
   30687   30672   30690   30699       1   30684   30672   30690   30693       2
   30684   30672   30690   30696       1   30684   30672   30690   30699       1
   30678   30654   30672   30684       1   30678   30654   30672   30687       1
   30678   30654   30672   30690       2   30675   30654   30672   30684       1
   30675   30654   30672   30687       1   30675   30654   30672   30690       2
   30672   30690   30693   30702       2   30672   30690   30693   30708       2
   30669   30648   30663   30681       4   30666   30642   30663   30681       4
   30660   30633   30654   30672       2   30660   30633   30654   30675       1
   30660   30633   30654   30678       1   30657   30633   30654   30672       2
   30657   30633   30654   30675       1   30657   30633   30654   30678       1
   30654   30672   30690   30696       2   30654   30672   30690   30699       2
   30651   30630   30648   30663       4   30651   30630   30648   30669       4
   30648   30663   30642   30666       4   30645   30627   30642   30663       4
   30645   30627   30642   30666       4   30642   30663   30648   30669       4
   30639   30618   30633   30654       2   30639   30618   30633   30657       1
   30639   30618   30633   30660       1   30636   30618   30633   30654       2
   30636   30618   30633   30657       1   30636   30618   30633   30660       1
   30633   30654   30672   30684       2   30633   30654   30672   30687       2
   30630   30615   30627   30645       4   30630   30648   30663   30681       4
   30627   30615   30630   30651       4   30627   30642   30663   30681       4
   30624   30606   30618   30633       2   30624   30606   30618   30636       1
   30624   30606   30618   30639       1   30621   30606   30618   30633       2
   30621   30606   30618   30636       1   30621   30606   30618   30639       1
   30618   30633   30654   30675       2   30618   30633   30654   30678       2
   30615   30627   30642   30666       4   30615   30630   30648   30669       4
   30612   30588   30606   30618       2   30612   30588   30606   30621       1
   30612   30588   30606   30624       1   30609   30588   30606   30618       2
   30609   30588   30606   30621       1   30609   30588   30606   30624       1
   30606   30618   30633   30657       2   30606   30618   30633   30660       2
   30603   30579   30597   30615       4   30600   30576   30597   30615       4
   30597   30615   30627   30645       4   30597   30615   30630   30651       4
   30594   30570   30588   30606       2   30594   30570   30588   30609       1
   30594   30570   30588   30612       1   30591   30570   30588   30606       2
   30591   30570   30588   30609       1   30591   30570   30588   30612       1
   30588   30606   30618   30636       2   30588   30606   30618   30639       2
   30582   30564   30579   30597       4   30582   30564   30579   30603       4
   30579   30597   30576   30600       4   30576   30597   30579   30603       4
   30573   30558   30567   30585       4   30570   30552   30567   30585       4
   30570   30588   30606   30621       2   30570   30588   30606   30624       2
   30567   30552   30570   30591       7   30567   30552   30570   30594       7
   30561   30549   30564   30582       4   30555   30540   30552   30567       4
   30555   30540   30552   30570       4   30552   30567   30558   30573       4
   30552   30570   30588   30609       8   30552   30570   30588   30612       8
   30549   30561   30576   30600       4   30549   30564   30579   30603       4
   30546   30561   30576   30600       4   30543   30531   30540   30555       4
   30543   30558   30567   30585       4   30540   30552   30567   30585       4
   30540   30552   30570   30591       7   30540   30552   30570   30594       7
   30537   30549   30564   30582       4   30534   30543   30558   30573       4
   30531   30543   30558   30573       4   30528   30531   30540   30555       4
   30900   30885   30897   30903       1   30900   30885   30897   30906       1
   30900   30885   30897   30909       1   30894   30885   30897   30903       1
   30894   30885   30897   30906       1   30894   30885   30897   30909       1
   30891   30882   30885   30894       1   30891   30882   30885   30897       2
   30891   30882   30885   30900       1   30888   30882   30885   30894       1
   30888   30882   30885   30897       2   30888   30882   30885   30900       1
   30882   30885   30897   30903       2   30882   30885   30897   30906       2
   30882   30885   30897   30909       2   30879   30864   30882   30885       2
   30879   30864   30882   30888       1   30879   30864   30882   30891       1
   30876   30864   30882   30885       2   30876   30864   30882   30888       1
   30876   30864   30882   30891       1   30870   30846   30864   30876       1
   30870   30846   30864   30879       1   30870   30846   30864   30882       2
   30867   30846   30864   30876       1   30867   30846   30864   30879       1
   30867   30846   30864   30882       2   30864   30882   30885   30894       2
   30864   30882   30885   30900       2   30861   30840   30855   30873       4
   30858   30834   30855   30873       4   30852   30825   30846   30864       2
   30852   30825   30846   30867       1   30852   30825   30846   30870       1
   30849   30825   30846   30864       2   30849   30825   30846   30867       1
   30849   30825   30846   30870       1   30846   30864   30882   30888       2
   30846   30864   30882   30891       2   30843   30822   30840   30855       4
   30843   30822   30840   30861       4   30840   30855   30834   30858       4
   30837   30819   30834   30855       4   30837   30819   30834   30858       4
   30834   30855   30840   30861       4   30831   30810   30825   30846       2
   30831   30810   30825   30849       1   30831   30810   30825   30852       1
   30828   30810   30825   30846       2   30828   30810   30825   30849       1
   30828   30810   30825   30852       1   30825   30846   30864   30876       2
   30825   30846   30864   30879       2   30822   30807   30819   30837       4
   30822   30840   30855   30873       4   30819   30807   30822   30843       4
   30819   30834   30855   30873       4   30816   30798   30810   30825       2
   30816   30798   30810   30828       1   30816   30798   30810   30831       1
   30813   30798   30810   30825       2   30813   30798   30810   30828       1
   30813   30798   30810   30831       1   30810   30825   30846   30867       2
   30810   30825   30846   30870       2   30807   30819   30834   30858       4
   30807   30822   30840   30861       4   30804   30780   30798   30810       2
   30804   30780   30798   30813       1   30804   30780   30798   30816       1
   30801   30780   30798   30810       2   30801   30780   30798   30813       1
   30801   30780   30798   30816       1   30798   30810   30825   30849       2
   30798   30810   30825   30852       2   30795   30771   30789   30807       4
   30792   30768   30789   30807       4   30789   30807   30819   30837       4
   30789   30807   30822   30843       4   30786   30762   30780   30798       2
   30786   30762   30780   30801       1   30786   30762   30780   30804       1
   30783   30762   30780   30798       2   30783   30762   30780   30801       1
   30783   30762   30780   30804       1   30780   30798   30810   30828       2
   30780   30798   30810   30831       2   30774   30756   30771   30789       4
   30774   30756   30771   30795       4   30771   30789   30768   30792       4
   30768   30789   30771   30795       4   30765   30750   30759   30777       4
   30762   30744   30759   30777       4   30762   30780   30798   30813       2
   30762   30780   30798   30816       2   30759   30744   30762   30783       7
   30759   30744   30762   30786       7   30753   30741   30756   30774       4
   30747   30732   30744   30759       4   30747   30732   30744   30762       4
   30744   30759   30750   30765       4   30744   30762   30780   30801       8
   30744   30762   30780   30804       8   30741   30753   30768   30792       4
   30741   30756   30771   30795       4   30738   30753   30768   30792       4
   30735   30723   30732   30747       4   30735   30750   30759   30777       4
   30732   30744   30759   30777       4   30732   30744   30762   30783       7
   30732   30744   30762   30786       7   30729   30741   30756   30774       4
   30726   30735   30750   30765       4   30723   30735   30750   30765       4
   30720   30723   30732   30747       4   31092   31077   31089   31095       1
   31092   31077   31089   31098       1   31092   31077   31089   31101       1
   31086   31077   31089   31095       1   31086   31077   31089   31098       1
   31086   31077   31089   31101       1   31083   31074   31077   31086       1
   31083   31074   31077   31089       2   31083   31074   31077   31092       1
   31080   31074   31077   31086       1   31080   31074   31077   31089       2
   31080   31074   31077   31092       1   31074   31077   31089   31095       2
   31074   31077   31089   31098       2   31074   31077   31089   31101       2
   31071   31056   31074   31077       2   31071   31056   31074   31080       1
   31071   31056   31074   31083       1   31068   31056   31074   31077       2
   31068   31056   31074   31080       1   31068   31056   31074   31083       1
   31062   31038   31056   31068       1   31062   31038   31056   31071       1
   31062   31038   31056   31074       2   31059   31038   31056   31068       1
   31059   31038   31056   31071       1   31059   31038   31056   31074       2
   31056   31074   31077   31086       2   31056   31074   31077   31092       2
   31053   31032   31047   31065       4   31050   31026   31047   31065       4
   31044   31017   31038   31056       2   31044   31017   31038   31059       1
   31044   31017   31038   31062       1   31041   31017   31038   31056       2
   31041   31017   31038   31059       1   31041   31017   31038   31062       1
   31038   31056   31074   31080       2   31038   31056   31074   31083       2
   31035   31014   31032   31047       4   31035   31014   31032   31053       4
   31032   31047   31026   31050       4   31029   31011   31026   31047       4
   31029   31011   31026   31050       4   31026   31047   31032   31053       4
   31023   31002   31017   31038       2   31023   31002   31017   31041       1
   31023   31002   31017   31044       1   31020   31002   31017   31038       2
   31020   31002   31017   31041       1   31020   31002   31017   31044       1
   31017   31038   31056   31068       2   31017   31038   31056   31071       2
   31014   30999   31011   31029       4   31014   31032   31047   31065       4
   31011   30999   31014   31035       4   31011   31026   31047   31065       4
   31008   30990   31002   31017       2   31008   30990   31002   31020       1
   31008   30990   31002   31023       1   31005   30990   31002   31017       2
   31005   30990   31002   31020       1   31005   30990   31002   31023       1
   31002   31017   31038   31059       2   31002   31017   31038   31062       2
   30999   31011   31026   31050       4   30999   31014   31032   31053       4
   30996   30972   30990   31002       2   30996   30972   30990   31005       1
   30996   30972   30990   31008       1   30993   30972   30990   31002       2
   30993   30972   30990   31005       1   30993   30972   30990   31008       1
   30990   31002   31017   31041       2   30990   31002   31017   31044       2
   30987   30963   30981   30999       4   30984   30960   30981   30999       4
   30981   30999   31011   31029       4   30981   30999   31014   31035       4
   30978   30954   30972   30990       2   30978   30954   30972   30993       1
   30978   30954   30972   30996       1   30975   30954   30972   30990       2
   30975   30954   30972   30993       1   30975   30954   30972   30996       1
   30972   30990   31002   31020       2   30972   30990   31002   31023       2
   30966   30948   30963   30981       4   30966   30948   30963   30987       4
   30963   30981   30960   30984       4   30960   30981   30963   30987       4
   30957   30942   30951   30969       4   30954   30936   30951   30969       4
   30954   30972   30990   31005       2   30954   30972   30990   31008       2
   30951   30936   30954   30975       7   30951   30936   30954   30978       7
   30945   30933   30948   30966       4   30939   30924   30936   30951       4
   30939   30924   30936   30954       4   30936   30951   30942   30957       4
   30936   30954   30972   30993       8   30936   30954   30972   30996       8
   30933   30945   30960   30984       4   30933   30948   30963   30987       4
   30930   30945   30960   30984       4   30927   30915   30924   30939       4
   30927   30942   30951   30969       4   30924   30936   30951   30969       4
   30924   30936   30954   30975       7   30924   30936   30954   30978       7
   30921   30933   30948   30966       4   30918   30927   30942   30957       4
   30915   30927   30942   30957       4   30912   30915   30924   30939       4
   31284   31269   31281   31287       1   31284   31269   31281   31290       1
   31284   31269   31281   31293       1   31278   31269   31281   31287       1
   31278   31269   31281   31290       1   31278   31269   31281   31293       1
   31275   31266   31269   31278       1   31275   31266   31269   31281       2
   31275   31266   31269   31284       1   31272   31266   31269   31278       1
   31272   31266   31269   31281       2   31272   31266   31269   31284       1
   31266   31269   31281   31287       2   31266   31269   31281   31290       2
   31266   31269   31281   31293       2   31263   31248   31266   31269       2
   31263   31248   31266   31272       1   31263   31248   31266   31275       1
   31260   31248   31266   31269       2   31260   31248   31266   31272       1
   31260   31248   31266   31275       1   31254   31230   31248   31260       1
   31254   31230   31248   31263       1   31254   31230   31248   31266       2
   31251   31230   31248   31260       1   31251   31230   31248   31263       1
   31251   31230   31248   31266       2   31248   31266   31269   31278       2
   31248   31266   31269   31284       2   31245   31224   31239   31257       4
   31242   31218   31239   31257       4   31236   31209   31230   31248       2
   31236   31209   31230   31251       1   31236   31209   31230   31254       1
   31233   31209   31230   31248       2   31233   31209   31230   31251       1
   31233   31209   31230   31254       1   31230   31248   31266   31272       2
   31230   31248   31266   31275       2   31227   31206   31224   31239       4
   31227   31206   31224   31245       4   31224   31239   31218   31242       4
   31221   31203   31218   31239       4   31221   31203   31218   31242       4
   31218   31239   31224   31245       4   31215   31194   31209   31230       2
   31215   31194   31209   31233       1   31215   31194   31209   31236       1
   31212   31194   31209   31230       2   31212   31194   31209   31233       1
   31212   31194   31209   31236       1   31209   31230   31248   31260       2
   31209   31230   31248   31263       2   31206   31191   31203   31221       4
   31206   31224   31239   31257       4   31203   31191   31206   31227       4
   31203   31218   31239   31257       4   31200   31182   31194   31209       2
   31200   31182   31194   31212       1   31200   31182   31194   31215       1
   31197   31182   31194   31209       2   31197   31182   31194   31212       1
   31197   31182   31194   31215       1   31194   31209   31230   31251       2
   31194   31209   31230   31254       2   31191   31203   31218   31242       4
   31191   31206   31224   31245       4   31188   31164   31182   31194       2
   31188   31164   31182   31197       1   31188   31164   31182   31200       1
   31185   31164   31182   31194       2   31185   31164   31182   31197       1
   31185   31164   31182   31200       1   31182   31194   31209   31233       2
   31182   31194   31209   31236       2   31179   31155   31173   31191       4
   31176   31152   31173   31191       4   31173   31191   31203   31221       4
   31173   31191   31206   31227       4   31170   31146   31164   31182       2
   31170   31146   31164   31185       1   31170   31146   31164   31188       1
   31167   31146   31164   31182       2   31167   31146   31164   31185       1
   31167   31146   31164   31188       1   31164   31182   31194   31212       2
   31164   31182   31194   31215       2   31158   31140   31155   31173       4
   31158   31140   31155   31179       4   31155   31173   31152   31176       4
   31152   31173   31155   31179       4   31149   31134   31143   31161       4
   31146   31128   31143   31161       4   31146   31164   31182   31197       2
   31146   31164   31182   31200       2   31143   31128   31146   31167       7
   31143   31128   31146   31170       7   31137   31125   31140   31158       4
   31131   31116   31128   31143       4   31131   31116   31128   31146       4
   31128   31143   31134   31149       4   31128   31146   31164   31185       8
   31128   31146   31164   31188       8   31125   31137   31152   31176       4
   31125   31140   31155   31179       4   31122   31137   31152   31176       4
   31119   31107   31116   31131       4   31119   31134   31143   31161       4
   31116   31128   31143   31161       4   31116   31128   31146   31167       7
   31116   31128   31146   31170       7   31113   31125   31140   31158       4
   31110   31119   31134   31149       4   31107   31119   31134   31149       4
   31104   31107   31116   31131       4   31476   31461   31473   31479       1
   31476   31461   31473   31482       1   31476   31461   31473   31485       1
   31470   31461   31473   31479       1   31470   31461   31473   31482       1
   31470   31461   31473   31485       1   31467   31458   31461   31470       1
   31467   31458   31461   31473       2   31467   31458   31461   31476       1
   31464   31458   31461   31470       1   31464   31458   31461   31473       2
   31464   31458   31461   31476       1   31458   31461   31473   31479       2
   31458   31461   31473   31482       2   31458   31461   31473   31485       2
   31455   31440   31458   31461       2   31455   31440   31458   31464       1
   31455   31440   31458   31467       1   31452   31440   31458   31461       2
   31452   31440   31458   31464       1   31452   31440   31458   31467       1
   31446   31422   31440   31452       1   31446   31422   31440   31455       1
   31446   31422   31440   31458       2   31443   31422   31440   31452       1
   31443   31422   31440   31455       1   31443   31422   31440   31458       2
   31440   31458   31461   31470       2   31440   31458   31461   31476       2
   31437   31416   31431   31449       4   31434   31410   31431   31449       4
   31428   31401   31422   31440       2   31428   31401   31422   31443       1
   31428   31401   31422   31446       1   31425   31401   31422   31440       2
   31425   31401   31422   31443       1   31425   31401   31422   31446       1
   31422   31440   31458   31464       2   31422   31440   31458   31467       2
   31419   31398   31416   31431       4   31419   31398   31416   31437       4
   31416   31431   31410   31434       4   31413   31395   31410   31431       4
   31413   31395   31410   31434       4   31410   31431   31416   31437       4
   31407   31386   31401   31422       2   31407   31386   31401   31425       1
   31407   31386   31401   31428       1   31404   31386   31401   31422       2
   31404   31386   31401   31425       1   31404   31386   31401   31428       1
   31401   31422   31440   31452       2   31401   31422   31440   31455       2
   31398   31383   31395   31413       4   31398   31416   31431   31449       4
   31395   31383   31398   31419       4   31395   31410   31431   31449       4
   31392   31374   31386   31401       2   31392   31374   31386   31404       1
   31392   31374   31386   31407       1   31389   31374   31386   31401       2
   31389   31374   31386   31404       1   31389   31374   31386   31407       1
   31386   31401   31422   31443       2   31386   31401   31422   31446       2
   31383   31395   31410   31434       4   31383   31398   31416   31437       4
   31380   31356   31374   31386       2   31380   31356   31374   31389       1
   31380   31356   31374   31392       1   31377   31356   31374   31386       2
   31377   31356   31374   31389       1   31377   31356   31374   31392       1
   31374   31386   31401   31425       2   31374   31386   31401   31428       2
   31371   31347   31365   31383       4   31368   31344   31365   31383       4
   31365   31383   31395   31413       4   31365   31383   31398   31419       4
   31362   31338   31356   31374       2   31362   31338   31356   31377       1
   31362   31338   31356   31380       1   31359   31338   31356   31374       2
   31359   31338   31356   31377       1   31359   31338   31356   31380       1
   31356   31374   31386   31404       2   31356   31374   31386   31407       2
   31350   31332   31347   31365       4   31350   31332   31347   31371       4
   31347   31365   31344   31368       4   31344   31365   31347   31371       4
   31341   31326   31335   31353       4   31338   31320   31335   31353       4
   31338   31356   31374   31389       2   31338   31356   31374   31392       2
   31335   31320   31338   31359       7   31335   31320   31338   31362       7
   31329   31317   31332   31350       4   31323   31308   31320   31335       4
   31323   31308   31320   31338       4   31320   31335   31326   31341       4
   31320   31338   31356   31377       8   31320   31338   31356   31380       8
   31317   31329   31344   31368       4   31317   31332   31347   31371       4
   31314   31329   31344   31368       4   31311   31299   31308   31323       4
   31311   31326   31335   31353       4   31308   31320   31335   31353       4
   31308   31320   31338   31359       7   31308   31320   31338   31362       7
   31305   31317   31332   31350       4   31302   31311   31326   31341       4
   31299   31311   31326   31341       4   31296   31299   31308   31323       4
   31668   31653   31665   31671       1   31668   31653   31665   31674       1
   31668   31653   31665   31677       1   31662   31653   31665   31671       1
   31662   31653   31665   31674       1   31662   31653   31665   31677       1
   31659   31650   31653   31662       1   31659   31650   31653   31665       2
   31659   31650   31653   31668       1   31656   31650   31653   31662       1
   31656   31650   31653   31665       2   31656   31650   31653   31668       1
   31650   31653   31665   31671       2   31650   31653   31665   31674       2
   31650   31653   31665   31677       2   31647   31632   31650   31653       2
   31647   31632   31650   31656       1   31647   31632   31650   31659       1
   31644   31632   31650   31653       2   31644   31632   31650   31656       1
   31644   31632   31650   31659       1   31638   31614   31632   31644       1
   31638   31614   31632   31647       1   31638   31614   31632   31650       2
   31635   31614   31632   31644       1   31635   31614   31632   31647       1
   31635   31614   31632   31650       2   31632   31650   31653   31662       2
   31632   31650   31653   31668       2   31629   31608   31623   31641       4
   31626   31602   31623   31641       4   31620   31593   31614   31632       2
   31620   31593   31614   31635       1   31620   31593   31614   31638       1
   31617   31593   31614   31632       2   31617   31593   31614   31635       1
   31617   31593   31614   31638       1   31614   31632   31650   31656       2
   31614   31632   31650   31659       2   31611   31590   31608   31623       4
   31611   31590   31608   31629       4   31608   31623   31602   31626       4
   31605   31587   31602   31623       4   31605   31587   31602   31626       4
   31602   31623   31608   31629       4   31599   31578   31593   31614       2
   31599   31578   31593   31617       1   31599   31578   31593   31620       1
   31596   31578   31593   31614       2   31596   31578   31593   31617       1
   31596   31578   31593   31620       1   31593   31614   31632   31644       2
   31593   31614   31632   31647       2   31590   31575   31587   31605       4
   31590   31608   31623   31641       4   31587   31575   31590   31611       4
   31587   31602   31623   31641       4   31584   31566   31578   31593       2
   31584   31566   31578   31596       1   31584   31566   31578   31599       1
   31581   31566   31578   31593       2   31581   31566   31578   31596       1
   31581   31566   31578   31599       1   31578   31593   31614   31635       2
   31578   31593   31614   31638       2   31575   31587   31602   31626       4
   31575   31590   31608   31629       4   31572   31548   31566   31578       2
   31572   31548   31566   31581       1   31572   31548   31566   31584       1
   31569   31548   31566   31578       2   31569   31548   31566   31581       1
   31569   31548   31566   31584       1   31566   31578   31593   31617       2
   31566   31578   31593   31620       2   31563   31539   31557   31575       4
   31560   31536   31557   31575       4   31557   31575   31587   31605       4
   31557   31575   31590   31611       4   31554   31530   31548   31566       2
   31554   31530   31548   31569       1   31554   31530   31548   31572       1
   31551   31530   31548   31566       2   31551   31530   31548   31569       1
   31551   31530   31548   31572       1   31548   31566   31578   31596       2
   31548   31566   31578   31599       2   31542   31524   31539   31557       4
   31542   31524   31539   31563       4   31539   31557   31536   31560       4
   31536   31557   31539   31563       4   31533   31518   31527   31545       4
   31530   31512   31527   31545       4   31530   31548   31566   31581       2
   31530   31548   31566   31584       2   31527   31512   31530   31551       7
   31527   31512   31530   31554       7   31521   31509   31524   31542       4
   31515   31500   31512   31527       4   31515   31500   31512   31530       4
   31512   31527   31518   31533       4   31512   31530   31548   31569       8
   31512   31530   31548   31572       8   31509   31521   31536   31560       4
   31509   31524   31539   31563       4   31506   31521   31536   31560       4
   31503   31491   31500   31515       4   31503   31518   31527   31545       4
   31500   31512   31527   31545       4   31500   31512   31530   31551       7
   31500   31512   31530   31554       7   31497   31509   31524   31542       4
   31494   31503   31518   31533       4   31491   31503   31518   31533       4
   31488   31491   31500   31515       4   31860   31845   31857   31863       1
   31860   31845   31857   31866       1   31860   31845   31857   31869       1
   31854   31845   31857   31863       1   31854   31845   31857   31866       1
   31854   31845   31857   31869       1   31851   31842   31845   31854       1
   31851   31842   31845   31857       2   31851   31842   31845   31860       1
   31848   31842   31845   31854       1   31848   31842   31845   31857       2
   31848   31842   31845   31860       1   31842   31845   31857   31863       2
   31842   31845   31857   31866       2   31842   31845   31857   31869       2
   31839   31824   31842   31845       2   31839   31824   31842   31848       1
   31839   31824   31842   31851       1   31836   31824   31842   31845       2
   31836   31824   31842   31848       1   31836   31824   31842   31851       1
   31830   31806   31824   31836       1   31830   31806   31824   31839       1
   31830   31806   31824   31842       2   31827   31806   31824   31836       1
   31827   31806   31824   31839       1   31827   31806   31824   31842       2
   31824   31842   31845   31854       2   31824   31842   31845   31860       2
   31821   31800   31815   31833       4   31818   31794   31815   31833       4
   31812   31785   31806   31824       2   31812   31785   31806   31827       1
   31812   31785   31806   31830       1   31809   31785   31806   31824       2
   31809   31785   31806   31827       1   31809   31785   31806   31830       1
   31806   31824   31842   31848       2   31806   31824   31842   31851       2
   31803   31782   31800   31815       4   31803   31782   31800   31821       4
   31800   31815   31794   31818       4   31797   31779   31794   31815       4
   31797   31779   31794   31818       4   31794   31815   31800   31821       4
   31791   31770   31785   31806       2   31791   31770   31785   31809       1
   31791   31770   31785   31812       1   31788   31770   31785   31806       2
   31788   31770   31785   31809       1   31788   31770   31785   31812       1
   31785   31806   31824   31836       2   31785   31806   31824   31839       2
   31782   31767   31779   31797       4   31782   31800   31815   31833       4
   31779   31767   31782   31803       4   31779   31794   31815   31833       4
   31776   31758   31770   31785       2   31776   31758   31770   31788       1
   31776   31758   31770   31791       1   31773   31758   31770   31785       2
   31773   31758   31770   31788       1   31773   31758   31770   31791       1
   31770   31785   31806   31827       2   31770   31785   31806   31830       2
   31767   31779   31794   31818       4   31767   31782   31800   31821       4
   31764   31740   31758   31770       2   31764   31740   31758   31773       1
   31764   31740   31758   31776       1   31761   31740   31758   31770       2
   31761   31740   31758   31773       1   31761   31740   31758   31776       1
   31758   31770   31785   31809       2   31758   31770   31785   31812       2
   31755   31731   31749   31767       4   31752   31728   31749   31767       4
   31749   31767   31779   31797       4   31749   31767   31782   31803       4
   31746   31722   31740   31758       2   31746   31722   31740   31761       1
   31746   31722   31740   31764       1   31743   31722   31740   31758       2
   31743   31722   31740   31761       1   31743   31722   31740   31764       1
   31740   31758   31770   31788       2   31740   31758   31770   31791       2
   31734   31716   31731   31749       4   31734   31716   31731   31755       4
   31731   31749   31728   31752       4   31728   31749   31731   31755       4
   31725   31710   31719   31737       4   31722   31704   31719   31737       4
   31722   31740   31758   31773       2   31722   31740   31758   31776       2
   31719   31704   31722   31743       7   31719   31704   31722   31746       7
   31713   31701   31716   31734       4   31707   31692   31704   31719       4
   31707   31692   31704   31722       4   31704   31719   31710   31725       4
   31704   31722   31740   31761       8   31704   31722   31740   31764       8
   31701   31713   31728   31752       4   31701   31716   31731   31755       4
   31698   31713   31728   31752       4   31695   31683   31692   31707       4
   31695   31710   31719   31737       4   31692   31704   31719   31737       4
   31692   31704   31722   31743       7   31692   31704   31722   31746       7
   31689   31701   31716   31734       4   31686   31695   31710   31725       4
   31683   31695   31710   31725       4   31680   31683   31692   31707       4
   32052   32037   32049   32055       1   32052   32037   32049   32058       1
   32052   32037   32049   32061       1   32046   32037   32049   32055       1
   32046   32037   32049   32058       1   32046   32037   32049   32061       1
   32043   32034   32037   32046       1   32043   32034   32037   32049       2
   32043   32034   32037   32052       1   32040   32034   32037   32046       1
   32040   32034   32037   32049       2   32040   32034   32037   32052       1
   32034   32037   32049   32055       2   32034   32037   32049   32058       2
   32034   32037   32049   32061       2   32031   32016   32034   32037       2
   32031   32016   32034   32040       1   32031   32016   32034   32043       1
   32028   32016   32034   32037       2   32028   32016   32034   32040       1
   32028   32016   32034   32043       1   32022   31998   32016   32028       1
   32022   31998   32016   32031       1   32022   31998   32016   32034       2
   32019   31998   32016   32028       1   32019   31998   32016   32031       1
   32019   31998   32016   32034       2   32016   32034   32037   32046       2
   32016   32034   32037   32052       2   32013   31992   32007   32025       4
   32010   31986   32007   32025       4   32004   31977   31998   32016       2
   32004   31977   31998   32019       1   32004   31977   31998   32022       1
   32001   31977   31998   32016       2   32001   31977   31998   32019       1
   32001   31977   31998   32022       1   31998   32016   32034   32040       2
   31998   32016   32034   32043       2   31995   31974   31992   32007       4
   31995   31974   31992   32013       4   31992   32007   31986   32010       4
   31989   31971   31986   32007       4   31989   31971   31986   32010       4
   31986   32007   31992   32013       4   31983   31962   31977   31998       2
   31983   31962   31977   32001       1   31983   31962   31977   32004       1
   31980   31962   31977   31998       2   31980   31962   31977   32001       1
   31980   31962   31977   32004       1   31977   31998   32016   32028       2
   31977   31998   32016   32031       2   31974   31959   31971   31989       4
   31974   31992   32007   32025       4   31971   31959   31974   31995       4
   31971   31986   32007   32025       4   31968   31950   31962   31977       2
   31968   31950   31962   31980       1   31968   31950   31962   31983       1
   31965   31950   31962   31977       2   31965   31950   31962   31980       1
   31965   31950   31962   31983       1   31962   31977   31998   32019       2
   31962   31977   31998   32022       2   31959   31971   31986   32010       4
   31959   31974   31992   32013       4   31956   31932   31950   31962       2
   31956   31932   31950   31965       1   31956   31932   31950   31968       1
   31953   31932   31950   31962       2   31953   31932   31950   31965       1
   31953   31932   31950   31968       1   31950   31962   31977   32001       2
   31950   31962   31977   32004       2   31947   31923   31941   31959       4
   31944   31920   31941   31959       4   31941   31959   31971   31989       4
   31941   31959   31974   31995       4   31938   31914   31932   31950       2
   31938   31914   31932   31953       1   31938   31914   31932   31956       1
   31935   31914   31932   31950       2   31935   31914   31932   31953       1
   31935   31914   31932   31956       1   31932   31950   31962   31980       2
   31932   31950   31962   31983       2   31926   31908   31923   31941       4
   31926   31908   31923   31947       4   31923   31941   31920   31944       4
   31920   31941   31923   31947       4   31917   31902   31911   31929       4
   31914   31896   31911   31929       4   31914   31932   31950   31965       2
   31914   31932   31950   31968       2   31911   31896   31914   31935       7
   31911   31896   31914   31938       7   31905   31893   31908   31926       4
   31899   31884   31896   31911       4   31899   31884   31896   31914       4
   31896   31911   31902   31917       4   31896   31914   31932   31953       8
   31896   31914   31932   31956       8   31893   31905   31920   31944       4
   31893   31908   31923   31947       4   31890   31905   31920   31944       4
   31887   31875   31884   31899       4   31887   31902   31911   31929       4
   31884   31896   31911   31929       4   31884   31896   31914   31935       7
   31884   31896   31914   31938       7   31881   31893   31908   31926       4
   31878   31887   31902   31917       4   31875   31887   31902   31917       4
   31872   31875   31884   31899       4   32244   32229   32241   32247       1
   32244   32229   32241   32250       1   32244   32229   32241   32253       1
   32238   32229   32241   32247       1   32238   32229   32241   32250       1
   32238   32229   32241   32253       1   32235   32226   32229   32238       1
   32235   32226   32229   32241       2   32235   32226   32229   32244       1
   32232   32226   32229   32238       1   32232   32226   32229   32241       2
   32232   32226   32229   32244       1   32226   32229   32241   32247       2
   32226   32229   32241   32250       2   32226   32229   32241   32253       2
   32223   32208   32226   32229       2   32223   32208   32226   32232       1
   32223   32208   32226   32235       1   32220   32208   32226   32229       2
   32220   32208   32226   32232       1   32220   32208   32226   32235       1
   32214   32190   32208   32220       1   32214   32190   32208   32223       1
   32214   32190   32208   32226       2   32211   32190   32208   32220       1
   32211   32190   32208   32223       1   32211   32190   32208   32226       2
   32208   32226   32229   32238       2   32208   32226   32229   32244       2
   32205   32184   32199   32217       4   32202   32178   32199   32217       4
   32196   32169   32190   32208       2   32196   32169   32190   32211       1
   32196   32169   32190   32214       1   32193   32169   32190   32208       2
   32193   32169   32190   32211       1   32193   32169   32190   32214       1
   32190   32208   32226   32232       2   32190   32208   32226   32235       2
   32187   32166   32184   32199       4   32187   32166   32184   32205       4
   32184   32199   32178   32202       4   32181   32163   32178   32199       4
   32181   32163   32178   32202       4   32178   32199   32184   32205       4
   32175   32154   32169   32190       2   32175   32154   32169   32193       1
   32175   32154   32169   32196       1   32172   32154   32169   32190       2
   32172   32154   32169   32193       1   32172   32154   32169   32196       1
   32169   32190   32208   32220       2   32169   32190   32208   32223       2
   32166   32151   32163   32181       4   32166   32184   32199   32217       4
   32163   32151   32166   32187       4   32163   32178   32199   32217       4
   32160   32142   32154   32169       2   32160   32142   32154   32172       1
   32160   32142   32154   32175       1   32157   32142   32154   32169       2
   32157   32142   32154   32172       1   32157   32142   32154   32175       1
   32154   32169   32190   32211       2   32154   32169   32190   32214       2
   32151   32163   32178   32202       4   32151   32166   32184   32205       4
   32148   32124   32142   32154       2   32148   32124   32142   32157       1
   32148   32124   32142   32160       1   32145   32124   32142   32154       2
   32145   32124   32142   32157       1   32145   32124   32142   32160       1
   32142   32154   32169   32193       2   32142   32154   32169   32196       2
   32139   32115   32133   32151       4   32136   32112   32133   32151       4
   32133   32151   32163   32181       4   32133   32151   32166   32187       4
   32130   32106   32124   32142       2   32130   32106   32124   32145       1
   32130   32106   32124   32148       1   32127   32106   32124   32142       2
   32127   32106   32124   32145       1   32127   32106   32124   32148       1
   32124   32142   32154   32172       2   32124   32142   32154   32175       2
   32118   32100   32115   32133       4   32118   32100   32115   32139       4
   32115   32133   32112   32136       4   32112   32133   32115   32139       4
   32109   32094   32103   32121       4   32106   32088   32103   32121       4
   32106   32124   32142   32157       2   32106   32124   32142   32160       2
   32103   32088   32106   32127       7   32103   32088   32106   32130       7
   32097   32085   32100   32118       4   32091   32076   32088   32103       4
   32091   32076   32088   32106       4   32088   32103   32094   32109       4
   32088   32106   32124   32145       8   32088   32106   32124   32148       8
   32085   32097   32112   32136       4   32085   32100   32115   32139       4
   32082   32097   32112   32136       4   32079   32067   32076   32091       4
   32079   32094   32103   32121       4   32076   32088   32103   32121       4
   32076   32088   32106   32127       7   32076   32088   32106   32130       7
   32073   32085   32100   32118       4   32070   32079   32094   32109       4
   32067   32079   32094   32109       4   32064   32067   32076   32091       4
   32436   32421   32433   32439       1   32436   32421   32433   32442       1
   32436   32421   32433   32445       1   32430   32421   32433   32439       1
   32430   32421   32433   32442       1   32430   32421   32433   32445       1
   32427   32418   32421   32430       1   32427   32418   32421   32433       2
   32427   32418   32421   32436       1   32424   32418   32421   32430       1
   32424   32418   32421   32433       2   32424   32418   32421   32436       1
   32418   32421   32433   32439       2   32418   32421   32433   32442       2
   32418   32421   32433   32445       2   32415   32400   32418   32421       2
   32415   32400   32418   32424       1   32415   32400   32418   32427       1
   32412   32400   32418   32421       2   32412   32400   32418   32424       1
   32412   32400   32418   32427       1   32406   32382   32400   32412       1
   32406   32382   32400   32415       1   32406   32382   32400   32418       2
   32403   32382   32400   32412       1   32403   32382   32400   32415       1
   32403   32382   32400   32418       2   32400   32418   32421   32430       2
   32400   32418   32421   32436       2   32397   32376   32391   32409       4
   32394   32370   32391   32409       4   32388   32361   32382   32400       2
   32388   32361   32382   32403       1   32388   32361   32382   32406       1
   32385   32361   32382   32400       2   32385   32361   32382   32403       1
   32385   32361   32382   32406       1   32382   32400   32418   32424       2
   32382   32400   32418   32427       2   32379   32358   32376   32391       4
   32379   32358   32376   32397       4   32376   32391   32370   32394       4
   32373   32355   32370   32391       4   32373   32355   32370   32394       4
   32370   32391   32376   32397       4   32367   32346   32361   32382       2
   32367   32346   32361   32385       1   32367   32346   32361   32388       1
   32364   32346   32361   32382       2   32364   32346   32361   32385       1
   32364   32346   32361   32388       1   32361   32382   32400   32412       2
   32361   32382   32400   32415       2   32358   32343   32355   32373       4
   32358   32376   32391   32409       4   32355   32343   32358   32379       4
   32355   32370   32391   32409       4   32352   32334   32346   32361       2
   32352   32334   32346   32364       1   32352   32334   32346   32367       1
   32349   32334   32346   32361       2   32349   32334   32346   32364       1
   32349   32334   32346   32367       1   32346   32361   32382   32403       2
   32346   32361   32382   32406       2   32343   32355   32370   32394       4
   32343   32358   32376   32397       4   32340   32316   32334   32346       2
   32340   32316   32334   32349       1   32340   32316   32334   32352       1
   32337   32316   32334   32346       2   32337   32316   32334   32349       1
   32337   32316   32334   32352       1   32334   32346   32361   32385       2
   32334   32346   32361   32388       2   32331   32307   32325   32343       4
   32328   32304   32325   32343       4   32325   32343   32355   32373       4
   32325   32343   32358   32379       4   32322   32298   32316   32334       2
   32322   32298   32316   32337       1   32322   32298   32316   32340       1
   32319   32298   32316   32334       2   32319   32298   32316   32337       1
   32319   32298   32316   32340       1   32316   32334   32346   32364       2
   32316   32334   32346   32367       2   32310   32292   32307   32325       4
   32310   32292   32307   32331       4   32307   32325   32304   32328       4
   32304   32325   32307   32331       4   32301   32286   32295   32313       4
   32298   32280   32295   32313       4   32298   32316   32334   32349       2
   32298   32316   32334   32352       2   32295   32280   32298   32319       7
   32295   32280   32298   32322       7   32289   32277   32292   32310       4
   32283   32268   32280   32295       4   32283   32268   32280   32298       4
   32280   32295   32286   32301       4   32280   32298   32316   32337       8
   32280   32298   32316   32340       8   32277   32289   32304   32328       4
   32277   32292   32307   32331       4   32274   32289   32304   32328       4
   32271   32259   32268   32283       4   32271   32286   32295   32313       4
   32268   32280   32295   32313       4   32268   32280   32298   32319       7
   32268   32280   32298   32322       7   32265   32277   32292   32310       4
   32262   32271   32286   32301       4   32259   32271   32286   32301       4
   32256   32259   32268   32283       4   32628   32613   32625   32631       1
   32628   32613   32625   32634       1   32628   32613   32625   32637       1
   32622   32613   32625   32631       1   32622   32613   32625   32634       1
   32622   32613   32625   32637       1   32619   32610   32613   32622       1
   32619   32610   32613   32625       2   32619   32610   32613   32628       1
   32616   32610   32613   32622       1   32616   32610   32613   32625       2
   32616   32610   32613   32628       1   32610   32613   32625   32631       2
   32610   32613   32625   32634       2   32610   32613   32625   32637       2
   32607   32592   32610   32613       2   32607   32592   32610   32616       1
   32607   32592   32610   32619       1   32604   32592   32610   32613       2
   32604   32592   32610   32616       1   32604   32592   32610   32619       1
   32598   32574   32592   32604       1   32598   32574   32592   32607       1
   32598   32574   32592   32610       2   32595   32574   32592   32604       1
   32595   32574   32592   32607       1   32595   32574   32592   32610       2
   32592   32610   32613   32622       2   32592   32610   32613   32628       2
   32589   32568   32583   32601       4   32586   32562   32583   32601       4
   32580   32553   32574   32592       2   32580   32553   32574   32595       1
   32580   32553   32574   32598       1   32577   32553   32574   32592       2
   32577   32553   32574   32595       1   32577   32553   32574   32598       1
   32574   32592   32610   32616       2   32574   32592   32610   32619       2
   32571   32550   32568   32583       4   32571   32550   32568   32589       4
   32568   32583   32562   32586       4   32565   32547   32562   32583       4
   32565   32547   32562   32586       4   32562   32583   32568   32589       4
   32559   32538   32553   32574       2   32559   32538   32553   32577       1
   32559   32538   32553   32580       1   32556   32538   32553   32574       2
   32556   32538   32553   32577       1   32556   32538   32553   32580       1
   32553   32574   32592   32604       2   32553   32574   32592   32607       2
   32550   32535   32547   32565       4   32550   32568   32583   32601       4
   32547   32535   32550   32571       4   32547   32562   32583   32601       4
   32544   32526   32538   32553       2   32544   32526   32538   32556       1
   32544   32526   32538   32559       1   32541   32526   32538   32553       2
   32541   32526   32538   32556       1   32541   32526   32538   32559       1
   32538   32553   32574   32595       2   32538   32553   32574   32598       2
   32535   32547   32562   32586       4   32535   32550   32568   32589       4
   32532   32508   32526   32538       2   32532   32508   32526   32541       1
   32532   32508   32526   32544       1   32529   32508   32526   32538       2
   32529   32508   32526   32541       1   32529   32508   32526   32544       1
   32526   32538   32553   32577       2   32526   32538   32553   32580       2
   32523   32499   32517   32535       4   32520   32496   32517   32535       4
   32517   32535   32547   32565       4   32517   32535   32550   32571       4
   32514   32490   32508   32526       2   32514   32490   32508   32529       1
   32514   32490   32508   32532       1   32511   32490   32508   32526       2
   32511   32490   32508   32529       1   32511   32490   32508   32532       1
   32508   32526   32538   32556       2   32508   32526   32538   32559       2
   32502   32484   32499   32517       4   32502   32484   32499   32523       4
   32499   32517   32496   32520       4   32496   32517   32499   32523       4
   32493   32478   32487   32505       4   32490   32472   32487   32505       4
   32490   32508   32526   32541       2   32490   32508   32526   32544       2
   32487   32472   32490   32511       7   32487   32472   32490   32514       7
   32481   32469   32484   32502       4   32475   32460   32472   32487       4
   32475   32460   32472   32490       4   32472   32487   32478   32493       4
   32472   32490   32508   32529       8   32472   32490   32508   32532       8
   32469   32481   32496   32520       4   32469   32484   32499   32523       4
   32466   32481   32496   32520       4   32463   32451   32460   32475       4
   32463   32478   32487   32505       4   32460   32472   32487   32505       4
   32460   32472   32490   32511       7   32460   32472   32490   32514       7
   32457   32469   32484   32502       4   32454   32463   32478   32493       4
   32451   32463   32478   32493       4   32448   32451   32460   32475       4
   32820   32805   32817   32823       1   32820   32805   32817   32826       1
   32820   32805   32817   32829       1   32814   32805   32817   32823       1
   32814   32805   32817   32826       1   32814   32805   32817   32829       1
   32811   32802   32805   32814       1   32811   32802   32805   32817       2
   32811   32802   32805   32820       1   32808   32802   32805   32814       1
   32808   32802   32805   32817       2   32808   32802   32805   32820       1
   32802   32805   32817   32823       2   32802   32805   32817   32826       2
   32802   32805   32817   32829       2   32799   32784   32802   32805       2
   32799   32784   32802   32808       1   32799   32784   32802   32811       1
   32796   32784   32802   32805       2   32796   32784   32802   32808       1
   32796   32784   32802   32811       1   32790   32766   32784   32796       1
   32790   32766   32784   32799       1   32790   32766   32784   32802       2
   32787   32766   32784   32796       1   32787   32766   32784   32799       1
   32787   32766   32784   32802       2   32784   32802   32805   32814       2
   32784   32802   32805   32820       2   32781   32760   32775   32793       4
   32778   32754   32775   32793       4   32772   32745   32766   32784       2
   32772   32745   32766   32787       1   32772   32745   32766   32790       1
   32769   32745   32766   32784       2   32769   32745   32766   32787       1
   32769   32745   32766   32790       1   32766   32784   32802   32808       2
   32766   32784   32802   32811       2   32763   32742   32760   32775       4
   32763   32742   32760   32781       4   32760   32775   32754   32778       4
   32757   32739   32754   32775       4   32757   32739   32754   32778       4
   32754   32775   32760   32781       4   32751   32730   32745   32766       2
   32751   32730   32745   32769       1   32751   32730   32745   32772       1
   32748   32730   32745   32766       2   32748   32730   32745   32769       1
   32748   32730   32745   32772       1   32745   32766   32784   32796       2
   32745   32766   32784   32799       2   32742   32727   32739   32757       4
   32742   32760   32775   32793       4   32739   32727   32742   32763       4
   32739   32754   32775   32793       4   32736   32718   32730   32745       2
   32736   32718   32730   32748       1   32736   32718   32730   32751       1
   32733   32718   32730   32745       2   32733   32718   32730   32748       1
   32733   32718   32730   32751       1   32730   32745   32766   32787       2
   32730   32745   32766   32790       2   32727   32739   32754   32778       4
   32727   32742   32760   32781       4   32724   32700   32718   32730       2
   32724   32700   32718   32733       1   32724   32700   32718   32736       1
   32721   32700   32718   32730       2   32721   32700   32718   32733       1
   32721   32700   32718   32736       1   32718   32730   32745   32769       2
   32718   32730   32745   32772       2   32715   32691   32709   32727       4
   32712   32688   32709   32727       4   32709   32727   32739   32757       4
   32709   32727   32742   32763       4   32706   32682   32700   32718       2
   32706   32682   32700   32721       1   32706   32682   32700   32724       1
   32703   32682   32700   32718       2   32703   32682   32700   32721       1
   32703   32682   32700   32724       1   32700   32718   32730   32748       2
   32700   32718   32730   32751       2   32694   32676   32691   32709       4
   32694   32676   32691   32715       4   32691   32709   32688   32712       4
   32688   32709   32691   32715       4   32685   32670   32679   32697       4
   32682   32664   32679   32697       4   32682   32700   32718   32733       2
   32682   32700   32718   32736       2   32679   32664   32682   32703       7
   32679   32664   32682   32706       7   32673   32661   32676   32694       4
   32667   32652   32664   32679       4   32667   32652   32664   32682       4
   32664   32679   32670   32685       4   32664   32682   32700   32721       8
   32664   32682   32700   32724       8   32661   32673   32688   32712       4
   32661   32676   32691   32715       4   32658   32673   32688   32712       4
   32655   32643   32652   32667       4   32655   32670   32679   32697       4
   32652   32664   32679   32697       4   32652   32664   32682   32703       7
   32652   32664   32682   32706       7   32649   32661   32676   32694       4
   32646   32655   32670   32685       4   32643   32655   32670   32685       4
   32640   32643   32652   32667       4   33012   32997   33009   33015       1
   33012   32997   33009   33018       1   33012   32997   33009   33021       1
   33006   32997   33009   33015       1   33006   32997   33009   33018       1
   33006   32997   33009   33021       1   33003   32994   32997   33006       1
   33003   32994   32997   33009       2   33003   32994   32997   33012       1
   33000   32994   32997   33006       1   33000   32994   32997   33009       2
   33000   32994   32997   33012       1   32994   32997   33009   33015       2
   32994   32997   33009   33018       2   32994   32997   33009   33021       2
   32991   32976   32994   32997       2   32991   32976   32994   33000       1
   32991   32976   32994   33003       1   32988   32976   32994   32997       2
   32988   32976   32994   33000       1   32988   32976   32994   33003       1
   32982   32958   32976   32988       1   32982   32958   32976   32991       1
   32982   32958   32976   32994       2   32979   32958   32976   32988       1
   32979   32958   32976   32991       1   32979   32958   32976   32994       2
   32976   32994   32997   33006       2   32976   32994   32997   33012       2
   32973   32952   32967   32985       4   32970   32946   32967   32985       4
   32964   32937   32958   32976       2   32964   32937   32958   32979       1
   32964   32937   32958   32982       1   32961   32937   32958   32976       2
   32961   32937   32958   32979       1   32961   32937   32958   32982       1
   32958   32976   32994   33000       2   32958   32976   32994   33003       2
   32955   32934   32952   32967       4   32955   32934   32952   32973       4
   32952   32967   32946   32970       4   32949   32931   32946   32967       4
   32949   32931   32946   32970       4   32946   32967   32952   32973       4
   32943   32922   32937   32958       2   32943   32922   32937   32961       1
   32943   32922   32937   32964       1   32940   32922   32937   32958       2
   32940   32922   32937   32961       1   32940   32922   32937   32964       1
   32937   32958   32976   32988       2   32937   32958   32976   32991       2
   32934   32919   32931   32949       4   32934   32952   32967   32985       4
   32931   32919   32934   32955       4   32931   32946   32967   32985       4
   32928   32910   32922   32937       2   32928   32910   32922   32940       1
   32928   32910   32922   32943       1   32925   32910   32922   32937       2
   32925   32910   32922   32940       1   32925   32910   32922   32943       1
   32922   32937   32958   32979       2   32922   32937   32958   32982       2
   32919   32931   32946   32970       4   32919   32934   32952   32973       4
   32916   32892   32910   32922       2   32916   32892   32910   32925       1
   32916   32892   32910   32928       1   32913   32892   32910   32922       2
   32913   32892   32910   32925       1   32913   32892   32910   32928       1
   32910   32922   32937   32961       2   32910   32922   32937   32964       2
   32907   32883   32901   32919       4   32904   32880   32901   32919       4
   32901   32919   32931   32949       4   32901   32919   32934   32955       4
   32898   32874   32892   32910       2   32898   32874   32892   32913       1
   32898   32874   32892   32916       1   32895   32874   32892   32910       2
   32895   32874   32892   32913       1   32895   32874   32892   32916       1
   32892   32910   32922   32940       2   32892   32910   32922   32943       2
   32886   32868   32883   32901       4   32886   32868   32883   32907       4
   32883   32901   32880   32904       4   32880   32901   32883   32907       4
   32877   32862   32871   32889       4   32874   32856   32871   32889       4
   32874   32892   32910   32925       2   32874   32892   32910   32928       2
   32871   32856   32874   32895       7   32871   32856   32874   32898       7
   32865   32853   32868   32886       4   32859   32844   32856   32871       4
   32859   32844   32856   32874       4   32856   32871   32862   32877       4
   32856   32874   32892   32913       8   32856   32874   32892   32916       8
   32853   32865   32880   32904       4   32853   32868   32883   32907       4
   32850   32865   32880   32904       4   32847   32835   32844   32859       4
   32847   32862   32871   32889       4   32844   32856   32871   32889       4
   32844   32856   32874   32895       7   32844   32856   32874   32898       7
   32841   32853   32868   32886       4   32838   32847   32862   32877       4
   32835   32847   32862   32877       4   32832   32835   32844   32859       4
   33204   33189   33201   33207       1   33204   33189   33201   33210       1
   33204   33189   33201   33213       1   33198   33189   33201   33207       1
   33198   33189   33201   33210       1   33198   33189   33201   33213       1
   33195   33186   33189   33198       1   33195   33186   33189   33201       2
   33195   33186   33189   33204       1   33192   33186   33189   33198       1
   33192   33186   33189   33201       2   33192   33186   33189   33204       1
   33186   33189   33201   33207       2   33186   33189   33201   33210       2
   33186   33189   33201   33213       2   33183   33168   33186   33189       2
   33183   33168   33186   33192       1   33183   33168   33186   33195       1
   33180   33168   33186   33189       2   33180   33168   33186   33192       1
   33180   33168   33186   33195       1   33174   33150   33168   33180       1
   33174   33150   33168   33183       1   33174   33150   33168   33186       2
   33171   33150   33168   33180       1   33171   33150   33168   33183       1
   33171   33150   33168   33186       2   33168   33186   33189   33198       2
   33168   33186   33189   33204       2   33165   33144   33159   33177       4
   33162   33138   33159   33177       4   33156   33129   33150   33168       2
   33156   33129   33150   33171       1   33156   33129   33150   33174       1
   33153   33129   33150   33168       2   33153   33129   33150   33171       1
   33153   33129   33150   33174       1   33150   33168   33186   33192       2
   33150   33168   33186   33195       2   33147   33126   33144   33159       4
   33147   33126   33144   33165       4   33144   33159   33138   33162       4
   33141   33123   33138   33159       4   33141   33123   33138   33162       4
   33138   33159   33144   33165       4   33135   33114   33129   33150       2
   33135   33114   33129   33153       1   33135   33114   33129   33156       1
   33132   33114   33129   33150       2   33132   33114   33129   33153       1
   33132   33114   33129   33156       1   33129   33150   33168   33180       2
   33129   33150   33168   33183       2   33126   33111   33123   33141       4
   33126   33144   33159   33177       4   33123   33111   33126   33147       4
   33123   33138   33159   33177       4   33120   33102   33114   33129       2
   33120   33102   33114   33132       1   33120   33102   33114   33135       1
   33117   33102   33114   33129       2   33117   33102   33114   33132       1
   33117   33102   33114   33135       1   33114   33129   33150   33171       2
   33114   33129   33150   33174       2   33111   33123   33138   33162       4
   33111   33126   33144   33165       4   33108   33084   33102   33114       2
   33108   33084   33102   33117       1   33108   33084   33102   33120       1
   33105   33084   33102   33114       2   33105   33084   33102   33117       1
   33105   33084   33102   33120       1   33102   33114   33129   33153       2
   33102   33114   33129   33156       2   33099   33075   33093   33111       4
   33096   33072   33093   33111       4   33093   33111   33123   33141       4
   33093   33111   33126   33147       4   33090   33066   33084   33102       2
   33090   33066   33084   33105       1   33090   33066   33084   33108       1
   33087   33066   33084   33102       2   33087   33066   33084   33105       1
   33087   33066   33084   33108       1   33084   33102   33114   33132       2
   33084   33102   33114   33135       2   33078   33060   33075   33093       4
   33078   33060   33075   33099       4   33075   33093   33072   33096       4
   33072   33093   33075   33099       4   33069   33054   33063   33081       4
   33066   33048   33063   33081       4   33066   33084   33102   33117       2
   33066   33084   33102   33120       2   33063   33048   33066   33087       7
   33063   33048   33066   33090       7   33057   33045   33060   33078       4
   33051   33036   33048   33063       4   33051   33036   33048   33066       4
   33048   33063   33054   33069       4   33048   33066   33084   33105       8
   33048   33066   33084   33108       8   33045   33057   33072   33096       4
   33045   33060   33075   33099       4   33042   33057   33072   33096       4
   33039   33027   33036   33051       4   33039   33054   33063   33081       4
   33036   33048   33063   33081       4   33036   33048   33066   33087       7
   33036   33048   33066   33090       7   33033   33045   33060   33078       4
   33030   33039   33054   33069       4   33027   33039   33054   33069       4
   33024   33027   33036   33051       4   33396   33381   33393   33399       1
   33396   33381   33393   33402       1   33396   33381   33393   33405       1
   33390   33381   33393   33399       1   33390   33381   33393   33402       1
   33390   33381   33393   33405       1   33387   33378   33381   33390       1
   33387   33378   33381   33393       2   33387   33378   33381   33396       1
   33384   33378   33381   33390       1   33384   33378   33381   33393       2
   33384   33378   33381   33396       1   33378   33381   33393   33399       2
   33378   33381   33393   33402       2   33378   33381   33393   33405       2
   33375   33360   33378   33381       2   33375   33360   33378   33384       1
   33375   33360   33378   33387       1   33372   33360   33378   33381       2
   33372   33360   33378   33384       1   33372   33360   33378   33387       1
   33366   33342   33360   33372       1   33366   33342   33360   33375       1
   33366   33342   33360   33378       2   33363   33342   33360   33372       1
   33363   33342   33360   33375       1   33363   33342   33360   33378       2
   33360   33378   33381   33390       2   33360   33378   33381   33396       2
   33357   33336   33351   33369       4   33354   33330   33351   33369       4
   33348   33321   33342   33360       2   33348   33321   33342   33363       1
   33348   33321   33342   33366       1   33345   33321   33342   33360       2
   33345   33321   33342   33363       1   33345   33321   33342   33366       1
   33342   33360   33378   33384       2   33342   33360   33378   33387       2
   33339   33318   33336   33351       4   33339   33318   33336   33357       4
   33336   33351   33330   33354       4   33333   33315   33330   33351       4
   33333   33315   33330   33354       4   33330   33351   33336   33357       4
   33327   33306   33321   33342       2   33327   33306   33321   33345       1
   33327   33306   33321   33348       1   33324   33306   33321   33342       2
   33324   33306   33321   33345       1   33324   33306   33321   33348       1
   33321   33342   33360   33372       2   33321   33342   33360   33375       2
   33318   33303   33315   33333       4   33318   33336   33351   33369       4
   33315   33303   33318   33339       4   33315   33330   33351   33369       4
   33312   33294   33306   33321       2   33312   33294   33306   33324       1
   33312   33294   33306   33327       1   33309   33294   33306   33321       2
   33309   33294   33306   33324       1   33309   33294   33306   33327       1
   33306   33321   33342   33363       2   33306   33321   33342   33366       2
   33303   33315   33330   33354       4   33303   33318   33336   33357       4
   33300   33276   33294   33306       2   33300   33276   33294   33309       1
   33300   33276   33294   33312       1   33297   33276   33294   33306       2
   33297   33276   33294   33309       1   33297   33276   33294   33312       1
   33294   33306   33321   33345       2   33294   33306   33321   33348       2
   33291   33267   33285   33303       4   33288   33264   33285   33303       4
   33285   33303   33315   33333       4   33285   33303   33318   33339       4
   33282   33258   33276   33294       2   33282   33258   33276   33297       1
   33282   33258   33276   33300       1   33279   33258   33276   33294       2
   33279   33258   33276   33297       1   33279   33258   33276   33300       1
   33276   33294   33306   33324       2   33276   33294   33306   33327       2
   33270   33252   33267   33285       4   33270   33252   33267   33291       4
   33267   33285   33264   33288       4   33264   33285   33267   33291       4
   33261   33246   33255   33273       4   33258   33240   33255   33273       4
   33258   33276   33294   33309       2   33258   33276   33294   33312       2
   33255   33240   33258   33279       7   33255   33240   33258   33282       7
   33249   33237   33252   33270       4   33243   33228   33240   33255       4
   33243   33228   33240   33258       4   33240   33255   33246   33261       4
   33240   33258   33276   33297       8   33240   33258   33276   33300       8
   33237   33249   33264   33288       4   33237   33252   33267   33291       4
   33234   33249   33264   33288       4   33231   33219   33228   33243       4
   33231   33246   33255   33273       4   33228   33240   33255   33273       4
   33228   33240   33258   33279       7   33228   33240   33258   33282       7
   33225   33237   33252   33270       4   33222   33231   33246   33261       4
   33219   33231   33246   33261       4   33216   33219   33228   33243       4
   33588   33573   33585   33591       1   33588   33573   33585   33594       1
   33588   33573   33585   33597       1   33582   33573   33585   33591       1
   33582   33573   33585   33594       1   33582   33573   33585   33597       1
   33579   33570   33573   33582       1   33579   33570   33573   33585       2
   33579   33570   33573   33588       1   33576   33570   33573   33582       1
   33576   33570   33573   33585       2   33576   33570   33573   33588       1
   33570   33573   33585   33591       2   33570   33573   33585   33594       2
   33570   33573   33585   33597       2   33567   33552   33570   33573       2
   33567   33552   33570   33576       1   33567   33552   33570   33579       1
   33564   33552   33570   33573       2   33564   33552   33570   33576       1
   33564   33552   33570   33579       1   33558   33534   33552   33564       1
   33558   33534   33552   33567       1   33558   33534   33552   33570       2
   33555   33534   33552   33564       1   33555   33534   33552   33567       1
   33555   33534   33552   33570       2   33552   33570   33573   33582       2
   33552   33570   33573   33588       2   33549   33528   33543   33561       4
   33546   33522   33543   33561       4   33540   33513   33534   33552       2
   33540   33513   33534   33555       1   33540   33513   33534   33558       1
   33537   33513   33534   33552       2   33537   33513   33534   33555       1
   33537   33513   33534   33558       1   33534   33552   33570   33576       2
   33534   33552   33570   33579       2   33531   33510   33528   33543       4
   33531   33510   33528   33549       4   33528   33543   33522   33546       4
   33525   33507   33522   33543       4   33525   33507   33522   33546       4
   33522   33543   33528   33549       4   33519   33498   33513   33534       2
   33519   33498   33513   33537       1   33519   33498   33513   33540       1
   33516   33498   33513   33534       2   33516   33498   33513   33537       1
   33516   33498   33513   33540       1   33513   33534   33552   33564       2
   33513   33534   33552   33567       2   33510   33495   33507   33525       4
   33510   33528   33543   33561       4   33507   33495   33510   33531       4
   33507   33522   33543   33561       4   33504   33486   33498   33513       2
   33504   33486   33498   33516       1   33504   33486   33498   33519       1
   33501   33486   33498   33513       2   33501   33486   33498   33516       1
   33501   33486   33498   33519       1   33498   33513   33534   33555       2
   33498   33513   33534   33558       2   33495   33507   33522   33546       4
   33495   33510   33528   33549       4   33492   33468   33486   33498       2
   33492   33468   33486   33501       1   33492   33468   33486   33504       1
   33489   33468   33486   33498       2   33489   33468   33486   33501       1
   33489   33468   33486   33504       1   33486   33498   33513   33537       2
   33486   33498   33513   33540       2   33483   33459   33477   33495       4
   33480   33456   33477   33495       4   33477   33495   33507   33525       4
   33477   33495   33510   33531       4   33474   33450   33468   33486       2
   33474   33450   33468   33489       1   33474   33450   33468   33492       1
   33471   33450   33468   33486       2   33471   33450   33468   33489       1
   33471   33450   33468   33492       1   33468   33486   33498   33516       2
   33468   33486   33498   33519       2   33462   33444   33459   33477       4
   33462   33444   33459   33483       4   33459   33477   33456   33480       4
   33456   33477   33459   33483       4   33453   33438   33447   33465       4
   33450   33432   33447   33465       4   33450   33468   33486   33501       2
   33450   33468   33486   33504       2   33447   33432   33450   33471       7
   33447   33432   33450   33474       7   33441   33429   33444   33462       4
   33435   33420   33432   33447       4   33435   33420   33432   33450       4
   33432   33447   33438   33453       4   33432   33450   33468   33489       8
   33432   33450   33468   33492       8   33429   33441   33456   33480       4
   33429   33444   33459   33483       4   33426   33441   33456   33480       4
   33423   33411   33420   33435       4   33423   33438   33447   33465       4
   33420   33432   33447   33465       4   33420   33432   33450   33471       7
   33420   33432   33450   33474       7   33417   33429   33444   33462       4
   33414   33423   33438   33453       4   33411   33423   33438   33453       4
   33408   33411   33420   33435       4   33780   33765   33777   33783       1
   33780   33765   33777   33786       1   33780   33765   33777   33789       1
   33774   33765   33777   33783       1   33774   33765   33777   33786       1
   33774   33765   33777   33789       1   33771   33762   33765   33774       1
   33771   33762   33765   33777       2   33771   33762   33765   33780       1
   33768   33762   33765   33774       1   33768   33762   33765   33777       2
   33768   33762   33765   33780       1   33762   33765   33777   33783       2
   33762   33765   33777   33786       2   33762   33765   33777   33789       2
   33759   33744   33762   33765       2   33759   33744   33762   33768       1
   33759   33744   33762   33771       1   33756   33744   33762   33765       2
   33756   33744   33762   33768       1   33756   33744   33762   33771       1
   33750   33726   33744   33756       1   33750   33726   33744   33759       1
   33750   33726   33744   33762       2   33747   33726   33744   33756       1
   33747   33726   33744   33759       1   33747   33726   33744   33762       2
   33744   33762   33765   33774       2   33744   33762   33765   33780       2
   33741   33720   33735   33753       4   33738   33714   33735   33753       4
   33732   33705   33726   33744       2   33732   33705   33726   33747       1
   33732   33705   33726   33750       1   33729   33705   33726   33744       2
   33729   33705   33726   33747       1   33729   33705   33726   33750       1
   33726   33744   33762   33768       2   33726   33744   33762   33771       2
   33723   33702   33720   33735       4   33723   33702   33720   33741       4
   33720   33735   33714   33738       4   33717   33699   33714   33735       4
   33717   33699   33714   33738       4   33714   33735   33720   33741       4
   33711   33690   33705   33726       2   33711   33690   33705   33729       1
   33711   33690   33705   33732       1   33708   33690   33705   33726       2
   33708   33690   33705   33729       1   33708   33690   33705   33732       1
   33705   33726   33744   33756       2   33705   33726   33744   33759       2
   33702   33687   33699   33717       4   33702   33720   33735   33753       4
   33699   33687   33702   33723       4   33699   33714   33735   33753       4
   33696   33678   33690   33705       2   33696   33678   33690   33708       1
   33696   33678   33690   33711       1   33693   33678   33690   33705       2
   33693   33678   33690   33708       1   33693   33678   33690   33711       1
   33690   33705   33726   33747       2   33690   33705   33726   33750       2
   33687   33699   33714   33738       4   33687   33702   33720   33741       4
   33684   33660   33678   33690       2   33684   33660   33678   33693       1
   33684   33660   33678   33696       1   33681   33660   33678   33690       2
   33681   33660   33678   33693       1   33681   33660   33678   33696       1
   33678   33690   33705   33729       2   33678   33690   33705   33732       2
   33675   33651   33669   33687       4   33672   33648   33669   33687       4
   33669   33687   33699   33717       4   33669   33687   33702   33723       4
   33666   33642   33660   33678       2   33666   33642   33660   33681       1
   33666   33642   33660   33684       1   33663   33642   33660   33678       2
   33663   33642   33660   33681       1   33663   33642   33660   33684       1
   33660   33678   33690   33708       2   33660   33678   33690   33711       2
   33654   33636   33651   33669       4   33654   33636   33651   33675       4
   33651   33669   33648   33672       4   33648   33669   33651   33675       4
   33645   33630   33639   33657       4   33642   33624   33639   33657       4
   33642   33660   33678   33693       2   33642   33660   33678   33696       2
   33639   33624   33642   33663       7   33639   33624   33642   33666       7
   33633   33621   33636   33654       4   33627   33612   33624   33639       4
   33627   33612   33624   33642       4   33624   33639   33630   33645       4
   33624   33642   33660   33681       8   33624   33642   33660   33684       8
   33621   33633   33648   33672       4   33621   33636   33651   33675       4
   33618   33633   33648   33672       4   33615   33603   33612   33627       4
   33615   33630   33639   33657       4   33612   33624   33639   33657       4
   33612   33624   33642   33663       7   33612   33624   33642   33666       7
   33609   33621   33636   33654       4   33606   33615   33630   33645       4
   33603   33615   33630   33645       4   33600   33603   33612   33627       4
   33972   33957   33969   33975       1   33972   33957   33969   33978       1
   33972   33957   33969   33981       1   33966   33957   33969   33975       1
   33966   33957   33969   33978       1   33966   33957   33969   33981       1
   33963   33954   33957   33966       1   33963   33954   33957   33969       2
   33963   33954   33957   33972       1   33960   33954   33957   33966       1
   33960   33954   33957   33969       2   33960   33954   33957   33972       1
   33954   33957   33969   33975       2   33954   33957   33969   33978       2
   33954   33957   33969   33981       2   33951   33936   33954   33957       2
   33951   33936   33954   33960       1   33951   33936   33954   33963       1
   33948   33936   33954   33957       2   33948   33936   33954   33960       1
   33948   33936   33954   33963       1   33942   33918   33936   33948       1
   33942   33918   33936   33951       1   33942   33918   33936   33954       2
   33939   33918   33936   33948       1   33939   33918   33936   33951       1
   33939   33918   33936   33954       2   33936   33954   33957   33966       2
   33936   33954   33957   33972       2   33933   33912   33927   33945       4
   33930   33906   33927   33945       4   33924   33897   33918   33936       2
   33924   33897   33918   33939       1   33924   33897   33918   33942       1
   33921   33897   33918   33936       2   33921   33897   33918   33939       1
   33921   33897   33918   33942       1   33918   33936   33954   33960       2
   33918   33936   33954   33963       2   33915   33894   33912   33927       4
   33915   33894   33912   33933       4   33912   33927   33906   33930       4
   33909   33891   33906   33927       4   33909   33891   33906   33930       4
   33906   33927   33912   33933       4   33903   33882   33897   33918       2
   33903   33882   33897   33921       1   33903   33882   33897   33924       1
   33900   33882   33897   33918       2   33900   33882   33897   33921       1
   33900   33882   33897   33924       1   33897   33918   33936   33948       2
   33897   33918   33936   33951       2   33894   33879   33891   33909       4
   33894   33912   33927   33945       4   33891   33879   33894   33915       4
   33891   33906   33927   33945       4   33888   33870   33882   33897       2
   33888   33870   33882   33900       1   33888   33870   33882   33903       1
   33885   33870   33882   33897       2   33885   33870   33882   33900       1
   33885   33870   33882   33903       1   33882   33897   33918   33939       2
   33882   33897   33918   33942       2   33879   33891   33906   33930       4
   33879   33894   33912   33933       4   33876   33852   33870   33882       2
   33876   33852   33870   33885       1   33876   33852   33870   33888       1
   33873   33852   33870   33882       2   33873   33852   33870   33885       1
   33873   33852   33870   33888       1   33870   33882   33897   33921       2
   33870   33882   33897   33924       2   33867   33843   33861   33879       4
   33864   33840   33861   33879       4   33861   33879   33891   33909       4
   33861   33879   33894   33915       4   33858   33834   33852   33870       2
   33858   33834   33852   33873       1   33858   33834   33852   33876       1
   33855   33834   33852   33870       2   33855   33834   33852   33873       1
   33855   33834   33852   33876       1   33852   33870   33882   33900       2
   33852   33870   33882   33903       2   33846   33828   33843   33861       4
   33846   33828   33843   33867       4   33843   33861   33840   33864       4
   33840   33861   33843   33867       4   33837   33822   33831   33849       4
   33834   33816   33831   33849       4   33834   33852   33870   33885       2
   33834   33852   33870   33888       2   33831   33816   33834   33855       7
   33831   33816   33834   33858       7   33825   33813   33828   33846       4
   33819   33804   33816   33831       4   33819   33804   33816   33834       4
   33816   33831   33822   33837       4   33816   33834   33852   33873       8
   33816   33834   33852   33876       8   33813   33825   33840   33864       4
   33813   33828   33843   33867       4   33810   33825   33840   33864       4
   33807   33795   33804   33819       4   33807   33822   33831   33849       4
   33804   33816   33831   33849       4   33804   33816   33834   33855       7
   33804   33816   33834   33858       7   33801   33813   33828   33846       4
   33798   33807   33822   33837       4   33795   33807   33822   33837       4
   33792   33795   33804   33819       4   34164   34149   34161   34167       1
   34164   34149   34161   34170       1   34164   34149   34161   34173       1
   34158   34149   34161   34167       1   34158   34149   34161   34170       1
   34158   34149   34161   34173       1   34155   34146   34149   34158       1
   34155   34146   34149   34161       2   34155   34146   34149   34164       1
   34152   34146   34149   34158       1   34152   34146   34149   34161       2
   34152   34146   34149   34164       1   34146   34149   34161   34167       2
   34146   34149   34161   34170       2   34146   34149   34161   34173       2
   34143   34128   34146   34149       2   34143   34128   34146   34152       1
   34143   34128   34146   34155       1   34140   34128   34146   34149       2
   34140   34128   34146   34152       1   34140   34128   34146   34155       1
   34134   34110   34128   34140       1   34134   34110   34128   34143       1
   34134   34110   34128   34146       2   34131   34110   34128   34140       1
   34131   34110   34128   34143       1   34131   34110   34128   34146       2
   34128   34146   34149   34158       2   34128   34146   34149   34164       2
   34125   34104   34119   34137       4   34122   34098   34119   34137       4
   34116   34089   34110   34128       2   34116   34089   34110   34131       1
   34116   34089   34110   34134       1   34113   34089   34110   34128       2
   34113   34089   34110   34131       1   34113   34089   34110   34134       1
   34110   34128   34146   34152       2   34110   34128   34146   34155       2
   34107   34086   34104   34119       4   34107   34086   34104   34125       4
   34104   34119   34098   34122       4   34101   34083   34098   34119       4
   34101   34083   34098   34122       4   34098   34119   34104   34125       4
   34095   34074   34089   34110       2   34095   34074   34089   34113       1
   34095   34074   34089   34116       1   34092   34074   34089   34110       2
   34092   34074   34089   34113       1   34092   34074   34089   34116       1
   34089   34110   34128   34140       2   34089   34110   34128   34143       2
   34086   34071   34083   34101       4   34086   34104   34119   34137       4
   34083   34071   34086   34107       4   34083   34098   34119   34137       4
   34080   34062   34074   34089       2   34080   34062   34074   34092       1
   34080   34062   34074   34095       1   34077   34062   34074   34089       2
   34077   34062   34074   34092       1   34077   34062   34074   34095       1
   34074   34089   34110   34131       2   34074   34089   34110   34134       2
   34071   34083   34098   34122       4   34071   34086   34104   34125       4
   34068   34044   34062   34074       2   34068   34044   34062   34077       1
   34068   34044   34062   34080       1   34065   34044   34062   34074       2
   34065   34044   34062   34077       1   34065   34044   34062   34080       1
   34062   34074   34089   34113       2   34062   34074   34089   34116       2
   34059   34035   34053   34071       4   34056   34032   34053   34071       4
   34053   34071   34083   34101       4   34053   34071   34086   34107       4
   34050   34026   34044   34062       2   34050   34026   34044   34065       1
   34050   34026   34044   34068       1   34047   34026   34044   34062       2
   34047   34026   34044   34065       1   34047   34026   34044   34068       1
   34044   34062   34074   34092       2   34044   34062   34074   34095       2
   34038   34020   34035   34053       4   34038   34020   34035   34059       4
   34035   34053   34032   34056       4   34032   34053   34035   34059       4
   34029   34014   34023   34041       4   34026   34008   34023   34041       4
   34026   34044   34062   34077       2   34026   34044   34062   34080       2
   34023   34008   34026   34047       7   34023   34008   34026   34050       7
   34017   34005   34020   34038       4   34011   33996   34008   34023       4
   34011   33996   34008   34026       4   34008   34023   34014   34029       4
   34008   34026   34044   34065       8   34008   34026   34044   34068       8
   34005   34017   34032   34056       4   34005   34020   34035   34059       4
   34002   34017   34032   34056       4   33999   33987   33996   34011       4
   33999   34014   34023   34041       4   33996   34008   34023   34041       4
   33996   34008   34026   34047       7   33996   34008   34026   34050       7
   33993   34005   34020   34038       4   33990   33999   34014   34029       4
   33987   33999   34014   34029       4   33984   33987   33996   34011       4
   34356   34341   34353   34359       1   34356   34341   34353   34362       1
   34356   34341   34353   34365       1   34350   34341   34353   34359       1
   34350   34341   34353   34362       1   34350   34341   34353   34365       1
   34347   34338   34341   34350       1   34347   34338   34341   34353       2
   34347   34338   34341   34356       1   34344   34338   34341   34350       1
   34344   34338   34341   34353       2   34344   34338   34341   34356       1
   34338   34341   34353   34359       2   34338   34341   34353   34362       2
   34338   34341   34353   34365       2   34335   34320   34338   34341       2
   34335   34320   34338   34344       1   34335   34320   34338   34347       1
   34332   34320   34338   34341       2   34332   34320   34338   34344       1
   34332   34320   34338   34347       1   34326   34302   34320   34332       1
   34326   34302   34320   34335       1   34326   34302   34320   34338       2
   34323   34302   34320   34332       1   34323   34302   34320   34335       1
   34323   34302   34320   34338       2   34320   34338   34341   34350       2
   34320   34338   34341   34356       2   34317   34296   34311   34329       4
   34314   34290   34311   34329       4   34308   34281   34302   34320       2
   34308   34281   34302   34323       1   34308   34281   34302   34326       1
   34305   34281   34302   34320       2   34305   34281   34302   34323       1
   34305   34281   34302   34326       1   34302   34320   34338   34344       2
   34302   34320   34338   34347       2   34299   34278   34296   34311       4
   34299   34278   34296   34317       4   34296   34311   34290   34314       4
   34293   34275   34290   34311       4   34293   34275   34290   34314       4
   34290   34311   34296   34317       4   34287   34266   34281   34302       2
   34287   34266   34281   34305       1   34287   34266   34281   34308       1
   34284   34266   34281   34302       2   34284   34266   34281   34305       1
   34284   34266   34281   34308       1   34281   34302   34320   34332       2
   34281   34302   34320   34335       2   34278   34263   34275   34293       4
   34278   34296   34311   34329       4   34275   34263   34278   34299       4
   34275   34290   34311   34329       4   34272   34254   34266   34281       2
   34272   34254   34266   34284       1   34272   34254   34266   34287       1
   34269   34254   34266   34281       2   34269   34254   34266   34284       1
   34269   34254   34266   34287       1   34266   34281   34302   34323       2
   34266   34281   34302   34326       2   34263   34275   34290   34314       4
   34263   34278   34296   34317       4   34260   34236   34254   34266       2
   34260   34236   34254   34269       1   34260   34236   34254   34272       1
   34257   34236   34254   34266       2   34257   34236   34254   34269       1
   34257   34236   34254   34272       1   34254   34266   34281   34305       2
   34254   34266   34281   34308       2   34251   34227   34245   34263       4
   34248   34224   34245   34263       4   34245   34263   34275   34293       4
   34245   34263   34278   34299       4   34242   34218   34236   34254       2
   34242   34218   34236   34257       1   34242   34218   34236   34260       1
   34239   34218   34236   34254       2   34239   34218   34236   34257       1
   34239   34218   34236   34260       1   34236   34254   34266   34284       2
   34236   34254   34266   34287       2   34230   34212   34227   34245       4
   34230   34212   34227   34251       4   34227   34245   34224   34248       4
   34224   34245   34227   34251       4   34221   34206   34215   34233       4
   34218   34200   34215   34233       4   34218   34236   34254   34269       2
   34218   34236   34254   34272       2   34215   34200   34218   34239       7
   34215   34200   34218   34242       7   34209   34197   34212   34230       4
   34203   34188   34200   34215       4   34203   34188   34200   34218       4
   34200   34215   34206   34221       4   34200   34218   34236   34257       8
   34200   34218   34236   34260       8   34197   34209   34224   34248       4
   34197   34212   34227   34251       4   34194   34209   34224   34248       4
   34191   34179   34188   34203       4   34191   34206   34215   34233       4
   34188   34200   34215   34233       4   34188   34200   34218   34239       7
   34188   34200   34218   34242       7   34185   34197   34212   34230       4
   34182   34191   34206   34221       4   34179   34191   34206   34221       4
   34176   34179   34188   34203       4   34548   34533   34545   34551       1
   34548   34533   34545   34554       1   34548   34533   34545   34557       1
   34542   34533   34545   34551       1   34542   34533   34545   34554       1
   34542   34533   34545   34557       1   34539   34530   34533   34542       1
   34539   34530   34533   34545       2   34539   34530   34533   34548       1
   34536   34530   34533   34542       1   34536   34530   34533   34545       2
   34536   34530   34533   34548       1   34530   34533   34545   34551       2
   34530   34533   34545   34554       2   34530   34533   34545   34557       2
   34527   34512   34530   34533       2   34527   34512   34530   34536       1
   34527   34512   34530   34539       1   34524   34512   34530   34533       2
   34524   34512   34530   34536       1   34524   34512   34530   34539       1
   34518   34494   34512   34524       1   34518   34494   34512   34527       1
   34518   34494   34512   34530       2   34515   34494   34512   34524       1
   34515   34494   34512   34527       1   34515   34494   34512   34530       2
   34512   34530   34533   34542       2   34512   34530   34533   34548       2
   34509   34488   34503   34521       4   34506   34482   34503   34521       4
   34500   34473   34494   34512       2   34500   34473   34494   34515       1
   34500   34473   34494   34518       1   34497   34473   34494   34512       2
   34497   34473   34494   34515       1   34497   34473   34494   34518       1
   34494   34512   34530   34536       2   34494   34512   34530   34539       2
   34491   34470   34488   34503       4   34491   34470   34488   34509       4
   34488   34503   34482   34506       4   34485   34467   34482   34503       4
   34485   34467   34482   34506       4   34482   34503   34488   34509       4
   34479   34458   34473   34494       2   34479   34458   34473   34497       1
   34479   34458   34473   34500       1   34476   34458   34473   34494       2
   34476   34458   34473   34497       1   34476   34458   34473   34500       1
   34473   34494   34512   34524       2   34473   34494   34512   34527       2
   34470   34455   34467   34485       4   34470   34488   34503   34521       4
   34467   34455   34470   34491       4   34467   34482   34503   34521       4
   34464   34446   34458   34473       2   34464   34446   34458   34476       1
   34464   34446   34458   34479       1   34461   34446   34458   34473       2
   34461   34446   34458   34476       1   34461   34446   34458   34479       1
   34458   34473   34494   34515       2   34458   34473   34494   34518       2
   34455   34467   34482   34506       4   34455   34470   34488   34509       4
   34452   34428   34446   34458       2   34452   34428   34446   34461       1
   34452   34428   34446   34464       1   34449   34428   34446   34458       2
   34449   34428   34446   34461       1   34449   34428   34446   34464       1
   34446   34458   34473   34497       2   34446   34458   34473   34500       2
   34443   34419   34437   34455       4   34440   34416   34437   34455       4
   34437   34455   34467   34485       4   34437   34455   34470   34491       4
   34434   34410   34428   34446       2   34434   34410   34428   34449       1
   34434   34410   34428   34452       1   34431   34410   34428   34446       2
   34431   34410   34428   34449       1   34431   34410   34428   34452       1
   34428   34446   34458   34476       2   34428   34446   34458   34479       2
   34422   34404   34419   34437       4   34422   34404   34419   34443       4
   34419   34437   34416   34440       4   34416   34437   34419   34443       4
   34413   34398   34407   34425       4   34410   34392   34407   34425       4
   34410   34428   34446   34461       2   34410   34428   34446   34464       2
   34407   34392   34410   34431       7   34407   34392   34410   34434       7
   34401   34389   34404   34422       4   34395   34380   34392   34407       4
   34395   34380   34392   34410       4   34392   34407   34398   34413       4
   34392   34410   34428   34449       8   34392   34410   34428   34452       8
   34389   34401   34416   34440       4   34389   34404   34419   34443       4
   34386   34401   34416   34440       4   34383   34371   34380   34395       4
   34383   34398   34407   34425       4   34380   34392   34407   34425       4
   34380   34392   34410   34431       7   34380   34392   34410   34434       7
   34377   34389   34404   34422       4   34374   34383   34398   34413       4
   34371   34383   34398   34413       4   34368   34371   34380   34395       4
   34740   34725   34737   34743       1   34740   34725   34737   34746       1
   34740   34725   34737   34749       1   34734   34725   34737   34743       1
   34734   34725   34737   34746       1   34734   34725   34737   34749       1
   34731   34722   34725   34734       1   34731   34722   34725   34737       2
   34731   34722   34725   34740       1   34728   34722   34725   34734       1
   34728   34722   34725   34737       2   34728   34722   34725   34740       1
   34722   34725   34737   34743       2   34722   34725   34737   34746       2
   34722   34725   34737   34749       2   34719   34704   34722   34725       2
   34719   34704   34722   34728       1   34719   34704   34722   34731       1
   34716   34704   34722   34725       2   34716   34704   34722   34728       1
   34716   34704   34722   34731       1   34710   34686   34704   34716       1
   34710   34686   34704   34719       1   34710   34686   34704   34722       2
   34707   34686   34704   34716       1   34707   34686   34704   34719       1
   34707   34686   34704   34722       2   34704   34722   34725   34734       2
   34704   34722   34725   34740       2   34701   34680   34695   34713       4
   34698   34674   34695   34713       4   34692   34665   34686   34704       2
   34692   34665   34686   34707       1   34692   34665   34686   34710       1
   34689   34665   34686   34704       2   34689   34665   34686   34707       1
   34689   34665   34686   34710       1   34686   34704   34722   34728       2
   34686   34704   34722   34731       2   34683   34662   34680   34695       4
   34683   34662   34680   34701       4   34680   34695   34674   34698       4
   34677   34659   34674   34695       4   34677   34659   34674   34698       4
   34674   34695   34680   34701       4   34671   34650   34665   34686       2
   34671   34650   34665   34689       1   34671   34650   34665   34692       1
   34668   34650   34665   34686       2   34668   34650   34665   34689       1
   34668   34650   34665   34692       1   34665   34686   34704   34716       2
   34665   34686   34704   34719       2   34662   34647   34659   34677       4
   34662   34680   34695   34713       4   34659   34647   34662   34683       4
   34659   34674   34695   34713       4   34656   34638   34650   34665       2
   34656   34638   34650   34668       1   34656   34638   34650   34671       1
   34653   34638   34650   34665       2   34653   34638   34650   34668       1
   34653   34638   34650   34671       1   34650   34665   34686   34707       2
   34650   34665   34686   34710       2   34647   34659   34674   34698       4
   34647   34662   34680   34701       4   34644   34620   34638   34650       2
   34644   34620   34638   34653       1   34644   34620   34638   34656       1
   34641   34620   34638   34650       2   34641   34620   34638   34653       1
   34641   34620   34638   34656       1   34638   34650   34665   34689       2
   34638   34650   34665   34692       2   34635   34611   34629   34647       4
   34632   34608   34629   34647       4   34629   34647   34659   34677       4
   34629   34647   34662   34683       4   34626   34602   34620   34638       2
   34626   34602   34620   34641       1   34626   34602   34620   34644       1
   34623   34602   34620   34638       2   34623   34602   34620   34641       1
   34623   34602   34620   34644       1   34620   34638   34650   34668       2
   34620   34638   34650   34671       2   34614   34596   34611   34629       4
   34614   34596   34611   34635       4   34611   34629   34608   34632       4
   34608   34629   34611   34635       4   34605   34590   34599   34617       4
   34602   34584   34599   34617       4   34602   34620   34638   34653       2
   34602   34620   34638   34656       2   34599   34584   34602   34623       7
   34599   34584   34602   34626       7   34593   34581   34596   34614       4
   34587   34572   34584   34599       4   34587   34572   34584   34602       4
   34584   34599   34590   34605       4   34584   34602   34620   34641       8
   34584   34602   34620   34644       8   34581   34593   34608   34632       4
   34581   34596   34611   34635       4   34578   34593   34608   34632       4
   34575   34563   34572   34587       4   34575   34590   34599   34617       4
   34572   34584   34599   34617       4   34572   34584   34602   34623       7
   34572   34584   34602   34626       7   34569   34581   34596   34614       4
   34566   34575   34590   34605       4   34563   34575   34590   34605       4
   34560   34563   34572   34587       4   34932   34917   34929   34935       1
   34932   34917   34929   34938       1   34932   34917   34929   34941       1
   34926   34917   34929   34935       1   34926   34917   34929   34938       1
   34926   34917   34929   34941       1   34923   34914   34917   34926       1
   34923   34914   34917   34929       2   34923   34914   34917   34932       1
   34920   34914   34917   34926       1   34920   34914   34917   34929       2
   34920   34914   34917   34932       1   34914   34917   34929   34935       2
   34914   34917   34929   34938       2   34914   34917   34929   34941       2
   34911   34896   34914   34917       2   34911   34896   34914   34920       1
   34911   34896   34914   34923       1   34908   34896   34914   34917       2
   34908   34896   34914   34920       1   34908   34896   34914   34923       1
   34902   34878   34896   34908       1   34902   34878   34896   34911       1
   34902   34878   34896   34914       2   34899   34878   34896   34908       1
   34899   34878   34896   34911       1   34899   34878   34896   34914       2
   34896   34914   34917   34926       2   34896   34914   34917   34932       2
   34893   34872   34887   34905       4   34890   34866   34887   34905       4
   34884   34857   34878   34896       2   34884   34857   34878   34899       1
   34884   34857   34878   34902       1   34881   34857   34878   34896       2
   34881   34857   34878   34899       1   34881   34857   34878   34902       1
   34878   34896   34914   34920       2   34878   34896   34914   34923       2
   34875   34854   34872   34887       4   34875   34854   34872   34893       4
   34872   34887   34866   34890       4   34869   34851   34866   34887       4
   34869   34851   34866   34890       4   34866   34887   34872   34893       4
   34863   34842   34857   34878       2   34863   34842   34857   34881       1
   34863   34842   34857   34884       1   34860   34842   34857   34878       2
   34860   34842   34857   34881       1   34860   34842   34857   34884       1
   34857   34878   34896   34908       2   34857   34878   34896   34911       2
   34854   34839   34851   34869       4   34854   34872   34887   34905       4
   34851   34839   34854   34875       4   34851   34866   34887   34905       4
   34848   34830   34842   34857       2   34848   34830   34842   34860       1
   34848   34830   34842   34863       1   34845   34830   34842   34857       2
   34845   34830   34842   34860       1   34845   34830   34842   34863       1
   34842   34857   34878   34899       2   34842   34857   34878   34902       2
   34839   34851   34866   34890       4   34839   34854   34872   34893       4
   34836   34812   34830   34842       2   34836   34812   34830   34845       1
   34836   34812   34830   34848       1   34833   34812   34830   34842       2
   34833   34812   34830   34845       1   34833   34812   34830   34848       1
   34830   34842   34857   34881       2   34830   34842   34857   34884       2
   34827   34803   34821   34839       4   34824   34800   34821   34839       4
   34821   34839   34851   34869       4   34821   34839   34854   34875       4
   34818   34794   34812   34830       2   34818   34794   34812   34833       1
   34818   34794   34812   34836       1   34815   34794   34812   34830       2
   34815   34794   34812   34833       1   34815   34794   34812   34836       1
   34812   34830   34842   34860       2   34812   34830   34842   34863       2
   34806   34788   34803   34821       4   34806   34788   34803   34827       4
   34803   34821   34800   34824       4   34800   34821   34803   34827       4
   34797   34782   34791   34809       4   34794   34776   34791   34809       4
   34794   34812   34830   34845       2   34794   34812   34830   34848       2
   34791   34776   34794   34815       7   34791   34776   34794   34818       7
   34785   34773   34788   34806       4   34779   34764   34776   34791       4
   34779   34764   34776   34794       4   34776   34791   34782   34797       4
   34776   34794   34812   34833       8   34776   34794   34812   34836       8
   34773   34785   34800   34824       4   34773   34788   34803   34827       4
   34770   34785   34800   34824       4   34767   34755   34764   34779       4
   34767   34782   34791   34809       4   34764   34776   34791   34809       4
   34764   34776   34794   34815       7   34764   34776   34794   34818       7
   34761   34773   34788   34806       4   34758   34767   34782   34797       4
   34755   34767   34782   34797       4   34752   34755   34764   34779       4
   35124   35109   35121   35127       1   35124   35109   35121   35130       1
   35124   35109   35121   35133       1   35118   35109   35121   35127       1
   35118   35109   35121   35130       1   35118   35109   35121   35133       1
   35115   35106   35109   35118       1   35115   35106   35109   35121       2
   35115   35106   35109   35124       1   35112   35106   35109   35118       1
   35112   35106   35109   35121       2   35112   35106   35109   35124       1
   35106   35109   35121   35127       2   35106   35109   35121   35130       2
   35106   35109   35121   35133       2   35103   35088   35106   35109       2
   35103   35088   35106   35112       1   35103   35088   35106   35115       1
   35100   35088   35106   35109       2   35100   35088   35106   35112       1
   35100   35088   35106   35115       1   35094   35070   35088   35100       1
   35094   35070   35088   35103       1   35094   35070   35088   35106       2
   35091   35070   35088   35100       1   35091   35070   35088   35103       1
   35091   35070   35088   35106       2   35088   35106   35109   35118       2
   35088   35106   35109   35124       2   35085   35064   35079   35097       4
   35082   35058   35079   35097       4   35076   35049   35070   35088       2
   35076   35049   35070   35091       1   35076   35049   35070   35094       1
   35073   35049   35070   35088       2   35073   35049   35070   35091       1
   35073   35049   35070   35094       1   35070   35088   35106   35112       2
   35070   35088   35106   35115       2   35067   35046   35064   35079       4
   35067   35046   35064   35085       4   35064   35079   35058   35082       4
   35061   35043   35058   35079       4   35061   35043   35058   35082       4
   35058   35079   35064   35085       4   35055   35034   35049   35070       2
   35055   35034   35049   35073       1   35055   35034   35049   35076       1
   35052   35034   35049   35070       2   35052   35034   35049   35073       1
   35052   35034   35049   35076       1   35049   35070   35088   35100       2
   35049   35070   35088   35103       2   35046   35031   35043   35061       4
   35046   35064   35079   35097       4   35043   35031   35046   35067       4
   35043   35058   35079   35097       4   35040   35022   35034   35049       2
   35040   35022   35034   35052       1   35040   35022   35034   35055       1
   35037   35022   35034   35049       2   35037   35022   35034   35052       1
   35037   35022   35034   35055       1   35034   35049   35070   35091       2
   35034   35049   35070   35094       2   35031   35043   35058   35082       4
   35031   35046   35064   35085       4   35028   35004   35022   35034       2
   35028   35004   35022   35037       1   35028   35004   35022   35040       1
   35025   35004   35022   35034       2   35025   35004   35022   35037       1
   35025   35004   35022   35040       1   35022   35034   35049   35073       2
   35022   35034   35049   35076       2   35019   34995   35013   35031       4
   35016   34992   35013   35031       4   35013   35031   35043   35061       4
   35013   35031   35046   35067       4   35010   34986   35004   35022       2
   35010   34986   35004   35025       1   35010   34986   35004   35028       1
   35007   34986   35004   35022       2   35007   34986   35004   35025       1
   35007   34986   35004   35028       1   35004   35022   35034   35052       2
   35004   35022   35034   35055       2   34998   34980   34995   35013       4
   34998   34980   34995   35019       4   34995   35013   34992   35016       4
   34992   35013   34995   35019       4   34989   34974   34983   35001       4
   34986   34968   34983   35001       4   34986   35004   35022   35037       2
   34986   35004   35022   35040       2   34983   34968   34986   35007       7
   34983   34968   34986   35010       7   34977   34965   34980   34998       4
   34971   34956   34968   34983       4   34971   34956   34968   34986       4
   34968   34983   34974   34989       4   34968   34986   35004   35025       8
   34968   34986   35004   35028       8   34965   34977   34992   35016       4
   34965   34980   34995   35019       4   34962   34977   34992   35016       4
   34959   34947   34956   34971       4   34959   34974   34983   35001       4
   34956   34968   34983   35001       4   34956   34968   34986   35007       7
   34956   34968   34986   35010       7   34953   34965   34980   34998       4
   34950   34959   34974   34989       4   34947   34959   34974   34989       4
   34944   34947   34956   34971       4   35316   35301   35313   35319       1
   35316   35301   35313   35322       1   35316   35301   35313   35325       1
   35310   35301   35313   35319       1   35310   35301   35313   35322       1
   35310   35301   35313   35325       1   35307   35298   35301   35310       1
   35307   35298   35301   35313       2   35307   35298   35301   35316       1
   35304   35298   35301   35310       1   35304   35298   35301   35313       2
   35304   35298   35301   35316       1   35298   35301   35313   35319       2
   35298   35301   35313   35322       2   35298   35301   35313   35325       2
   35295   35280   35298   35301       2   35295   35280   35298   35304       1
   35295   35280   35298   35307       1   35292   35280   35298   35301       2
   35292   35280   35298   35304       1   35292   35280   35298   35307       1
   35286   35262   35280   35292       1   35286   35262   35280   35295       1
   35286   35262   35280   35298       2   35283   35262   35280   35292       1
   35283   35262   35280   35295       1   35283   35262   35280   35298       2
   35280   35298   35301   35310       2   35280   35298   35301   35316       2
   35277   35256   35271   35289       4   35274   35250   35271   35289       4
   35268   35241   35262   35280       2   35268   35241   35262   35283       1
   35268   35241   35262   35286       1   35265   35241   35262   35280       2
   35265   35241   35262   35283       1   35265   35241   35262   35286       1
   35262   35280   35298   35304       2   35262   35280   35298   35307       2
   35259   35238   35256   35271       4   35259   35238   35256   35277       4
   35256   35271   35250   35274       4   35253   35235   35250   35271       4
   35253   35235   35250   35274       4   35250   35271   35256   35277       4
   35247   35226   35241   35262       2   35247   35226   35241   35265       1
   35247   35226   35241   35268       1   35244   35226   35241   35262       2
   35244   35226   35241   35265       1   35244   35226   35241   35268       1
   35241   35262   35280   35292       2   35241   35262   35280   35295       2
   35238   35223   35235   35253       4   35238   35256   35271   35289       4
   35235   35223   35238   35259       4   35235   35250   35271   35289       4
   35232   35214   35226   35241       2   35232   35214   35226   35244       1
   35232   35214   35226   35247       1   35229   35214   35226   35241       2
   35229   35214   35226   35244       1   35229   35214   35226   35247       1
   35226   35241   35262   35283       2   35226   35241   35262   35286       2
   35223   35235   35250   35274       4   35223   35238   35256   35277       4
   35220   35196   35214   35226       2   35220   35196   35214   35229       1
   35220   35196   35214   35232       1   35217   35196   35214   35226       2
   35217   35196   35214   35229       1   35217   35196   35214   35232       1
   35214   35226   35241   35265       2   35214   35226   35241   35268       2
   35211   35187   35205   35223       4   35208   35184   35205   35223       4
   35205   35223   35235   35253       4   35205   35223   35238   35259       4
   35202   35178   35196   35214       2   35202   35178   35196   35217       1
   35202   35178   35196   35220       1   35199   35178   35196   35214       2
   35199   35178   35196   35217       1   35199   35178   35196   35220       1
   35196   35214   35226   35244       2   35196   35214   35226   35247       2
   35190   35172   35187   35205       4   35190   35172   35187   35211       4
   35187   35205   35184   35208       4   35184   35205   35187   35211       4
   35181   35166   35175   35193       4   35178   35160   35175   35193       4
   35178   35196   35214   35229       2   35178   35196   35214   35232       2
   35175   35160   35178   35199       7   35175   35160   35178   35202       7
   35169   35157   35172   35190       4   35163   35148   35160   35175       4
   35163   35148   35160   35178       4   35160   35175   35166   35181       4
   35160   35178   35196   35217       8   35160   35178   35196   35220       8
   35157   35169   35184   35208       4   35157   35172   35187   35211       4
   35154   35169   35184   35208       4   35151   35139   35148   35163       4
   35151   35166   35175   35193       4   35148   35160   35175   35193       4
   35148   35160   35178   35199       7   35148   35160   35178   35202       7
   35145   35157   35172   35190       4   35142   35151   35166   35181       4
   35139   35151   35166   35181       4   35136   35139   35148   35163       4
   35508   35493   35505   35511       1   35508   35493   35505   35514       1
   35508   35493   35505   35517       1   35502   35493   35505   35511       1
   35502   35493   35505   35514       1   35502   35493   35505   35517       1
   35499   35490   35493   35502       1   35499   35490   35493   35505       2
   35499   35490   35493   35508       1   35496   35490   35493   35502       1
   35496   35490   35493   35505       2   35496   35490   35493   35508       1
   35490   35493   35505   35511       2   35490   35493   35505   35514       2
   35490   35493   35505   35517       2   35487   35472   35490   35493       2
   35487   35472   35490   35496       1   35487   35472   35490   35499       1
   35484   35472   35490   35493       2   35484   35472   35490   35496       1
   35484   35472   35490   35499       1   35478   35454   35472   35484       1
   35478   35454   35472   35487       1   35478   35454   35472   35490       2
   35475   35454   35472   35484       1   35475   35454   35472   35487       1
   35475   35454   35472   35490       2   35472   35490   35493   35502       2
   35472   35490   35493   35508       2   35469   35448   35463   35481       4
   35466   35442   35463   35481       4   35460   35433   35454   35472       2
   35460   35433   35454   35475       1   35460   35433   35454   35478       1
   35457   35433   35454   35472       2   35457   35433   35454   35475       1
   35457   35433   35454   35478       1   35454   35472   35490   35496       2
   35454   35472   35490   35499       2   35451   35430   35448   35463       4
   35451   35430   35448   35469       4   35448   35463   35442   35466       4
   35445   35427   35442   35463       4   35445   35427   35442   35466       4
   35442   35463   35448   35469       4   35439   35418   35433   35454       2
   35439   35418   35433   35457       1   35439   35418   35433   35460       1
   35436   35418   35433   35454       2   35436   35418   35433   35457       1
   35436   35418   35433   35460       1   35433   35454   35472   35484       2
   35433   35454   35472   35487       2   35430   35415   35427   35445       4
   35430   35448   35463   35481       4   35427   35415   35430   35451       4
   35427   35442   35463   35481       4   35424   35406   35418   35433       2
   35424   35406   35418   35436       1   35424   35406   35418   35439       1
   35421   35406   35418   35433       2   35421   35406   35418   35436       1
   35421   35406   35418   35439       1   35418   35433   35454   35475       2
   35418   35433   35454   35478       2   35415   35427   35442   35466       4
   35415   35430   35448   35469       4   35412   35388   35406   35418       2
   35412   35388   35406   35421       1   35412   35388   35406   35424       1
   35409   35388   35406   35418       2   35409   35388   35406   35421       1
   35409   35388   35406   35424       1   35406   35418   35433   35457       2
   35406   35418   35433   35460       2   35403   35379   35397   35415       4
   35400   35376   35397   35415       4   35397   35415   35427   35445       4
   35397   35415   35430   35451       4   35394   35370   35388   35406       2
   35394   35370   35388   35409       1   35394   35370   35388   35412       1
   35391   35370   35388   35406       2   35391   35370   35388   35409       1
   35391   35370   35388   35412       1   35388   35406   35418   35436       2
   35388   35406   35418   35439       2   35382   35364   35379   35397       4
   35382   35364   35379   35403       4   35379   35397   35376   35400       4
   35376   35397   35379   35403       4   35373   35358   35367   35385       4
   35370   35352   35367   35385       4   35370   35388   35406   35421       2
   35370   35388   35406   35424       2   35367   35352   35370   35391       7
   35367   35352   35370   35394       7   35361   35349   35364   35382       4
   35355   35340   35352   35367       4   35355   35340   35352   35370       4
   35352   35367   35358   35373       4   35352   35370   35388   35409       8
   35352   35370   35388   35412       8   35349   35361   35376   35400       4
   35349   35364   35379   35403       4   35346   35361   35376   35400       4
   35343   35331   35340   35355       4   35343   35358   35367   35385       4
   35340   35352   35367   35385       4   35340   35352   35370   35391       7
   35340   35352   35370   35394       7   35337   35349   35364   35382       4
   35334   35343   35358   35373       4   35331   35343   35358   35373       4
   35328   35331   35340   35355       4   35700   35685   35697   35703       1
   35700   35685   35697   35706       1   35700   35685   35697   35709       1
   35694   35685   35697   35703       1   35694   35685   35697   35706       1
   35694   35685   35697   35709       1   35691   35682   35685   35694       1
   35691   35682   35685   35697       2   35691   35682   35685   35700       1
   35688   35682   35685   35694       1   35688   35682   35685   35697       2
   35688   35682   35685   35700       1   35682   35685   35697   35703       2
   35682   35685   35697   35706       2   35682   35685   35697   35709       2
   35679   35664   35682   35685       2   35679   35664   35682   35688       1
   35679   35664   35682   35691       1   35676   35664   35682   35685       2
   35676   35664   35682   35688       1   35676   35664   35682   35691       1
   35670   35646   35664   35676       1   35670   35646   35664   35679       1
   35670   35646   35664   35682       2   35667   35646   35664   35676       1
   35667   35646   35664   35679       1   35667   35646   35664   35682       2
   35664   35682   35685   35694       2   35664   35682   35685   35700       2
   35661   35640   35655   35673       4   35658   35634   35655   35673       4
   35652   35625   35646   35664       2   35652   35625   35646   35667       1
   35652   35625   35646   35670       1   35649   35625   35646   35664       2
   35649   35625   35646   35667       1   35649   35625   35646   35670       1
   35646   35664   35682   35688       2   35646   35664   35682   35691       2
   35643   35622   35640   35655       4   35643   35622   35640   35661       4
   35640   35655   35634   35658       4   35637   35619   35634   35655       4
   35637   35619   35634   35658       4   35634   35655   35640   35661       4
   35631   35610   35625   35646       2   35631   35610   35625   35649       1
   35631   35610   35625   35652       1   35628   35610   35625   35646       2
   35628   35610   35625   35649       1   35628   35610   35625   35652       1
   35625   35646   35664   35676       2   35625   35646   35664   35679       2
   35622   35607   35619   35637       4   35622   35640   35655   35673       4
   35619   35607   35622   35643       4   35619   35634   35655   35673       4
   35616   35598   35610   35625       2   35616   35598   35610   35628       1
   35616   35598   35610   35631       1   35613   35598   35610   35625       2
   35613   35598   35610   35628       1   35613   35598   35610   35631       1
   35610   35625   35646   35667       2   35610   35625   35646   35670       2
   35607   35619   35634   35658       4   35607   35622   35640   35661       4
   35604   35580   35598   35610       2   35604   35580   35598   35613       1
   35604   35580   35598   35616       1   35601   35580   35598   35610       2
   35601   35580   35598   35613       1   35601   35580   35598   35616       1
   35598   35610   35625   35649       2   35598   35610   35625   35652       2
   35595   35571   35589   35607       4   35592   35568   35589   35607       4
   35589   35607   35619   35637       4   35589   35607   35622   35643       4
   35586   35562   35580   35598       2   35586   35562   35580   35601       1
   35586   35562   35580   35604       1   35583   35562   35580   35598       2
   35583   35562   35580   35601       1   35583   35562   35580   35604       1
   35580   35598   35610   35628       2   35580   35598   35610   35631       2
   35574   35556   35571   35589       4   35574   35556   35571   35595       4
   35571   35589   35568   35592       4   35568   35589   35571   35595       4
   35565   35550   35559   35577       4   35562   35544   35559   35577       4
   35562   35580   35598   35613       2   35562   35580   35598   35616       2
   35559   35544   35562   35583       7   35559   35544   35562   35586       7
   35553   35541   35556   35574       4   35547   35532   35544   35559       4
   35547   35532   35544   35562       4   35544   35559   35550   35565       4
   35544   35562   35580   35601       8   35544   35562   35580   35604       8
   35541   35553   35568   35592       4   35541   35556   35571   35595       4
   35538   35553   35568   35592       4   35535   35523   35532   35547       4
   35535   35550   35559   35577       4   35532   35544   35559   35577       4
   35532   35544   35562   35583       7   35532   35544   35562   35586       7
   35529   35541   35556   35574       4   35526   35535   35550   35565       4
   35523   35535   35550   35565       4   35520   35523   35532   35547       4
   35892   35877   35889   35895       1   35892   35877   35889   35898       1
   35892   35877   35889   35901       1   35886   35877   35889   35895       1
   35886   35877   35889   35898       1   35886   35877   35889   35901       1
   35883   35874   35877   35886       1   35883   35874   35877   35889       2
   35883   35874   35877   35892       1   35880   35874   35877   35886       1
   35880   35874   35877   35889       2   35880   35874   35877   35892       1
   35874   35877   35889   35895       2   35874   35877   35889   35898       2
   35874   35877   35889   35901       2   35871   35856   35874   35877       2
   35871   35856   35874   35880       1   35871   35856   35874   35883       1
   35868   35856   35874   35877       2   35868   35856   35874   35880       1
   35868   35856   35874   35883       1   35862   35838   35856   35868       1
   35862   35838   35856   35871       1   35862   35838   35856   35874       2
   35859   35838   35856   35868       1   35859   35838   35856   35871       1
   35859   35838   35856   35874       2   35856   35874   35877   35886       2
   35856   35874   35877   35892       2   35853   35832   35847   35865       4
   35850   35826   35847   35865       4   35844   35817   35838   35856       2
   35844   35817   35838   35859       1   35844   35817   35838   35862       1
   35841   35817   35838   35856       2   35841   35817   35838   35859       1
   35841   35817   35838   35862       1   35838   35856   35874   35880       2
   35838   35856   35874   35883       2   35835   35814   35832   35847       4
   35835   35814   35832   35853       4   35832   35847   35826   35850       4
   35829   35811   35826   35847       4   35829   35811   35826   35850       4
   35826   35847   35832   35853       4   35823   35802   35817   35838       2
   35823   35802   35817   35841       1   35823   35802   35817   35844       1
   35820   35802   35817   35838       2   35820   35802   35817   35841       1
   35820   35802   35817   35844       1   35817   35838   35856   35868       2
   35817   35838   35856   35871       2   35814   35799   35811   35829       4
   35814   35832   35847   35865       4   35811   35799   35814   35835       4
   35811   35826   35847   35865       4   35808   35790   35802   35817       2
   35808   35790   35802   35820       1   35808   35790   35802   35823       1
   35805   35790   35802   35817       2   35805   35790   35802   35820       1
   35805   35790   35802   35823       1   35802   35817   35838   35859       2
   35802   35817   35838   35862       2   35799   35811   35826   35850       4
   35799   35814   35832   35853       4   35796   35772   35790   35802       2
   35796   35772   35790   35805       1   35796   35772   35790   35808       1
   35793   35772   35790   35802       2   35793   35772   35790   35805       1
   35793   35772   35790   35808       1   35790   35802   35817   35841       2
   35790   35802   35817   35844       2   35787   35763   35781   35799       4
   35784   35760   35781   35799       4   35781   35799   35811   35829       4
   35781   35799   35814   35835       4   35778   35754   35772   35790       2
   35778   35754   35772   35793       1   35778   35754   35772   35796       1
   35775   35754   35772   35790       2   35775   35754   35772   35793       1
   35775   35754   35772   35796       1   35772   35790   35802   35820       2
   35772   35790   35802   35823       2   35766   35748   35763   35781       4
   35766   35748   35763   35787       4   35763   35781   35760   35784       4
   35760   35781   35763   35787       4   35757   35742   35751   35769       4
   35754   35736   35751   35769       4   35754   35772   35790   35805       2
   35754   35772   35790   35808       2   35751   35736   35754   35775       7
   35751   35736   35754   35778       7   35745   35733   35748   35766       4
   35739   35724   35736   35751       4   35739   35724   35736   35754       4
   35736   35751   35742   35757       4   35736   35754   35772   35793       8
   35736   35754   35772   35796       8   35733   35745   35760   35784       4
   35733   35748   35763   35787       4   35730   35745   35760   35784       4
   35727   35715   35724   35739       4   35727   35742   35751   35769       4
   35724   35736   35751   35769       4   35724   35736   35754   35775       7
   35724   35736   35754   35778       7   35721   35733   35748   35766       4
   35718   35727   35742   35757       4   35715   35727   35742   35757       4
   35712   35715   35724   35739       4   36084   36069   36081   36087       1
   36084   36069   36081   36090       1   36084   36069   36081   36093       1
   36078   36069   36081   36087       1   36078   36069   36081   36090       1
   36078   36069   36081   36093       1   36075   36066   36069   36078       1
   36075   36066   36069   36081       2   36075   36066   36069   36084       1
   36072   36066   36069   36078       1   36072   36066   36069   36081       2
   36072   36066   36069   36084       1   36066   36069   36081   36087       2
   36066   36069   36081   36090       2   36066   36069   36081   36093       2
   36063   36048   36066   36069       2   36063   36048   36066   36072       1
   36063   36048   36066   36075       1   36060   36048   36066   36069       2
   36060   36048   36066   36072       1   36060   36048   36066   36075       1
   36054   36030   36048   36060       1   36054   36030   36048   36063       1
   36054   36030   36048   36066       2   36051   36030   36048   36060       1
   36051   36030   36048   36063       1   36051   36030   36048   36066       2
   36048   36066   36069   36078       2   36048   36066   36069   36084       2
   36045   36024   36039   36057       4   36042   36018   36039   36057       4
   36036   36009   36030   36048       2   36036   36009   36030   36051       1
   36036   36009   36030   36054       1   36033   36009   36030   36048       2
   36033   36009   36030   36051       1   36033   36009   36030   36054       1
   36030   36048   36066   36072       2   36030   36048   36066   36075       2
   36027   36006   36024   36039       4   36027   36006   36024   36045       4
   36024   36039   36018   36042       4   36021   36003   36018   36039       4
   36021   36003   36018   36042       4   36018   36039   36024   36045       4
   36015   35994   36009   36030       2   36015   35994   36009   36033       1
   36015   35994   36009   36036       1   36012   35994   36009   36030       2
   36012   35994   36009   36033       1   36012   35994   36009   36036       1
   36009   36030   36048   36060       2   36009   36030   36048   36063       2
   36006   35991   36003   36021       4   36006   36024   36039   36057       4
   36003   35991   36006   36027       4   36003   36018   36039   36057       4
   36000   35982   35994   36009       2   36000   35982   35994   36012       1
   36000   35982   35994   36015       1   35997   35982   35994   36009       2
   35997   35982   35994   36012       1   35997   35982   35994   36015       1
   35994   36009   36030   36051       2   35994   36009   36030   36054       2
   35991   36003   36018   36042       4   35991   36006   36024   36045       4
   35988   35964   35982   35994       2   35988   35964   35982   35997       1
   35988   35964   35982   36000       1   35985   35964   35982   35994       2
   35985   35964   35982   35997       1   35985   35964   35982   36000       1
   35982   35994   36009   36033       2   35982   35994   36009   36036       2
   35979   35955   35973   35991       4   35976   35952   35973   35991       4
   35973   35991   36003   36021       4   35973   35991   36006   36027       4
   35970   35946   35964   35982       2   35970   35946   35964   35985       1
   35970   35946   35964   35988       1   35967   35946   35964   35982       2
   35967   35946   35964   35985       1   35967   35946   35964   35988       1
   35964   35982   35994   36012       2   35964   35982   35994   36015       2
   35958   35940   35955   35973       4   35958   35940   35955   35979       4
   35955   35973   35952   35976       4   35952   35973   35955   35979       4
   35949   35934   35943   35961       4   35946   35928   35943   35961       4
   35946   35964   35982   35997       2   35946   35964   35982   36000       2
   35943   35928   35946   35967       7   35943   35928   35946   35970       7
   35937   35925   35940   35958       4   35931   35916   35928   35943       4
   35931   35916   35928   35946       4   35928   35943   35934   35949       4
   35928   35946   35964   35985       8   35928   35946   35964   35988       8
   35925   35937   35952   35976       4   35925   35940   35955   35979       4
   35922   35937   35952   35976       4   35919   35907   35916   35931       4
   35919   35934   35943   35961       4   35916   35928   35943   35961       4
   35916   35928   35946   35967       7   35916   35928   35946   35970       7
   35913   35925   35940   35958       4   35910   35919   35934   35949       4
   35907   35919   35934   35949       4   35904   35907   35916   35931       4
   36276   36261   36273   36279       1   36276   36261   36273   36282       1
   36276   36261   36273   36285       1   36270   36261   36273   36279       1
   36270   36261   36273   36282       1   36270   36261   36273   36285       1
   36267   36258   36261   36270       1   36267   36258   36261   36273       2
   36267   36258   36261   36276       1   36264   36258   36261   36270       1
   36264   36258   36261   36273       2   36264   36258   36261   36276       1
   36258   36261   36273   36279       2   36258   36261   36273   36282       2
   36258   36261   36273   36285       2   36255   36240   36258   36261       2
   36255   36240   36258   36264       1   36255   36240   36258   36267       1
   36252   36240   36258   36261       2   36252   36240   36258   36264       1
   36252   36240   36258   36267       1   36246   36222   36240   36252       1
   36246   36222   36240   36255       1   36246   36222   36240   36258       2
   36243   36222   36240   36252       1   36243   36222   36240   36255       1
   36243   36222   36240   36258       2   36240   36258   36261   36270       2
   36240   36258   36261   36276       2   36237   36216   36231   36249       4
   36234   36210   36231   36249       4   36228   36201   36222   36240       2
   36228   36201   36222   36243       1   36228   36201   36222   36246       1
   36225   36201   36222   36240       2   36225   36201   36222   36243       1
   36225   36201   36222   36246       1   36222   36240   36258   36264       2
   36222   36240   36258   36267       2   36219   36198   36216   36231       4
   36219   36198   36216   36237       4   36216   36231   36210   36234       4
   36213   36195   36210   36231       4   36213   36195   36210   36234       4
   36210   36231   36216   36237       4   36207   36186   36201   36222       2
   36207   36186   36201   36225       1   36207   36186   36201   36228       1
   36204   36186   36201   36222       2   36204   36186   36201   36225       1
   36204   36186   36201   36228       1   36201   36222   36240   36252       2
   36201   36222   36240   36255       2   36198   36183   36195   36213       4
   36198   36216   36231   36249       4   36195   36183   36198   36219       4
   36195   36210   36231   36249       4   36192   36174   36186   36201       2
   36192   36174   36186   36204       1   36192   36174   36186   36207       1
   36189   36174   36186   36201       2   36189   36174   36186   36204       1
   36189   36174   36186   36207       1   36186   36201   36222   36243       2
   36186   36201   36222   36246       2   36183   36195   36210   36234       4
   36183   36198   36216   36237       4   36180   36156   36174   36186       2
   36180   36156   36174   36189       1   36180   36156   36174   36192       1
   36177   36156   36174   36186       2   36177   36156   36174   36189       1
   36177   36156   36174   36192       1   36174   36186   36201   36225       2
   36174   36186   36201   36228       2   36171   36147   36165   36183       4
   36168   36144   36165   36183       4   36165   36183   36195   36213       4
   36165   36183   36198   36219       4   36162   36138   36156   36174       2
   36162   36138   36156   36177       1   36162   36138   36156   36180       1
   36159   36138   36156   36174       2   36159   36138   36156   36177       1
   36159   36138   36156   36180       1   36156   36174   36186   36204       2
   36156   36174   36186   36207       2   36150   36132   36147   36165       4
   36150   36132   36147   36171       4   36147   36165   36144   36168       4
   36144   36165   36147   36171       4   36141   36126   36135   36153       4
   36138   36120   36135   36153       4   36138   36156   36174   36189       2
   36138   36156   36174   36192       2   36135   36120   36138   36159       7
   36135   36120   36138   36162       7   36129   36117   36132   36150       4
   36123   36108   36120   36135       4   36123   36108   36120   36138       4
   36120   36135   36126   36141       4   36120   36138   36156   36177       8
   36120   36138   36156   36180       8   36117   36129   36144   36168       4
   36117   36132   36147   36171       4   36114   36129   36144   36168       4
   36111   36099   36108   36123       4   36111   36126   36135   36153       4
   36108   36120   36135   36153       4   36108   36120   36138   36159       7
   36108   36120   36138   36162       7   36105   36117   36132   36150       4
   36102   36111   36126   36141       4   36099   36111   36126   36141       4
   36096   36099   36108   36123       4   36468   36453   36465   36471       1
   36468   36453   36465   36474       1   36468   36453   36465   36477       1
   36462   36453   36465   36471       1   36462   36453   36465   36474       1
   36462   36453   36465   36477       1   36459   36450   36453   36462       1
   36459   36450   36453   36465       2   36459   36450   36453   36468       1
   36456   36450   36453   36462       1   36456   36450   36453   36465       2
   36456   36450   36453   36468       1   36450   36453   36465   36471       2
   36450   36453   36465   36474       2   36450   36453   36465   36477       2
   36447   36432   36450   36453       2   36447   36432   36450   36456       1
   36447   36432   36450   36459       1   36444   36432   36450   36453       2
   36444   36432   36450   36456       1   36444   36432   36450   36459       1
   36438   36414   36432   36444       1   36438   36414   36432   36447       1
   36438   36414   36432   36450       2   36435   36414   36432   36444       1
   36435   36414   36432   36447       1   36435   36414   36432   36450       2
   36432   36450   36453   36462       2   36432   36450   36453   36468       2
   36429   36408   36423   36441       4   36426   36402   36423   36441       4
   36420   36393   36414   36432       2   36420   36393   36414   36435       1
   36420   36393   36414   36438       1   36417   36393   36414   36432       2
   36417   36393   36414   36435       1   36417   36393   36414   36438       1
   36414   36432   36450   36456       2   36414   36432   36450   36459       2
   36411   36390   36408   36423       4   36411   36390   36408   36429       4
   36408   36423   36402   36426       4   36405   36387   36402   36423       4
   36405   36387   36402   36426       4   36402   36423   36408   36429       4
   36399   36378   36393   36414       2   36399   36378   36393   36417       1
   36399   36378   36393   36420       1   36396   36378   36393   36414       2
   36396   36378   36393   36417       1   36396   36378   36393   36420       1
   36393   36414   36432   36444       2   36393   36414   36432   36447       2
   36390   36375   36387   36405       4   36390   36408   36423   36441       4
   36387   36375   36390   36411       4   36387   36402   36423   36441       4
   36384   36366   36378   36393       2   36384   36366   36378   36396       1
   36384   36366   36378   36399       1   36381   36366   36378   36393       2
   36381   36366   36378   36396       1   36381   36366   36378   36399       1
   36378   36393   36414   36435       2   36378   36393   36414   36438       2
   36375   36387   36402   36426       4   36375   36390   36408   36429       4
   36372   36348   36366   36378       2   36372   36348   36366   36381       1
   36372   36348   36366   36384       1   36369   36348   36366   36378       2
   36369   36348   36366   36381       1   36369   36348   36366   36384       1
   36366   36378   36393   36417       2   36366   36378   36393   36420       2
   36363   36339   36357   36375       4   36360   36336   36357   36375       4
   36357   36375   36387   36405       4   36357   36375   36390   36411       4
   36354   36330   36348   36366       2   36354   36330   36348   36369       1
   36354   36330   36348   36372       1   36351   36330   36348   36366       2
   36351   36330   36348   36369       1   36351   36330   36348   36372       1
   36348   36366   36378   36396       2   36348   36366   36378   36399       2
   36342   36324   36339   36357       4   36342   36324   36339   36363       4
   36339   36357   36336   36360       4   36336   36357   36339   36363       4
   36333   36318   36327   36345       4   36330   36312   36327   36345       4
   36330   36348   36366   36381       2   36330   36348   36366   36384       2
   36327   36312   36330   36351       7   36327   36312   36330   36354       7
   36321   36309   36324   36342       4   36315   36300   36312   36327       4
   36315   36300   36312   36330       4   36312   36327   36318   36333       4
   36312   36330   36348   36369       8   36312   36330   36348   36372       8
   36309   36321   36336   36360       4   36309   36324   36339   36363       4
   36306   36321   36336   36360       4   36303   36291   36300   36315       4
   36303   36318   36327   36345       4   36300   36312   36327   36345       4
   36300   36312   36330   36351       7   36300   36312   36330   36354       7
   36297   36309   36324   36342       4   36294   36303   36318   36333       4
   36291   36303   36318   36333       4   36288   36291   36300   36315       4
   36660   36645   36657   36663       1   36660   36645   36657   36666       1
   36660   36645   36657   36669       1   36654   36645   36657   36663       1
   36654   36645   36657   36666       1   36654   36645   36657   36669       1
   36651   36642   36645   36654       1   36651   36642   36645   36657       2
   36651   36642   36645   36660       1   36648   36642   36645   36654       1
   36648   36642   36645   36657       2   36648   36642   36645   36660       1
   36642   36645   36657   36663       2   36642   36645   36657   36666       2
   36642   36645   36657   36669       2   36639   36624   36642   36645       2
   36639   36624   36642   36648       1   36639   36624   36642   36651       1
   36636   36624   36642   36645       2   36636   36624   36642   36648       1
   36636   36624   36642   36651       1   36630   36606   36624   36636       1
   36630   36606   36624   36639       1   36630   36606   36624   36642       2
   36627   36606   36624   36636       1   36627   36606   36624   36639       1
   36627   36606   36624   36642       2   36624   36642   36645   36654       2
   36624   36642   36645   36660       2   36621   36600   36615   36633       4
   36618   36594   36615   36633       4   36612   36585   36606   36624       2
   36612   36585   36606   36627       1   36612   36585   36606   36630       1
   36609   36585   36606   36624       2   36609   36585   36606   36627       1
   36609   36585   36606   36630       1   36606   36624   36642   36648       2
   36606   36624   36642   36651       2   36603   36582   36600   36615       4
   36603   36582   36600   36621       4   36600   36615   36594   36618       4
   36597   36579   36594   36615       4   36597   36579   36594   36618       4
   36594   36615   36600   36621       4   36591   36570   36585   36606       2
   36591   36570   36585   36609       1   36591   36570   36585   36612       1
   36588   36570   36585   36606       2   36588   36570   36585   36609       1
   36588   36570   36585   36612       1   36585   36606   36624   36636       2
   36585   36606   36624   36639       2   36582   36567   36579   36597       4
   36582   36600   36615   36633       4   36579   36567   36582   36603       4
   36579   36594   36615   36633       4   36576   36558   36570   36585       2
   36576   36558   36570   36588       1   36576   36558   36570   36591       1
   36573   36558   36570   36585       2   36573   36558   36570   36588       1
   36573   36558   36570   36591       1   36570   36585   36606   36627       2
   36570   36585   36606   36630       2   36567   36579   36594   36618       4
   36567   36582   36600   36621       4   36564   36540   36558   36570       2
   36564   36540   36558   36573       1   36564   36540   36558   36576       1
   36561   36540   36558   36570       2   36561   36540   36558   36573       1
   36561   36540   36558   36576       1   36558   36570   36585   36609       2
   36558   36570   36585   36612       2   36555   36531   36549   36567       4
   36552   36528   36549   36567       4   36549   36567   36579   36597       4
   36549   36567   36582   36603       4   36546   36522   36540   36558       2
   36546   36522   36540   36561       1   36546   36522   36540   36564       1
   36543   36522   36540   36558       2   36543   36522   36540   36561       1
   36543   36522   36540   36564       1   36540   36558   36570   36588       2
   36540   36558   36570   36591       2   36534   36516   36531   36549       4
   36534   36516   36531   36555       4   36531   36549   36528   36552       4
   36528   36549   36531   36555       4   36525   36510   36519   36537       4
   36522   36504   36519   36537       4   36522   36540   36558   36573       2
   36522   36540   36558   36576       2   36519   36504   36522   36543       7
   36519   36504   36522   36546       7   36513   36501   36516   36534       4
   36507   36492   36504   36519       4   36507   36492   36504   36522       4
   36504   36519   36510   36525       4   36504   36522   36540   36561       8
   36504   36522   36540   36564       8   36501   36513   36528   36552       4
   36501   36516   36531   36555       4   36498   36513   36528   36552       4
   36495   36483   36492   36507       4   36495   36510   36519   36537       4
   36492   36504   36519   36537       4   36492   36504   36522   36543       7
   36492   36504   36522   36546       7   36489   36501   36516   36534       4
   36486   36495   36510   36525       4   36483   36495   36510   36525       4
   36480   36483   36492   36507       4   36852   36837   36849   36855       1
   36852   36837   36849   36858       1   36852   36837   36849   36861       1
   36846   36837   36849   36855       1   36846   36837   36849   36858       1
   36846   36837   36849   36861       1   36843   36834   36837   36846       1
   36843   36834   36837   36849       2   36843   36834   36837   36852       1
   36840   36834   36837   36846       1   36840   36834   36837   36849       2
   36840   36834   36837   36852       1   36834   36837   36849   36855       2
   36834   36837   36849   36858       2   36834   36837   36849   36861       2
   36831   36816   36834   36837       2   36831   36816   36834   36840       1
   36831   36816   36834   36843       1   36828   36816   36834   36837       2
   36828   36816   36834   36840       1   36828   36816   36834   36843       1
   36822   36798   36816   36828       1   36822   36798   36816   36831       1
   36822   36798   36816   36834       2   36819   36798   36816   36828       1
   36819   36798   36816   36831       1   36819   36798   36816   36834       2
   36816   36834   36837   36846       2   36816   36834   36837   36852       2
   36813   36792   36807   36825       4   36810   36786   36807   36825       4
   36804   36777   36798   36816       2   36804   36777   36798   36819       1
   36804   36777   36798   36822       1   36801   36777   36798   36816       2
   36801   36777   36798   36819       1   36801   36777   36798   36822       1
   36798   36816   36834   36840       2   36798   36816   36834   36843       2
   36795   36774   36792   36807       4   36795   36774   36792   36813       4
   36792   36807   36786   36810       4   36789   36771   36786   36807       4
   36789   36771   36786   36810       4   36786   36807   36792   36813       4
   36783   36762   36777   36798       2   36783   36762   36777   36801       1
   36783   36762   36777   36804       1   36780   36762   36777   36798       2
   36780   36762   36777   36801       1   36780   36762   36777   36804       1
   36777   36798   36816   36828       2   36777   36798   36816   36831       2
   36774   36759   36771   36789       4   36774   36792   36807   36825       4
   36771   36759   36774   36795       4   36771   36786   36807   36825       4
   36768   36750   36762   36777       2   36768   36750   36762   36780       1
   36768   36750   36762   36783       1   36765   36750   36762   36777       2
   36765   36750   36762   36780       1   36765   36750   36762   36783       1
   36762   36777   36798   36819       2   36762   36777   36798   36822       2
   36759   36771   36786   36810       4   36759   36774   36792   36813       4
   36756   36732   36750   36762       2   36756   36732   36750   36765       1
   36756   36732   36750   36768       1   36753   36732   36750   36762       2
   36753   36732   36750   36765       1   36753   36732   36750   36768       1
   36750   36762   36777   36801       2   36750   36762   36777   36804       2
   36747   36723   36741   36759       4   36744   36720   36741   36759       4
   36741   36759   36771   36789       4   36741   36759   36774   36795       4
   36738   36714   36732   36750       2   36738   36714   36732   36753       1
   36738   36714   36732   36756       1   36735   36714   36732   36750       2
   36735   36714   36732   36753       1   36735   36714   36732   36756       1
   36732   36750   36762   36780       2   36732   36750   36762   36783       2
   36726   36708   36723   36741       4   36726   36708   36723   36747       4
   36723   36741   36720   36744       4   36720   36741   36723   36747       4
   36717   36702   36711   36729       4   36714   36696   36711   36729       4
   36714   36732   36750   36765       2   36714   36732   36750   36768       2
   36711   36696   36714   36735       7   36711   36696   36714   36738       7
   36705   36693   36708   36726       4   36699   36684   36696   36711       4
   36699   36684   36696   36714       4   36696   36711   36702   36717       4
   36696   36714   36732   36753       8   36696   36714   36732   36756       8
   36693   36705   36720   36744       4   36693   36708   36723   36747       4
   36690   36705   36720   36744       4   36687   36675   36684   36699       4
   36687   36702   36711   36729       4   36684   36696   36711   36729       4
   36684   36696   36714   36735       7   36684   36696   36714   36738       7
   36681   36693   36708   36726       4   36678   36687   36702   36717       4
   36675   36687   36702   36717       4   36672   36675   36684   36699       4
   37044   37029   37041   37047       1   37044   37029   37041   37050       1
   37044   37029   37041   37053       1   37038   37029   37041   37047       1
   37038   37029   37041   37050       1   37038   37029   37041   37053       1
   37035   37026   37029   37038       1   37035   37026   37029   37041       2
   37035   37026   37029   37044       1   37032   37026   37029   37038       1
   37032   37026   37029   37041       2   37032   37026   37029   37044       1
   37026   37029   37041   37047       2   37026   37029   37041   37050       2
   37026   37029   37041   37053       2   37023   37008   37026   37029       2
   37023   37008   37026   37032       1   37023   37008   37026   37035       1
   37020   37008   37026   37029       2   37020   37008   37026   37032       1
   37020   37008   37026   37035       1   37014   36990   37008   37020       1
   37014   36990   37008   37023       1   37014   36990   37008   37026       2
   37011   36990   37008   37020       1   37011   36990   37008   37023       1
   37011   36990   37008   37026       2   37008   37026   37029   37038       2
   37008   37026   37029   37044       2   37005   36984   36999   37017       4
   37002   36978   36999   37017       4   36996   36969   36990   37008       2
   36996   36969   36990   37011       1   36996   36969   36990   37014       1
   36993   36969   36990   37008       2   36993   36969   36990   37011       1
   36993   36969   36990   37014       1   36990   37008   37026   37032       2
   36990   37008   37026   37035       2   36987   36966   36984   36999       4
   36987   36966   36984   37005       4   36984   36999   36978   37002       4
   36981   36963   36978   36999       4   36981   36963   36978   37002       4
   36978   36999   36984   37005       4   36975   36954   36969   36990       2
   36975   36954   36969   36993       1   36975   36954   36969   36996       1
   36972   36954   36969   36990       2   36972   36954   36969   36993       1
   36972   36954   36969   36996       1   36969   36990   37008   37020       2
   36969   36990   37008   37023       2   36966   36951   36963   36981       4
   36966   36984   36999   37017       4   36963   36951   36966   36987       4
   36963   36978   36999   37017       4   36960   36942   36954   36969       2
   36960   36942   36954   36972       1   36960   36942   36954   36975       1
   36957   36942   36954   36969       2   36957   36942   36954   36972       1
   36957   36942   36954   36975       1   36954   36969   36990   37011       2
   36954   36969   36990   37014       2   36951   36963   36978   37002       4
   36951   36966   36984   37005       4   36948   36924   36942   36954       2
   36948   36924   36942   36957       1   36948   36924   36942   36960       1
   36945   36924   36942   36954       2   36945   36924   36942   36957       1
   36945   36924   36942   36960       1   36942   36954   36969   36993       2
   36942   36954   36969   36996       2   36939   36915   36933   36951       4
   36936   36912   36933   36951       4   36933   36951   36963   36981       4
   36933   36951   36966   36987       4   36930   36906   36924   36942       2
   36930   36906   36924   36945       1   36930   36906   36924   36948       1
   36927   36906   36924   36942       2   36927   36906   36924   36945       1
   36927   36906   36924   36948       1   36924   36942   36954   36972       2
   36924   36942   36954   36975       2   36918   36900   36915   36933       4
   36918   36900   36915   36939       4   36915   36933   36912   36936       4
   36912   36933   36915   36939       4   36909   36894   36903   36921       4
   36906   36888   36903   36921       4   36906   36924   36942   36957       2
   36906   36924   36942   36960       2   36903   36888   36906   36927       7
   36903   36888   36906   36930       7   36897   36885   36900   36918       4
   36891   36876   36888   36903       4   36891   36876   36888   36906       4
   36888   36903   36894   36909       4   36888   36906   36924   36945       8
   36888   36906   36924   36948       8   36885   36897   36912   36936       4
   36885   36900   36915   36939       4   36882   36897   36912   36936       4
   36879   36867   36876   36891       4   36879   36894   36903   36921       4
   36876   36888   36903   36921       4   36876   36888   36906   36927       7
   36876   36888   36906   36930       7   36873   36885   36900   36918       4
   36870   36879   36894   36909       4   36867   36879   36894   36909       4
   36864   36867   36876   36891       4   37236   37221   37233   37239       1
   37236   37221   37233   37242       1   37236   37221   37233   37245       1
   37230   37221   37233   37239       1   37230   37221   37233   37242       1
   37230   37221   37233   37245       1   37227   37218   37221   37230       1
   37227   37218   37221   37233       2   37227   37218   37221   37236       1
   37224   37218   37221   37230       1   37224   37218   37221   37233       2
   37224   37218   37221   37236       1   37218   37221   37233   37239       2
   37218   37221   37233   37242       2   37218   37221   37233   37245       2
   37215   37200   37218   37221       2   37215   37200   37218   37224       1
   37215   37200   37218   37227       1   37212   37200   37218   37221       2
   37212   37200   37218   37224       1   37212   37200   37218   37227       1
   37206   37182   37200   37212       1   37206   37182   37200   37215       1
   37206   37182   37200   37218       2   37203   37182   37200   37212       1
   37203   37182   37200   37215       1   37203   37182   37200   37218       2
   37200   37218   37221   37230       2   37200   37218   37221   37236       2
   37197   37176   37191   37209       4   37194   37170   37191   37209       4
   37188   37161   37182   37200       2   37188   37161   37182   37203       1
   37188   37161   37182   37206       1   37185   37161   37182   37200       2
   37185   37161   37182   37203       1   37185   37161   37182   37206       1
   37182   37200   37218   37224       2   37182   37200   37218   37227       2
   37179   37158   37176   37191       4   37179   37158   37176   37197       4
   37176   37191   37170   37194       4   37173   37155   37170   37191       4
   37173   37155   37170   37194       4   37170   37191   37176   37197       4
   37167   37146   37161   37182       2   37167   37146   37161   37185       1
   37167   37146   37161   37188       1   37164   37146   37161   37182       2
   37164   37146   37161   37185       1   37164   37146   37161   37188       1
   37161   37182   37200   37212       2   37161   37182   37200   37215       2
   37158   37143   37155   37173       4   37158   37176   37191   37209       4
   37155   37143   37158   37179       4   37155   37170   37191   37209       4
   37152   37134   37146   37161       2   37152   37134   37146   37164       1
   37152   37134   37146   37167       1   37149   37134   37146   37161       2
   37149   37134   37146   37164       1   37149   37134   37146   37167       1
   37146   37161   37182   37203       2   37146   37161   37182   37206       2
   37143   37155   37170   37194       4   37143   37158   37176   37197       4
   37140   37116   37134   37146       2   37140   37116   37134   37149       1
   37140   37116   37134   37152       1   37137   37116   37134   37146       2
   37137   37116   37134   37149       1   37137   37116   37134   37152       1
   37134   37146   37161   37185       2   37134   37146   37161   37188       2
   37131   37107   37125   37143       4   37128   37104   37125   37143       4
   37125   37143   37155   37173       4   37125   37143   37158   37179       4
   37122   37098   37116   37134       2   37122   37098   37116   37137       1
   37122   37098   37116   37140       1   37119   37098   37116   37134       2
   37119   37098   37116   37137       1   37119   37098   37116   37140       1
   37116   37134   37146   37164       2   37116   37134   37146   37167       2
   37110   37092   37107   37125       4   37110   37092   37107   37131       4
   37107   37125   37104   37128       4   37104   37125   37107   37131       4
   37101   37086   37095   37113       4   37098   37080   37095   37113       4
   37098   37116   37134   37149       2   37098   37116   37134   37152       2
   37095   37080   37098   37119       7   37095   37080   37098   37122       7
   37089   37077   37092   37110       4   37083   37068   37080   37095       4
   37083   37068   37080   37098       4   37080   37095   37086   37101       4
   37080   37098   37116   37137       8   37080   37098   37116   37140       8
   37077   37089   37104   37128       4   37077   37092   37107   37131       4
   37074   37089   37104   37128       4   37071   37059   37068   37083       4
   37071   37086   37095   37113       4   37068   37080   37095   37113       4
   37068   37080   37098   37119       7   37068   37080   37098   37122       7
   37065   37077   37092   37110       4   37062   37071   37086   37101       4
   37059   37071   37086   37101       4   37056   37059   37068   37083       4
   37428   37413   37425   37431       1   37428   37413   37425   37434       1
   37428   37413   37425   37437       1   37422   37413   37425   37431       1
   37422   37413   37425   37434       1   37422   37413   37425   37437       1
   37419   37410   37413   37422       1   37419   37410   37413   37425       2
   37419   37410   37413   37428       1   37416   37410   37413   37422       1
   37416   37410   37413   37425       2   37416   37410   37413   37428       1
   37410   37413   37425   37431       2   37410   37413   37425   37434       2
   37410   37413   37425   37437       2   37407   37392   37410   37413       2
   37407   37392   37410   37416       1   37407   37392   37410   37419       1
   37404   37392   37410   37413       2   37404   37392   37410   37416       1
   37404   37392   37410   37419       1   37398   37374   37392   37404       1
   37398   37374   37392   37407       1   37398   37374   37392   37410       2
   37395   37374   37392   37404       1   37395   37374   37392   37407       1
   37395   37374   37392   37410       2   37392   37410   37413   37422       2
   37392   37410   37413   37428       2   37389   37368   37383   37401       4
   37386   37362   37383   37401       4   37380   37353   37374   37392       2
   37380   37353   37374   37395       1   37380   37353   37374   37398       1
   37377   37353   37374   37392       2   37377   37353   37374   37395       1
   37377   37353   37374   37398       1   37374   37392   37410   37416       2
   37374   37392   37410   37419       2   37371   37350   37368   37383       4
   37371   37350   37368   37389       4   37368   37383   37362   37386       4
   37365   37347   37362   37383       4   37365   37347   37362   37386       4
   37362   37383   37368   37389       4   37359   37338   37353   37374       2
   37359   37338   37353   37377       1   37359   37338   37353   37380       1
   37356   37338   37353   37374       2   37356   37338   37353   37377       1
   37356   37338   37353   37380       1   37353   37374   37392   37404       2
   37353   37374   37392   37407       2   37350   37335   37347   37365       4
   37350   37368   37383   37401       4   37347   37335   37350   37371       4
   37347   37362   37383   37401       4   37344   37326   37338   37353       2
   37344   37326   37338   37356       1   37344   37326   37338   37359       1
   37341   37326   37338   37353       2   37341   37326   37338   37356       1
   37341   37326   37338   37359       1   37338   37353   37374   37395       2
   37338   37353   37374   37398       2   37335   37347   37362   37386       4
   37335   37350   37368   37389       4   37332   37308   37326   37338       2
   37332   37308   37326   37341       1   37332   37308   37326   37344       1
   37329   37308   37326   37338       2   37329   37308   37326   37341       1
   37329   37308   37326   37344       1   37326   37338   37353   37377       2
   37326   37338   37353   37380       2   37323   37299   37317   37335       4
   37320   37296   37317   37335       4   37317   37335   37347   37365       4
   37317   37335   37350   37371       4   37314   37290   37308   37326       2
   37314   37290   37308   37329       1   37314   37290   37308   37332       1
   37311   37290   37308   37326       2   37311   37290   37308   37329       1
   37311   37290   37308   37332       1   37308   37326   37338   37356       2
   37308   37326   37338   37359       2   37302   37284   37299   37317       4
   37302   37284   37299   37323       4   37299   37317   37296   37320       4
   37296   37317   37299   37323       4   37293   37278   37287   37305       4
   37290   37272   37287   37305       4   37290   37308   37326   37341       2
   37290   37308   37326   37344       2   37287   37272   37290   37311       7
   37287   37272   37290   37314       7   37281   37269   37284   37302       4
   37275   37260   37272   37287       4   37275   37260   37272   37290       4
   37272   37287   37278   37293       4   37272   37290   37308   37329       8
   37272   37290   37308   37332       8   37269   37281   37296   37320       4
   37269   37284   37299   37323       4   37266   37281   37296   37320       4
   37263   37251   37260   37275       4   37263   37278   37287   37305       4
   37260   37272   37287   37305       4   37260   37272   37290   37311       7
   37260   37272   37290   37314       7   37257   37269   37284   37302       4
   37254   37263   37278   37293       4   37251   37263   37278   37293       4
   37248   37251   37260   37275       4   37620   37605   37617   37623       1
   37620   37605   37617   37626       1   37620   37605   37617   37629       1
   37614   37605   37617   37623       1   37614   37605   37617   37626       1
   37614   37605   37617   37629       1   37611   37602   37605   37614       1
   37611   37602   37605   37617       2   37611   37602   37605   37620       1
   37608   37602   37605   37614       1   37608   37602   37605   37617       2
   37608   37602   37605   37620       1   37602   37605   37617   37623       2
   37602   37605   37617   37626       2   37602   37605   37617   37629       2
   37599   37584   37602   37605       2   37599   37584   37602   37608       1
   37599   37584   37602   37611       1   37596   37584   37602   37605       2
   37596   37584   37602   37608       1   37596   37584   37602   37611       1
   37590   37566   37584   37596       1   37590   37566   37584   37599       1
   37590   37566   37584   37602       2   37587   37566   37584   37596       1
   37587   37566   37584   37599       1   37587   37566   37584   37602       2
   37584   37602   37605   37614       2   37584   37602   37605   37620       2
   37581   37560   37575   37593       4   37578   37554   37575   37593       4
   37572   37545   37566   37584       2   37572   37545   37566   37587       1
   37572   37545   37566   37590       1   37569   37545   37566   37584       2
   37569   37545   37566   37587       1   37569   37545   37566   37590       1
   37566   37584   37602   37608       2   37566   37584   37602   37611       2
   37563   37542   37560   37575       4   37563   37542   37560   37581       4
   37560   37575   37554   37578       4   37557   37539   37554   37575       4
   37557   37539   37554   37578       4   37554   37575   37560   37581       4
   37551   37530   37545   37566       2   37551   37530   37545   37569       1
   37551   37530   37545   37572       1   37548   37530   37545   37566       2
   37548   37530   37545   37569       1   37548   37530   37545   37572       1
   37545   37566   37584   37596       2   37545   37566   37584   37599       2
   37542   37527   37539   37557       4   37542   37560   37575   37593       4
   37539   37527   37542   37563       4   37539   37554   37575   37593       4
   37536   37518   37530   37545       2   37536   37518   37530   37548       1
   37536   37518   37530   37551       1   37533   37518   37530   37545       2
   37533   37518   37530   37548       1   37533   37518   37530   37551       1
   37530   37545   37566   37587       2   37530   37545   37566   37590       2
   37527   37539   37554   37578       4   37527   37542   37560   37581       4
   37524   37500   37518   37530       2   37524   37500   37518   37533       1
   37524   37500   37518   37536       1   37521   37500   37518   37530       2
   37521   37500   37518   37533       1   37521   37500   37518   37536       1
   37518   37530   37545   37569       2   37518   37530   37545   37572       2
   37515   37491   37509   37527       4   37512   37488   37509   37527       4
   37509   37527   37539   37557       4   37509   37527   37542   37563       4
   37506   37482   37500   37518       2   37506   37482   37500   37521       1
   37506   37482   37500   37524       1   37503   37482   37500   37518       2
   37503   37482   37500   37521       1   37503   37482   37500   37524       1
   37500   37518   37530   37548       2   37500   37518   37530   37551       2
   37494   37476   37491   37509       4   37494   37476   37491   37515       4
   37491   37509   37488   37512       4   37488   37509   37491   37515       4
   37485   37470   37479   37497       4   37482   37464   37479   37497       4
   37482   37500   37518   37533       2   37482   37500   37518   37536       2
   37479   37464   37482   37503       7   37479   37464   37482   37506       7
   37473   37461   37476   37494       4   37467   37452   37464   37479       4
   37467   37452   37464   37482       4   37464   37479   37470   37485       4
   37464   37482   37500   37521       8   37464   37482   37500   37524       8
   37461   37473   37488   37512       4   37461   37476   37491   37515       4
   37458   37473   37488   37512       4   37455   37443   37452   37467       4
   37455   37470   37479   37497       4   37452   37464   37479   37497       4
   37452   37464   37482   37503       7   37452   37464   37482   37506       7
   37449   37461   37476   37494       4   37446   37455   37470   37485       4
   37443   37455   37470   37485       4   37440   37443   37452   37467       4
   37812   37797   37809   37815       1   37812   37797   37809   37818       1
   37812   37797   37809   37821       1   37806   37797   37809   37815       1
   37806   37797   37809   37818       1   37806   37797   37809   37821       1
   37803   37794   37797   37806       1   37803   37794   37797   37809       2
   37803   37794   37797   37812       1   37800   37794   37797   37806       1
   37800   37794   37797   37809       2   37800   37794   37797   37812       1
   37794   37797   37809   37815       2   37794   37797   37809   37818       2
   37794   37797   37809   37821       2   37791   37776   37794   37797       2
   37791   37776   37794   37800       1   37791   37776   37794   37803       1
   37788   37776   37794   37797       2   37788   37776   37794   37800       1
   37788   37776   37794   37803       1   37782   37758   37776   37788       1
   37782   37758   37776   37791       1   37782   37758   37776   37794       2
   37779   37758   37776   37788       1   37779   37758   37776   37791       1
   37779   37758   37776   37794       2   37776   37794   37797   37806       2
   37776   37794   37797   37812       2   37773   37752   37767   37785       4
   37770   37746   37767   37785       4   37764   37737   37758   37776       2
   37764   37737   37758   37779       1   37764   37737   37758   37782       1
   37761   37737   37758   37776       2   37761   37737   37758   37779       1
   37761   37737   37758   37782       1   37758   37776   37794   37800       2
   37758   37776   37794   37803       2   37755   37734   37752   37767       4
   37755   37734   37752   37773       4   37752   37767   37746   37770       4
   37749   37731   37746   37767       4   37749   37731   37746   37770       4
   37746   37767   37752   37773       4   37743   37722   37737   37758       2
   37743   37722   37737   37761       1   37743   37722   37737   37764       1
   37740   37722   37737   37758       2   37740   37722   37737   37761       1
   37740   37722   37737   37764       1   37737   37758   37776   37788       2
   37737   37758   37776   37791       2   37734   37719   37731   37749       4
   37734   37752   37767   37785       4   37731   37719   37734   37755       4
   37731   37746   37767   37785       4   37728   37710   37722   37737       2
   37728   37710   37722   37740       1   37728   37710   37722   37743       1
   37725   37710   37722   37737       2   37725   37710   37722   37740       1
   37725   37710   37722   37743       1   37722   37737   37758   37779       2
   37722   37737   37758   37782       2   37719   37731   37746   37770       4
   37719   37734   37752   37773       4   37716   37692   37710   37722       2
   37716   37692   37710   37725       1   37716   37692   37710   37728       1
   37713   37692   37710   37722       2   37713   37692   37710   37725       1
   37713   37692   37710   37728       1   37710   37722   37737   37761       2
   37710   37722   37737   37764       2   37707   37683   37701   37719       4
   37704   37680   37701   37719       4   37701   37719   37731   37749       4
   37701   37719   37734   37755       4   37698   37674   37692   37710       2
   37698   37674   37692   37713       1   37698   37674   37692   37716       1
   37695   37674   37692   37710       2   37695   37674   37692   37713       1
   37695   37674   37692   37716       1   37692   37710   37722   37740       2
   37692   37710   37722   37743       2   37686   37668   37683   37701       4
   37686   37668   37683   37707       4   37683   37701   37680   37704       4
   37680   37701   37683   37707       4   37677   37662   37671   37689       4
   37674   37656   37671   37689       4   37674   37692   37710   37725       2
   37674   37692   37710   37728       2   37671   37656   37674   37695       7
   37671   37656   37674   37698       7   37665   37653   37668   37686       4
   37659   37644   37656   37671       4   37659   37644   37656   37674       4
   37656   37671   37662   37677       4   37656   37674   37692   37713       8
   37656   37674   37692   37716       8   37653   37665   37680   37704       4
   37653   37668   37683   37707       4   37650   37665   37680   37704       4
   37647   37635   37644   37659       4   37647   37662   37671   37689       4
   37644   37656   37671   37689       4   37644   37656   37674   37695       7
   37644   37656   37674   37698       7   37641   37653   37668   37686       4
   37638   37647   37662   37677       4   37635   37647   37662   37677       4
   37632   37635   37644   37659       4   38004   37989   38001   38007       1
   38004   37989   38001   38010       1   38004   37989   38001   38013       1
   37998   37989   38001   38007       1   37998   37989   38001   38010       1
   37998   37989   38001   38013       1   37995   37986   37989   37998       1
   37995   37986   37989   38001       2   37995   37986   37989   38004       1
   37992   37986   37989   37998       1   37992   37986   37989   38001       2
   37992   37986   37989   38004       1   37986   37989   38001   38007       2
   37986   37989   38001   38010       2   37986   37989   38001   38013       2
   37983   37968   37986   37989       2   37983   37968   37986   37992       1
   37983   37968   37986   37995       1   37980   37968   37986   37989       2
   37980   37968   37986   37992       1   37980   37968   37986   37995       1
   37974   37950   37968   37980       1   37974   37950   37968   37983       1
   37974   37950   37968   37986       2   37971   37950   37968   37980       1
   37971   37950   37968   37983       1   37971   37950   37968   37986       2
   37968   37986   37989   37998       2   37968   37986   37989   38004       2
   37965   37944   37959   37977       4   37962   37938   37959   37977       4
   37956   37929   37950   37968       2   37956   37929   37950   37971       1
   37956   37929   37950   37974       1   37953   37929   37950   37968       2
   37953   37929   37950   37971       1   37953   37929   37950   37974       1
   37950   37968   37986   37992       2   37950   37968   37986   37995       2
   37947   37926   37944   37959       4   37947   37926   37944   37965       4
   37944   37959   37938   37962       4   37941   37923   37938   37959       4
   37941   37923   37938   37962       4   37938   37959   37944   37965       4
   37935   37914   37929   37950       2   37935   37914   37929   37953       1
   37935   37914   37929   37956       1   37932   37914   37929   37950       2
   37932   37914   37929   37953       1   37932   37914   37929   37956       1
   37929   37950   37968   37980       2   37929   37950   37968   37983       2
   37926   37911   37923   37941       4   37926   37944   37959   37977       4
   37923   37911   37926   37947       4   37923   37938   37959   37977       4
   37920   37902   37914   37929       2   37920   37902   37914   37932       1
   37920   37902   37914   37935       1   37917   37902   37914   37929       2
   37917   37902   37914   37932       1   37917   37902   37914   37935       1
   37914   37929   37950   37971       2   37914   37929   37950   37974       2
   37911   37923   37938   37962       4   37911   37926   37944   37965       4
   37908   37884   37902   37914       2   37908   37884   37902   37917       1
   37908   37884   37902   37920       1   37905   37884   37902   37914       2
   37905   37884   37902   37917       1   37905   37884   37902   37920       1
   37902   37914   37929   37953       2   37902   37914   37929   37956       2
   37899   37875   37893   37911       4   37896   37872   37893   37911       4
   37893   37911   37923   37941       4   37893   37911   37926   37947       4
   37890   37866   37884   37902       2   37890   37866   37884   37905       1
   37890   37866   37884   37908       1   37887   37866   37884   37902       2
   37887   37866   37884   37905       1   37887   37866   37884   37908       1
   37884   37902   37914   37932       2   37884   37902   37914   37935       2
   37878   37860   37875   37893       4   37878   37860   37875   37899       4
   37875   37893   37872   37896       4   37872   37893   37875   37899       4
   37869   37854   37863   37881       4   37866   37848   37863   37881       4
   37866   37884   37902   37917       2   37866   37884   37902   37920       2
   37863   37848   37866   37887       7   37863   37848   37866   37890       7
   37857   37845   37860   37878       4   37851   37836   37848   37863       4
   37851   37836   37848   37866       4   37848   37863   37854   37869       4
   37848   37866   37884   37905       8   37848   37866   37884   37908       8
   37845   37857   37872   37896       4   37845   37860   37875   37899       4
   37842   37857   37872   37896       4   37839   37827   37836   37851       4
   37839   37854   37863   37881       4   37836   37848   37863   37881       4
   37836   37848   37866   37887       7   37836   37848   37866   37890       7
   37833   37845   37860   37878       4   37830   37839   37854   37869       4
   37827   37839   37854   37869       4   37824   37827   37836   37851       4
   38196   38181   38193   38199       1   38196   38181   38193   38202       1
   38196   38181   38193   38205       1   38190   38181   38193   38199       1
   38190   38181   38193   38202       1   38190   38181   38193   38205       1
   38187   38178   38181   38190       1   38187   38178   38181   38193       2
   38187   38178   38181   38196       1   38184   38178   38181   38190       1
   38184   38178   38181   38193       2   38184   38178   38181   38196       1
   38178   38181   38193   38199       2   38178   38181   38193   38202       2
   38178   38181   38193   38205       2   38175   38160   38178   38181       2
   38175   38160   38178   38184       1   38175   38160   38178   38187       1
   38172   38160   38178   38181       2   38172   38160   38178   38184       1
   38172   38160   38178   38187       1   38166   38142   38160   38172       1
   38166   38142   38160   38175       1   38166   38142   38160   38178       2
   38163   38142   38160   38172       1   38163   38142   38160   38175       1
   38163   38142   38160   38178       2   38160   38178   38181   38190       2
   38160   38178   38181   38196       2   38157   38136   38151   38169       4
   38154   38130   38151   38169       4   38148   38121   38142   38160       2
   38148   38121   38142   38163       1   38148   38121   38142   38166       1
   38145   38121   38142   38160       2   38145   38121   38142   38163       1
   38145   38121   38142   38166       1   38142   38160   38178   38184       2
   38142   38160   38178   38187       2   38139   38118   38136   38151       4
   38139   38118   38136   38157       4   38136   38151   38130   38154       4
   38133   38115   38130   38151       4   38133   38115   38130   38154       4
   38130   38151   38136   38157       4   38127   38106   38121   38142       2
   38127   38106   38121   38145       1   38127   38106   38121   38148       1
   38124   38106   38121   38142       2   38124   38106   38121   38145       1
   38124   38106   38121   38148       1   38121   38142   38160   38172       2
   38121   38142   38160   38175       2   38118   38103   38115   38133       4
   38118   38136   38151   38169       4   38115   38103   38118   38139       4
   38115   38130   38151   38169       4   38112   38094   38106   38121       2
   38112   38094   38106   38124       1   38112   38094   38106   38127       1
   38109   38094   38106   38121       2   38109   38094   38106   38124       1
   38109   38094   38106   38127       1   38106   38121   38142   38163       2
   38106   38121   38142   38166       2   38103   38115   38130   38154       4
   38103   38118   38136   38157       4   38100   38076   38094   38106       2
   38100   38076   38094   38109       1   38100   38076   38094   38112       1
   38097   38076   38094   38106       2   38097   38076   38094   38109       1
   38097   38076   38094   38112       1   38094   38106   38121   38145       2
   38094   38106   38121   38148       2   38091   38067   38085   38103       4
   38088   38064   38085   38103       4   38085   38103   38115   38133       4
   38085   38103   38118   38139       4   38082   38058   38076   38094       2
   38082   38058   38076   38097       1   38082   38058   38076   38100       1
   38079   38058   38076   38094       2   38079   38058   38076   38097       1
   38079   38058   38076   38100       1   38076   38094   38106   38124       2
   38076   38094   38106   38127       2   38070   38052   38067   38085       4
   38070   38052   38067   38091       4   38067   38085   38064   38088       4
   38064   38085   38067   38091       4   38061   38046   38055   38073       4
   38058   38040   38055   38073       4   38058   38076   38094   38109       2
   38058   38076   38094   38112       2   38055   38040   38058   38079       7
   38055   38040   38058   38082       7   38049   38037   38052   38070       4
   38043   38028   38040   38055       4   38043   38028   38040   38058       4
   38040   38055   38046   38061       4   38040   38058   38076   38097       8
   38040   38058   38076   38100       8   38037   38049   38064   38088       4
   38037   38052   38067   38091       4   38034   38049   38064   38088       4
   38031   38019   38028   38043       4   38031   38046   38055   38073       4
   38028   38040   38055   38073       4   38028   38040   38058   38079       7
   38028   38040   38058   38082       7   38025   38037   38052   38070       4
   38022   38031   38046   38061       4   38019   38031   38046   38061       4
   38016   38019   38028   38043       4   38388   38373   38385   38391       1
   38388   38373   38385   38394       1   38388   38373   38385   38397       1
   38382   38373   38385   38391       1   38382   38373   38385   38394       1
   38382   38373   38385   38397       1   38379   38370   38373   38382       1
   38379   38370   38373   38385       2   38379   38370   38373   38388       1
   38376   38370   38373   38382       1   38376   38370   38373   38385       2
   38376   38370   38373   38388       1   38370   38373   38385   38391       2
   38370   38373   38385   38394       2   38370   38373   38385   38397       2
   38367   38352   38370   38373       2   38367   38352   38370   38376       1
   38367   38352   38370   38379       1   38364   38352   38370   38373       2
   38364   38352   38370   38376       1   38364   38352   38370   38379       1
   38358   38334   38352   38364       1   38358   38334   38352   38367       1
   38358   38334   38352   38370       2   38355   38334   38352   38364       1
   38355   38334   38352   38367       1   38355   38334   38352   38370       2
   38352   38370   38373   38382       2   38352   38370   38373   38388       2
   38349   38328   38343   38361       4   38346   38322   38343   38361       4
   38340   38313   38334   38352       2   38340   38313   38334   38355       1
   38340   38313   38334   38358       1   38337   38313   38334   38352       2
   38337   38313   38334   38355       1   38337   38313   38334   38358       1
   38334   38352   38370   38376       2   38334   38352   38370   38379       2
   38331   38310   38328   38343       4   38331   38310   38328   38349       4
   38328   38343   38322   38346       4   38325   38307   38322   38343       4
   38325   38307   38322   38346       4   38322   38343   38328   38349       4
   38319   38298   38313   38334       2   38319   38298   38313   38337       1
   38319   38298   38313   38340       1   38316   38298   38313   38334       2
   38316   38298   38313   38337       1   38316   38298   38313   38340       1
   38313   38334   38352   38364       2   38313   38334   38352   38367       2
   38310   38295   38307   38325       4   38310   38328   38343   38361       4
   38307   38295   38310   38331       4   38307   38322   38343   38361       4
   38304   38286   38298   38313       2   38304   38286   38298   38316       1
   38304   38286   38298   38319       1   38301   38286   38298   38313       2
   38301   38286   38298   38316       1   38301   38286   38298   38319       1
   38298   38313   38334   38355       2   38298   38313   38334   38358       2
   38295   38307   38322   38346       4   38295   38310   38328   38349       4
   38292   38268   38286   38298       2   38292   38268   38286   38301       1
   38292   38268   38286   38304       1   38289   38268   38286   38298       2
   38289   38268   38286   38301       1   38289   38268   38286   38304       1
   38286   38298   38313   38337       2   38286   38298   38313   38340       2
   38283   38259   38277   38295       4   38280   38256   38277   38295       4
   38277   38295   38307   38325       4   38277   38295   38310   38331       4
   38274   38250   38268   38286       2   38274   38250   38268   38289       1
   38274   38250   38268   38292       1   38271   38250   38268   38286       2
   38271   38250   38268   38289       1   38271   38250   38268   38292       1
   38268   38286   38298   38316       2   38268   38286   38298   38319       2
   38262   38244   38259   38277       4   38262   38244   38259   38283       4
   38259   38277   38256   38280       4   38256   38277   38259   38283       4
   38253   38238   38247   38265       4   38250   38232   38247   38265       4
   38250   38268   38286   38301       2   38250   38268   38286   38304       2
   38247   38232   38250   38271       7   38247   38232   38250   38274       7
   38241   38229   38244   38262       4   38235   38220   38232   38247       4
   38235   38220   38232   38250       4   38232   38247   38238   38253       4
   38232   38250   38268   38289       8   38232   38250   38268   38292       8
   38229   38241   38256   38280       4   38229   38244   38259   38283       4
   38226   38241   38256   38280       4   38223   38211   38220   38235       4
   38223   38238   38247   38265       4   38220   38232   38247   38265       4
   38220   38232   38250   38271       7   38220   38232   38250   38274       7
   38217   38229   38244   38262       4   38214   38223   38238   38253       4
   38211   38223   38238   38253       4   38208   38211   38220   38235       4
   38580   38565   38577   38583       1   38580   38565   38577   38586       1
   38580   38565   38577   38589       1   38574   38565   38577   38583       1
   38574   38565   38577   38586       1   38574   38565   38577   38589       1
   38571   38562   38565   38574       1   38571   38562   38565   38577       2
   38571   38562   38565   38580       1   38568   38562   38565   38574       1
   38568   38562   38565   38577       2   38568   38562   38565   38580       1
   38562   38565   38577   38583       2   38562   38565   38577   38586       2
   38562   38565   38577   38589       2   38559   38544   38562   38565       2
   38559   38544   38562   38568       1   38559   38544   38562   38571       1
   38556   38544   38562   38565       2   38556   38544   38562   38568       1
   38556   38544   38562   38571       1   38550   38526   38544   38556       1
   38550   38526   38544   38559       1   38550   38526   38544   38562       2
   38547   38526   38544   38556       1   38547   38526   38544   38559       1
   38547   38526   38544   38562       2   38544   38562   38565   38574       2
   38544   38562   38565   38580       2   38541   38520   38535   38553       4
   38538   38514   38535   38553       4   38532   38505   38526   38544       2
   38532   38505   38526   38547       1   38532   38505   38526   38550       1
   38529   38505   38526   38544       2   38529   38505   38526   38547       1
   38529   38505   38526   38550       1   38526   38544   38562   38568       2
   38526   38544   38562   38571       2   38523   38502   38520   38535       4
   38523   38502   38520   38541       4   38520   38535   38514   38538       4
   38517   38499   38514   38535       4   38517   38499   38514   38538       4
   38514   38535   38520   38541       4   38511   38490   38505   38526       2
   38511   38490   38505   38529       1   38511   38490   38505   38532       1
   38508   38490   38505   38526       2   38508   38490   38505   38529       1
   38508   38490   38505   38532       1   38505   38526   38544   38556       2
   38505   38526   38544   38559       2   38502   38487   38499   38517       4
   38502   38520   38535   38553       4   38499   38487   38502   38523       4
   38499   38514   38535   38553       4   38496   38478   38490   38505       2
   38496   38478   38490   38508       1   38496   38478   38490   38511       1
   38493   38478   38490   38505       2   38493   38478   38490   38508       1
   38493   38478   38490   38511       1   38490   38505   38526   38547       2
   38490   38505   38526   38550       2   38487   38499   38514   38538       4
   38487   38502   38520   38541       4   38484   38460   38478   38490       2
   38484   38460   38478   38493       1   38484   38460   38478   38496       1
   38481   38460   38478   38490       2   38481   38460   38478   38493       1
   38481   38460   38478   38496       1   38478   38490   38505   38529       2
   38478   38490   38505   38532       2   38475   38451   38469   38487       4
   38472   38448   38469   38487       4   38469   38487   38499   38517       4
   38469   38487   38502   38523       4   38466   38442   38460   38478       2
   38466   38442   38460   38481       1   38466   38442   38460   38484       1
   38463   38442   38460   38478       2   38463   38442   38460   38481       1
   38463   38442   38460   38484       1   38460   38478   38490   38508       2
   38460   38478   38490   38511       2   38454   38436   38451   38469       4
   38454   38436   38451   38475       4   38451   38469   38448   38472       4
   38448   38469   38451   38475       4   38445   38430   38439   38457       4
   38442   38424   38439   38457       4   38442   38460   38478   38493       2
   38442   38460   38478   38496       2   38439   38424   38442   38463       7
   38439   38424   38442   38466       7   38433   38421   38436   38454       4
   38427   38412   38424   38439       4   38427   38412   38424   38442       4
   38424   38439   38430   38445       4   38424   38442   38460   38481       8
   38424   38442   38460   38484       8   38421   38433   38448   38472       4
   38421   38436   38451   38475       4   38418   38433   38448   38472       4
   38415   38403   38412   38427       4   38415   38430   38439   38457       4
   38412   38424   38439   38457       4   38412   38424   38442   38463       7
   38412   38424   38442   38466       7   38409   38421   38436   38454       4
   38406   38415   38430   38445       4   38403   38415   38430   38445       4
   38400   38403   38412   38427       4   38772   38757   38769   38775       1
   38772   38757   38769   38778       1   38772   38757   38769   38781       1
   38766   38757   38769   38775       1   38766   38757   38769   38778       1
   38766   38757   38769   38781       1   38763   38754   38757   38766       1
   38763   38754   38757   38769       2   38763   38754   38757   38772       1
   38760   38754   38757   38766       1   38760   38754   38757   38769       2
   38760   38754   38757   38772       1   38754   38757   38769   38775       2
   38754   38757   38769   38778       2   38754   38757   38769   38781       2
   38751   38736   38754   38757       2   38751   38736   38754   38760       1
   38751   38736   38754   38763       1   38748   38736   38754   38757       2
   38748   38736   38754   38760       1   38748   38736   38754   38763       1
   38742   38718   38736   38748       1   38742   38718   38736   38751       1
   38742   38718   38736   38754       2   38739   38718   38736   38748       1
   38739   38718   38736   38751       1   38739   38718   38736   38754       2
   38736   38754   38757   38766       2   38736   38754   38757   38772       2
   38733   38712   38727   38745       4   38730   38706   38727   38745       4
   38724   38697   38718   38736       2   38724   38697   38718   38739       1
   38724   38697   38718   38742       1   38721   38697   38718   38736       2
   38721   38697   38718   38739       1   38721   38697   38718   38742       1
   38718   38736   38754   38760       2   38718   38736   38754   38763       2
   38715   38694   38712   38727       4   38715   38694   38712   38733       4
   38712   38727   38706   38730       4   38709   38691   38706   38727       4
   38709   38691   38706   38730       4   38706   38727   38712   38733       4
   38703   38682   38697   38718       2   38703   38682   38697   38721       1
   38703   38682   38697   38724       1   38700   38682   38697   38718       2
   38700   38682   38697   38721       1   38700   38682   38697   38724       1
   38697   38718   38736   38748       2   38697   38718   38736   38751       2
   38694   38679   38691   38709       4   38694   38712   38727   38745       4
   38691   38679   38694   38715       4   38691   38706   38727   38745       4
   38688   38670   38682   38697       2   38688   38670   38682   38700       1
   38688   38670   38682   38703       1   38685   38670   38682   38697       2
   38685   38670   38682   38700       1   38685   38670   38682   38703       1
   38682   38697   38718   38739       2   38682   38697   38718   38742       2
   38679   38691   38706   38730       4   38679   38694   38712   38733       4
   38676   38652   38670   38682       2   38676   38652   38670   38685       1
   38676   38652   38670   38688       1   38673   38652   38670   38682       2
   38673   38652   38670   38685       1   38673   38652   38670   38688       1
   38670   38682   38697   38721       2   38670   38682   38697   38724       2
   38667   38643   38661   38679       4   38664   38640   38661   38679       4
   38661   38679   38691   38709       4   38661   38679   38694   38715       4
   38658   38634   38652   38670       2   38658   38634   38652   38673       1
   38658   38634   38652   38676       1   38655   38634   38652   38670       2
   38655   38634   38652   38673       1   38655   38634   38652   38676       1
   38652   38670   38682   38700       2   38652   38670   38682   38703       2
   38646   38628   38643   38661       4   38646   38628   38643   38667       4
   38643   38661   38640   38664       4   38640   38661   38643   38667       4
   38637   38622   38631   38649       4   38634   38616   38631   38649       4
   38634   38652   38670   38685       2   38634   38652   38670   38688       2
   38631   38616   38634   38655       7   38631   38616   38634   38658       7
   38625   38613   38628   38646       4   38619   38604   38616   38631       4
   38619   38604   38616   38634       4   38616   38631   38622   38637       4
   38616   38634   38652   38673       8   38616   38634   38652   38676       8
   38613   38625   38640   38664       4   38613   38628   38643   38667       4
   38610   38625   38640   38664       4   38607   38595   38604   38619       4
   38607   38622   38631   38649       4   38604   38616   38631   38649       4
   38604   38616   38634   38655       7   38604   38616   38634   38658       7
   38601   38613   38628   38646       4   38598   38607   38622   38637       4
   38595   38607   38622   38637       4   38592   38595   38604   38619       4
   38964   38949   38961   38967       1   38964   38949   38961   38970       1
   38964   38949   38961   38973       1   38958   38949   38961   38967       1
   38958   38949   38961   38970       1   38958   38949   38961   38973       1
   38955   38946   38949   38958       1   38955   38946   38949   38961       2
   38955   38946   38949   38964       1   38952   38946   38949   38958       1
   38952   38946   38949   38961       2   38952   38946   38949   38964       1
   38946   38949   38961   38967       2   38946   38949   38961   38970       2
   38946   38949   38961   38973       2   38943   38928   38946   38949       2
   38943   38928   38946   38952       1   38943   38928   38946   38955       1
   38940   38928   38946   38949       2   38940   38928   38946   38952       1
   38940   38928   38946   38955       1   38934   38910   38928   38940       1
   38934   38910   38928   38943       1   38934   38910   38928   38946       2
   38931   38910   38928   38940       1   38931   38910   38928   38943       1
   38931   38910   38928   38946       2   38928   38946   38949   38958       2
   38928   38946   38949   38964       2   38925   38904   38919   38937       4
   38922   38898   38919   38937       4   38916   38889   38910   38928       2
   38916   38889   38910   38931       1   38916   38889   38910   38934       1
   38913   38889   38910   38928       2   38913   38889   38910   38931       1
   38913   38889   38910   38934       1   38910   38928   38946   38952       2
   38910   38928   38946   38955       2   38907   38886   38904   38919       4
   38907   38886   38904   38925       4   38904   38919   38898   38922       4
   38901   38883   38898   38919       4   38901   38883   38898   38922       4
   38898   38919   38904   38925       4   38895   38874   38889   38910       2
   38895   38874   38889   38913       1   38895   38874   38889   38916       1
   38892   38874   38889   38910       2   38892   38874   38889   38913       1
   38892   38874   38889   38916       1   38889   38910   38928   38940       2
   38889   38910   38928   38943       2   38886   38871   38883   38901       4
   38886   38904   38919   38937       4   38883   38871   38886   38907       4
   38883   38898   38919   38937       4   38880   38862   38874   38889       2
   38880   38862   38874   38892       1   38880   38862   38874   38895       1
   38877   38862   38874   38889       2   38877   38862   38874   38892       1
   38877   38862   38874   38895       1   38874   38889   38910   38931       2
   38874   38889   38910   38934       2   38871   38883   38898   38922       4
   38871   38886   38904   38925       4   38868   38844   38862   38874       2
   38868   38844   38862   38877       1   38868   38844   38862   38880       1
   38865   38844   38862   38874       2   38865   38844   38862   38877       1
   38865   38844   38862   38880       1   38862   38874   38889   38913       2
   38862   38874   38889   38916       2   38859   38835   38853   38871       4
   38856   38832   38853   38871       4   38853   38871   38883   38901       4
   38853   38871   38886   38907       4   38850   38826   38844   38862       2
   38850   38826   38844   38865       1   38850   38826   38844   38868       1
   38847   38826   38844   38862       2   38847   38826   38844   38865       1
   38847   38826   38844   38868       1   38844   38862   38874   38892       2
   38844   38862   38874   38895       2   38838   38820   38835   38853       4
   38838   38820   38835   38859       4   38835   38853   38832   38856       4
   38832   38853   38835   38859       4   38829   38814   38823   38841       4
   38826   38808   38823   38841       4   38826   38844   38862   38877       2
   38826   38844   38862   38880       2   38823   38808   38826   38847       7
   38823   38808   38826   38850       7   38817   38805   38820   38838       4
   38811   38796   38808   38823       4   38811   38796   38808   38826       4
   38808   38823   38814   38829       4   38808   38826   38844   38865       8
   38808   38826   38844   38868       8   38805   38817   38832   38856       4
   38805   38820   38835   38859       4   38802   38817   38832   38856       4
   38799   38787   38796   38811       4   38799   38814   38823   38841       4
   38796   38808   38823   38841       4   38796   38808   38826   38847       7
   38796   38808   38826   38850       7   38793   38805   38820   38838       4
   38790   38799   38814   38829       4   38787   38799   38814   38829       4
   38784   38787   38796   38811       4   39156   39141   39153   39159       1
   39156   39141   39153   39162       1   39156   39141   39153   39165       1
   39150   39141   39153   39159       1   39150   39141   39153   39162       1
   39150   39141   39153   39165       1   39147   39138   39141   39150       1
   39147   39138   39141   39153       2   39147   39138   39141   39156       1
   39144   39138   39141   39150       1   39144   39138   39141   39153       2
   39144   39138   39141   39156       1   39138   39141   39153   39159       2
   39138   39141   39153   39162       2   39138   39141   39153   39165       2
   39135   39120   39138   39141       2   39135   39120   39138   39144       1
   39135   39120   39138   39147       1   39132   39120   39138   39141       2
   39132   39120   39138   39144       1   39132   39120   39138   39147       1
   39126   39102   39120   39132       1   39126   39102   39120   39135       1
   39126   39102   39120   39138       2   39123   39102   39120   39132       1
   39123   39102   39120   39135       1   39123   39102   39120   39138       2
   39120   39138   39141   39150       2   39120   39138   39141   39156       2
   39117   39096   39111   39129       4   39114   39090   39111   39129       4
   39108   39081   39102   39120       2   39108   39081   39102   39123       1
   39108   39081   39102   39126       1   39105   39081   39102   39120       2
   39105   39081   39102   39123       1   39105   39081   39102   39126       1
   39102   39120   39138   39144       2   39102   39120   39138   39147       2
   39099   39078   39096   39111       4   39099   39078   39096   39117       4
   39096   39111   39090   39114       4   39093   39075   39090   39111       4
   39093   39075   39090   39114       4   39090   39111   39096   39117       4
   39087   39066   39081   39102       2   39087   39066   39081   39105       1
   39087   39066   39081   39108       1   39084   39066   39081   39102       2
   39084   39066   39081   39105       1   39084   39066   39081   39108       1
   39081   39102   39120   39132       2   39081   39102   39120   39135       2
   39078   39063   39075   39093       4   39078   39096   39111   39129       4
   39075   39063   39078   39099       4   39075   39090   39111   39129       4
   39072   39054   39066   39081       2   39072   39054   39066   39084       1
   39072   39054   39066   39087       1   39069   39054   39066   39081       2
   39069   39054   39066   39084       1   39069   39054   39066   39087       1
   39066   39081   39102   39123       2   39066   39081   39102   39126       2
   39063   39075   39090   39114       4   39063   39078   39096   39117       4
   39060   39036   39054   39066       2   39060   39036   39054   39069       1
   39060   39036   39054   39072       1   39057   39036   39054   39066       2
   39057   39036   39054   39069       1   39057   39036   39054   39072       1
   39054   39066   39081   39105       2   39054   39066   39081   39108       2
   39051   39027   39045   39063       4   39048   39024   39045   39063       4
   39045   39063   39075   39093       4   39045   39063   39078   39099       4
   39042   39018   39036   39054       2   39042   39018   39036   39057       1
   39042   39018   39036   39060       1   39039   39018   39036   39054       2
   39039   39018   39036   39057       1   39039   39018   39036   39060       1
   39036   39054   39066   39084       2   39036   39054   39066   39087       2
   39030   39012   39027   39045       4   39030   39012   39027   39051       4
   39027   39045   39024   39048       4   39024   39045   39027   39051       4
   39021   39006   39015   39033       4   39018   39000   39015   39033       4
   39018   39036   39054   39069       2   39018   39036   39054   39072       2
   39015   39000   39018   39039       7   39015   39000   39018   39042       7
   39009   38997   39012   39030       4   39003   38988   39000   39015       4
   39003   38988   39000   39018       4   39000   39015   39006   39021       4
   39000   39018   39036   39057       8   39000   39018   39036   39060       8
   38997   39009   39024   39048       4   38997   39012   39027   39051       4
   38994   39009   39024   39048       4   38991   38979   38988   39003       4
   38991   39006   39015   39033       4   38988   39000   39015   39033       4
   38988   39000   39018   39039       7   38988   39000   39018   39042       7
   38985   38997   39012   39030       4   38982   38991   39006   39021       4
   38979   38991   39006   39021       4   38976   38979   38988   39003       4
   39348   39333   39345   39351       1   39348   39333   39345   39354       1
   39348   39333   39345   39357       1   39342   39333   39345   39351       1
   39342   39333   39345   39354       1   39342   39333   39345   39357       1
   39339   39330   39333   39342       1   39339   39330   39333   39345       2
   39339   39330   39333   39348       1   39336   39330   39333   39342       1
   39336   39330   39333   39345       2   39336   39330   39333   39348       1
   39330   39333   39345   39351       2   39330   39333   39345   39354       2
   39330   39333   39345   39357       2   39327   39312   39330   39333       2
   39327   39312   39330   39336       1   39327   39312   39330   39339       1
   39324   39312   39330   39333       2   39324   39312   39330   39336       1
   39324   39312   39330   39339       1   39318   39294   39312   39324       1
   39318   39294   39312   39327       1   39318   39294   39312   39330       2
   39315   39294   39312   39324       1   39315   39294   39312   39327       1
   39315   39294   39312   39330       2   39312   39330   39333   39342       2
   39312   39330   39333   39348       2   39309   39288   39303   39321       4
   39306   39282   39303   39321       4   39300   39273   39294   39312       2
   39300   39273   39294   39315       1   39300   39273   39294   39318       1
   39297   39273   39294   39312       2   39297   39273   39294   39315       1
   39297   39273   39294   39318       1   39294   39312   39330   39336       2
   39294   39312   39330   39339       2   39291   39270   39288   39303       4
   39291   39270   39288   39309       4   39288   39303   39282   39306       4
   39285   39267   39282   39303       4   39285   39267   39282   39306       4
   39282   39303   39288   39309       4   39279   39258   39273   39294       2
   39279   39258   39273   39297       1   39279   39258   39273   39300       1
   39276   39258   39273   39294       2   39276   39258   39273   39297       1
   39276   39258   39273   39300       1   39273   39294   39312   39324       2
   39273   39294   39312   39327       2   39270   39255   39267   39285       4
   39270   39288   39303   39321       4   39267   39255   39270   39291       4
   39267   39282   39303   39321       4   39264   39246   39258   39273       2
   39264   39246   39258   39276       1   39264   39246   39258   39279       1
   39261   39246   39258   39273       2   39261   39246   39258   39276       1
   39261   39246   39258   39279       1   39258   39273   39294   39315       2
   39258   39273   39294   39318       2   39255   39267   39282   39306       4
   39255   39270   39288   39309       4   39252   39228   39246   39258       2
   39252   39228   39246   39261       1   39252   39228   39246   39264       1
   39249   39228   39246   39258       2   39249   39228   39246   39261       1
   39249   39228   39246   39264       1   39246   39258   39273   39297       2
   39246   39258   39273   39300       2   39243   39219   39237   39255       4
   39240   39216   39237   39255       4   39237   39255   39267   39285       4
   39237   39255   39270   39291       4   39234   39210   39228   39246       2
   39234   39210   39228   39249       1   39234   39210   39228   39252       1
   39231   39210   39228   39246       2   39231   39210   39228   39249       1
   39231   39210   39228   39252       1   39228   39246   39258   39276       2
   39228   39246   39258   39279       2   39222   39204   39219   39237       4
   39222   39204   39219   39243       4   39219   39237   39216   39240       4
   39216   39237   39219   39243       4   39213   39198   39207   39225       4
   39210   39192   39207   39225       4   39210   39228   39246   39261       2
   39210   39228   39246   39264       2   39207   39192   39210   39231       7
   39207   39192   39210   39234       7   39201   39189   39204   39222       4
   39195   39180   39192   39207       4   39195   39180   39192   39210       4
   39192   39207   39198   39213       4   39192   39210   39228   39249       8
   39192   39210   39228   39252       8   39189   39201   39216   39240       4
   39189   39204   39219   39243       4   39186   39201   39216   39240       4
   39183   39171   39180   39195       4   39183   39198   39207   39225       4
   39180   39192   39207   39225       4   39180   39192   39210   39231       7
   39180   39192   39210   39234       7   39177   39189   39204   39222       4
   39174   39183   39198   39213       4   39171   39183   39198   39213       4
   39168   39171   39180   39195       4   39540   39525   39537   39543       1
   39540   39525   39537   39546       1   39540   39525   39537   39549       1
   39534   39525   39537   39543       1   39534   39525   39537   39546       1
   39534   39525   39537   39549       1   39531   39522   39525   39534       1
   39531   39522   39525   39537       2   39531   39522   39525   39540       1
   39528   39522   39525   39534       1   39528   39522   39525   39537       2
   39528   39522   39525   39540       1   39522   39525   39537   39543       2
   39522   39525   39537   39546       2   39522   39525   39537   39549       2
   39519   39504   39522   39525       2   39519   39504   39522   39528       1
   39519   39504   39522   39531       1   39516   39504   39522   39525       2
   39516   39504   39522   39528       1   39516   39504   39522   39531       1
   39510   39486   39504   39516       1   39510   39486   39504   39519       1
   39510   39486   39504   39522       2   39507   39486   39504   39516       1
   39507   39486   39504   39519       1   39507   39486   39504   39522       2
   39504   39522   39525   39534       2   39504   39522   39525   39540       2
   39501   39480   39495   39513       4   39498   39474   39495   39513       4
   39492   39465   39486   39504       2   39492   39465   39486   39507       1
   39492   39465   39486   39510       1   39489   39465   39486   39504       2
   39489   39465   39486   39507       1   39489   39465   39486   39510       1
   39486   39504   39522   39528       2   39486   39504   39522   39531       2
   39483   39462   39480   39495       4   39483   39462   39480   39501       4
   39480   39495   39474   39498       4   39477   39459   39474   39495       4
   39477   39459   39474   39498       4   39474   39495   39480   39501       4
   39471   39450   39465   39486       2   39471   39450   39465   39489       1
   39471   39450   39465   39492       1   39468   39450   39465   39486       2
   39468   39450   39465   39489       1   39468   39450   39465   39492       1
   39465   39486   39504   39516       2   39465   39486   39504   39519       2
   39462   39447   39459   39477       4   39462   39480   39495   39513       4
   39459   39447   39462   39483       4   39459   39474   39495   39513       4
   39456   39438   39450   39465       2   39456   39438   39450   39468       1
   39456   39438   39450   39471       1   39453   39438   39450   39465       2
   39453   39438   39450   39468       1   39453   39438   39450   39471       1
   39450   39465   39486   39507       2   39450   39465   39486   39510       2
   39447   39459   39474   39498       4   39447   39462   39480   39501       4
   39444   39420   39438   39450       2   39444   39420   39438   39453       1
   39444   39420   39438   39456       1   39441   39420   39438   39450       2
   39441   39420   39438   39453       1   39441   39420   39438   39456       1
   39438   39450   39465   39489       2   39438   39450   39465   39492       2
   39435   39411   39429   39447       4   39432   39408   39429   39447       4
   39429   39447   39459   39477       4   39429   39447   39462   39483       4
   39426   39402   39420   39438       2   39426   39402   39420   39441       1
   39426   39402   39420   39444       1   39423   39402   39420   39438       2
   39423   39402   39420   39441       1   39423   39402   39420   39444       1
   39420   39438   39450   39468       2   39420   39438   39450   39471       2
   39414   39396   39411   39429       4   39414   39396   39411   39435       4
   39411   39429   39408   39432       4   39408   39429   39411   39435       4
   39405   39390   39399   39417       4   39402   39384   39399   39417       4
   39402   39420   39438   39453       2   39402   39420   39438   39456       2
   39399   39384   39402   39423       7   39399   39384   39402   39426       7
   39393   39381   39396   39414       4   39387   39372   39384   39399       4
   39387   39372   39384   39402       4   39384   39399   39390   39405       4
   39384   39402   39420   39441       8   39384   39402   39420   39444       8
   39381   39393   39408   39432       4   39381   39396   39411   39435       4
   39378   39393   39408   39432       4   39375   39363   39372   39387       4
   39375   39390   39399   39417       4   39372   39384   39399   39417       4
   39372   39384   39402   39423       7   39372   39384   39402   39426       7
   39369   39381   39396   39414       4   39366   39375   39390   39405       4
   39363   39375   39390   39405       4   39360   39363   39372   39387       4
   39732   39717   39729   39735       1   39732   39717   39729   39738       1
   39732   39717   39729   39741       1   39726   39717   39729   39735       1
   39726   39717   39729   39738       1   39726   39717   39729   39741       1
   39723   39714   39717   39726       1   39723   39714   39717   39729       2
   39723   39714   39717   39732       1   39720   39714   39717   39726       1
   39720   39714   39717   39729       2   39720   39714   39717   39732       1
   39714   39717   39729   39735       2   39714   39717   39729   39738       2
   39714   39717   39729   39741       2   39711   39696   39714   39717       2
   39711   39696   39714   39720       1   39711   39696   39714   39723       1
   39708   39696   39714   39717       2   39708   39696   39714   39720       1
   39708   39696   39714   39723       1   39702   39678   39696   39708       1
   39702   39678   39696   39711       1   39702   39678   39696   39714       2
   39699   39678   39696   39708       1   39699   39678   39696   39711       1
   39699   39678   39696   39714       2   39696   39714   39717   39726       2
   39696   39714   39717   39732       2   39693   39672   39687   39705       4
   39690   39666   39687   39705       4   39684   39657   39678   39696       2
   39684   39657   39678   39699       1   39684   39657   39678   39702       1
   39681   39657   39678   39696       2   39681   39657   39678   39699       1
   39681   39657   39678   39702       1   39678   39696   39714   39720       2
   39678   39696   39714   39723       2   39675   39654   39672   39687       4
   39675   39654   39672   39693       4   39672   39687   39666   39690       4
   39669   39651   39666   39687       4   39669   39651   39666   39690       4
   39666   39687   39672   39693       4   39663   39642   39657   39678       2
   39663   39642   39657   39681       1   39663   39642   39657   39684       1
   39660   39642   39657   39678       2   39660   39642   39657   39681       1
   39660   39642   39657   39684       1   39657   39678   39696   39708       2
   39657   39678   39696   39711       2   39654   39639   39651   39669       4
   39654   39672   39687   39705       4   39651   39639   39654   39675       4
   39651   39666   39687   39705       4   39648   39630   39642   39657       2
   39648   39630   39642   39660       1   39648   39630   39642   39663       1
   39645   39630   39642   39657       2   39645   39630   39642   39660       1
   39645   39630   39642   39663       1   39642   39657   39678   39699       2
   39642   39657   39678   39702       2   39639   39651   39666   39690       4
   39639   39654   39672   39693       4   39636   39612   39630   39642       2
   39636   39612   39630   39645       1   39636   39612   39630   39648       1
   39633   39612   39630   39642       2   39633   39612   39630   39645       1
   39633   39612   39630   39648       1   39630   39642   39657   39681       2
   39630   39642   39657   39684       2   39627   39603   39621   39639       4
   39624   39600   39621   39639       4   39621   39639   39651   39669       4
   39621   39639   39654   39675       4   39618   39594   39612   39630       2
   39618   39594   39612   39633       1   39618   39594   39612   39636       1
   39615   39594   39612   39630       2   39615   39594   39612   39633       1
   39615   39594   39612   39636       1   39612   39630   39642   39660       2
   39612   39630   39642   39663       2   39606   39588   39603   39621       4
   39606   39588   39603   39627       4   39603   39621   39600   39624       4
   39600   39621   39603   39627       4   39597   39582   39591   39609       4
   39594   39576   39591   39609       4   39594   39612   39630   39645       2
   39594   39612   39630   39648       2   39591   39576   39594   39615       7
   39591   39576   39594   39618       7   39585   39573   39588   39606       4
   39579   39564   39576   39591       4   39579   39564   39576   39594       4
   39576   39591   39582   39597       4   39576   39594   39612   39633       8
   39576   39594   39612   39636       8   39573   39585   39600   39624       4
   39573   39588   39603   39627       4   39570   39585   39600   39624       4
   39567   39555   39564   39579       4   39567   39582   39591   39609       4
   39564   39576   39591   39609       4   39564   39576   39594   39615       7
   39564   39576   39594   39618       7   39561   39573   39588   39606       4
   39558   39567   39582   39597       4   39555   39567   39582   39597       4
   39552   39555   39564   39579       4   39924   39909   39921   39927       1
   39924   39909   39921   39930       1   39924   39909   39921   39933       1
   39918   39909   39921   39927       1   39918   39909   39921   39930       1
   39918   39909   39921   39933       1   39915   39906   39909   39918       1
   39915   39906   39909   39921       2   39915   39906   39909   39924       1
   39912   39906   39909   39918       1   39912   39906   39909   39921       2
   39912   39906   39909   39924       1   39906   39909   39921   39927       2
   39906   39909   39921   39930       2   39906   39909   39921   39933       2
   39903   39888   39906   39909       2   39903   39888   39906   39912       1
   39903   39888   39906   39915       1   39900   39888   39906   39909       2
   39900   39888   39906   39912       1   39900   39888   39906   39915       1
   39894   39870   39888   39900       1   39894   39870   39888   39903       1
   39894   39870   39888   39906       2   39891   39870   39888   39900       1
   39891   39870   39888   39903       1   39891   39870   39888   39906       2
   39888   39906   39909   39918       2   39888   39906   39909   39924       2
   39885   39864   39879   39897       4   39882   39858   39879   39897       4
   39876   39849   39870   39888       2   39876   39849   39870   39891       1
   39876   39849   39870   39894       1   39873   39849   39870   39888       2
   39873   39849   39870   39891       1   39873   39849   39870   39894       1
   39870   39888   39906   39912       2   39870   39888   39906   39915       2
   39867   39846   39864   39879       4   39867   39846   39864   39885       4
   39864   39879   39858   39882       4   39861   39843   39858   39879       4
   39861   39843   39858   39882       4   39858   39879   39864   39885       4
   39855   39834   39849   39870       2   39855   39834   39849   39873       1
   39855   39834   39849   39876       1   39852   39834   39849   39870       2
   39852   39834   39849   39873       1   39852   39834   39849   39876       1
   39849   39870   39888   39900       2   39849   39870   39888   39903       2
   39846   39831   39843   39861       4   39846   39864   39879   39897       4
   39843   39831   39846   39867       4   39843   39858   39879   39897       4
   39840   39822   39834   39849       2   39840   39822   39834   39852       1
   39840   39822   39834   39855       1   39837   39822   39834   39849       2
   39837   39822   39834   39852       1   39837   39822   39834   39855       1
   39834   39849   39870   39891       2   39834   39849   39870   39894       2
   39831   39843   39858   39882       4   39831   39846   39864   39885       4
   39828   39804   39822   39834       2   39828   39804   39822   39837       1
   39828   39804   39822   39840       1   39825   39804   39822   39834       2
   39825   39804   39822   39837       1   39825   39804   39822   39840       1
   39822   39834   39849   39873       2   39822   39834   39849   39876       2
   39819   39795   39813   39831       4   39816   39792   39813   39831       4
   39813   39831   39843   39861       4   39813   39831   39846   39867       4
   39810   39786   39804   39822       2   39810   39786   39804   39825       1
   39810   39786   39804   39828       1   39807   39786   39804   39822       2
   39807   39786   39804   39825       1   39807   39786   39804   39828       1
   39804   39822   39834   39852       2   39804   39822   39834   39855       2
   39798   39780   39795   39813       4   39798   39780   39795   39819       4
   39795   39813   39792   39816       4   39792   39813   39795   39819       4
   39789   39774   39783   39801       4   39786   39768   39783   39801       4
   39786   39804   39822   39837       2   39786   39804   39822   39840       2
   39783   39768   39786   39807       7   39783   39768   39786   39810       7
   39777   39765   39780   39798       4   39771   39756   39768   39783       4
   39771   39756   39768   39786       4   39768   39783   39774   39789       4
   39768   39786   39804   39825       8   39768   39786   39804   39828       8
   39765   39777   39792   39816       4   39765   39780   39795   39819       4
   39762   39777   39792   39816       4   39759   39747   39756   39771       4
   39759   39774   39783   39801       4   39756   39768   39783   39801       4
   39756   39768   39786   39807       7   39756   39768   39786   39810       7
   39753   39765   39780   39798       4   39750   39759   39774   39789       4
   39747   39759   39774   39789       4   39744   39747   39756   39771       4
   40116   40101   40113   40119       1   40116   40101   40113   40122       1
   40116   40101   40113   40125       1   40110   40101   40113   40119       1
   40110   40101   40113   40122       1   40110   40101   40113   40125       1
   40107   40098   40101   40110       1   40107   40098   40101   40113       2
   40107   40098   40101   40116       1   40104   40098   40101   40110       1
   40104   40098   40101   40113       2   40104   40098   40101   40116       1
   40098   40101   40113   40119       2   40098   40101   40113   40122       2
   40098   40101   40113   40125       2   40095   40080   40098   40101       2
   40095   40080   40098   40104       1   40095   40080   40098   40107       1
   40092   40080   40098   40101       2   40092   40080   40098   40104       1
   40092   40080   40098   40107       1   40086   40062   40080   40092       1
   40086   40062   40080   40095       1   40086   40062   40080   40098       2
   40083   40062   40080   40092       1   40083   40062   40080   40095       1
   40083   40062   40080   40098       2   40080   40098   40101   40110       2
   40080   40098   40101   40116       2   40077   40056   40071   40089       4
   40074   40050   40071   40089       4   40068   40041   40062   40080       2
   40068   40041   40062   40083       1   40068   40041   40062   40086       1
   40065   40041   40062   40080       2   40065   40041   40062   40083       1
   40065   40041   40062   40086       1   40062   40080   40098   40104       2
   40062   40080   40098   40107       2   40059   40038   40056   40071       4
   40059   40038   40056   40077       4   40056   40071   40050   40074       4
   40053   40035   40050   40071       4   40053   40035   40050   40074       4
   40050   40071   40056   40077       4   40047   40026   40041   40062       2
   40047   40026   40041   40065       1   40047   40026   40041   40068       1
   40044   40026   40041   40062       2   40044   40026   40041   40065       1
   40044   40026   40041   40068       1   40041   40062   40080   40092       2
   40041   40062   40080   40095       2   40038   40023   40035   40053       4
   40038   40056   40071   40089       4   40035   40023   40038   40059       4
   40035   40050   40071   40089       4   40032   40014   40026   40041       2
   40032   40014   40026   40044       1   40032   40014   40026   40047       1
   40029   40014   40026   40041       2   40029   40014   40026   40044       1
   40029   40014   40026   40047       1   40026   40041   40062   40083       2
   40026   40041   40062   40086       2   40023   40035   40050   40074       4
   40023   40038   40056   40077       4   40020   39996   40014   40026       2
   40020   39996   40014   40029       1   40020   39996   40014   40032       1
   40017   39996   40014   40026       2   40017   39996   40014   40029       1
   40017   39996   40014   40032       1   40014   40026   40041   40065       2
   40014   40026   40041   40068       2   40011   39987   40005   40023       4
   40008   39984   40005   40023       4   40005   40023   40035   40053       4
   40005   40023   40038   40059       4   40002   39978   39996   40014       2
   40002   39978   39996   40017       1   40002   39978   39996   40020       1
   39999   39978   39996   40014       2   39999   39978   39996   40017       1
   39999   39978   39996   40020       1   39996   40014   40026   40044       2
   39996   40014   40026   40047       2   39990   39972   39987   40005       4
   39990   39972   39987   40011       4   39987   40005   39984   40008       4
   39984   40005   39987   40011       4   39981   39966   39975   39993       4
   39978   39960   39975   39993       4   39978   39996   40014   40029       2
   39978   39996   40014   40032       2   39975   39960   39978   39999       7
   39975   39960   39978   40002       7   39969   39957   39972   39990       4
   39963   39948   39960   39975       4   39963   39948   39960   39978       4
   39960   39975   39966   39981       4   39960   39978   39996   40017       8
   39960   39978   39996   40020       8   39957   39969   39984   40008       4
   39957   39972   39987   40011       4   39954   39969   39984   40008       4
   39951   39939   39948   39963       4   39951   39966   39975   39993       4
   39948   39960   39975   39993       4   39948   39960   39978   39999       7
   39948   39960   39978   40002       7   39945   39957   39972   39990       4
   39942   39951   39966   39981       4   39939   39951   39966   39981       4
   39936   39939   39948   39963       4   40308   40293   40305   40311       1
   40308   40293   40305   40314       1   40308   40293   40305   40317       1
   40302   40293   40305   40311       1   40302   40293   40305   40314       1
   40302   40293   40305   40317       1   40299   40290   40293   40302       1
   40299   40290   40293   40305       2   40299   40290   40293   40308       1
   40296   40290   40293   40302       1   40296   40290   40293   40305       2
   40296   40290   40293   40308       1   40290   40293   40305   40311       2
   40290   40293   40305   40314       2   40290   40293   40305   40317       2
   40287   40272   40290   40293       2   40287   40272   40290   40296       1
   40287   40272   40290   40299       1   40284   40272   40290   40293       2
   40284   40272   40290   40296       1   40284   40272   40290   40299       1
   40278   40254   40272   40284       1   40278   40254   40272   40287       1
   40278   40254   40272   40290       2   40275   40254   40272   40284       1
   40275   40254   40272   40287       1   40275   40254   40272   40290       2
   40272   40290   40293   40302       2   40272   40290   40293   40308       2
   40269   40248   40263   40281       4   40266   40242   40263   40281       4
   40260   40233   40254   40272       2   40260   40233   40254   40275       1
   40260   40233   40254   40278       1   40257   40233   40254   40272       2
   40257   40233   40254   40275       1   40257   40233   40254   40278       1
   40254   40272   40290   40296       2   40254   40272   40290   40299       2
   40251   40230   40248   40263       4   40251   40230   40248   40269       4
   40248   40263   40242   40266       4   40245   40227   40242   40263       4
   40245   40227   40242   40266       4   40242   40263   40248   40269       4
   40239   40218   40233   40254       2   40239   40218   40233   40257       1
   40239   40218   40233   40260       1   40236   40218   40233   40254       2
   40236   40218   40233   40257       1   40236   40218   40233   40260       1
   40233   40254   40272   40284       2   40233   40254   40272   40287       2
   40230   40215   40227   40245       4   40230   40248   40263   40281       4
   40227   40215   40230   40251       4   40227   40242   40263   40281       4
   40224   40206   40218   40233       2   40224   40206   40218   40236       1
   40224   40206   40218   40239       1   40221   40206   40218   40233       2
   40221   40206   40218   40236       1   40221   40206   40218   40239       1
   40218   40233   40254   40275       2   40218   40233   40254   40278       2
   40215   40227   40242   40266       4   40215   40230   40248   40269       4
   40212   40188   40206   40218       2   40212   40188   40206   40221       1
   40212   40188   40206   40224       1   40209   40188   40206   40218       2
   40209   40188   40206   40221       1   40209   40188   40206   40224       1
   40206   40218   40233   40257       2   40206   40218   40233   40260       2
   40203   40179   40197   40215       4   40200   40176   40197   40215       4
   40197   40215   40227   40245       4   40197   40215   40230   40251       4
   40194   40170   40188   40206       2   40194   40170   40188   40209       1
   40194   40170   40188   40212       1   40191   40170   40188   40206       2
   40191   40170   40188   40209       1   40191   40170   40188   40212       1
   40188   40206   40218   40236       2   40188   40206   40218   40239       2
   40182   40164   40179   40197       4   40182   40164   40179   40203       4
   40179   40197   40176   40200       4   40176   40197   40179   40203       4
   40173   40158   40167   40185       4   40170   40152   40167   40185       4
   40170   40188   40206   40221       2   40170   40188   40206   40224       2
   40167   40152   40170   40191       7   40167   40152   40170   40194       7
   40161   40149   40164   40182       4   40155   40140   40152   40167       4
   40155   40140   40152   40170       4   40152   40167   40158   40173       4
   40152   40170   40188   40209       8   40152   40170   40188   40212       8
   40149   40161   40176   40200       4   40149   40164   40179   40203       4
   40146   40161   40176   40200       4   40143   40131   40140   40155       4
   40143   40158   40167   40185       4   40140   40152   40167   40185       4
   40140   40152   40170   40191       7   40140   40152   40170   40194       7
   40137   40149   40164   40182       4   40134   40143   40158   40173       4
   40131   40143   40158   40173       4   40128   40131   40140   40155       4
   40500   40485   40497   40503       1   40500   40485   40497   40506       1
   40500   40485   40497   40509       1   40494   40485   40497   40503       1
   40494   40485   40497   40506       1   40494   40485   40497   40509       1
   40491   40482   40485   40494       1   40491   40482   40485   40497       2
   40491   40482   40485   40500       1   40488   40482   40485   40494       1
   40488   40482   40485   40497       2   40488   40482   40485   40500       1
   40482   40485   40497   40503       2   40482   40485   40497   40506       2
   40482   40485   40497   40509       2   40479   40464   40482   40485       2
   40479   40464   40482   40488       1   40479   40464   40482   40491       1
   40476   40464   40482   40485       2   40476   40464   40482   40488       1
   40476   40464   40482   40491       1   40470   40446   40464   40476       1
   40470   40446   40464   40479       1   40470   40446   40464   40482       2
   40467   40446   40464   40476       1   40467   40446   40464   40479       1
   40467   40446   40464   40482       2   40464   40482   40485   40494       2
   40464   40482   40485   40500       2   40461   40440   40455   40473       4
   40458   40434   40455   40473       4   40452   40425   40446   40464       2
   40452   40425   40446   40467       1   40452   40425   40446   40470       1
   40449   40425   40446   40464       2   40449   40425   40446   40467       1
   40449   40425   40446   40470       1   40446   40464   40482   40488       2
   40446   40464   40482   40491       2   40443   40422   40440   40455       4
   40443   40422   40440   40461       4   40440   40455   40434   40458       4
   40437   40419   40434   40455       4   40437   40419   40434   40458       4
   40434   40455   40440   40461       4   40431   40410   40425   40446       2
   40431   40410   40425   40449       1   40431   40410   40425   40452       1
   40428   40410   40425   40446       2   40428   40410   40425   40449       1
   40428   40410   40425   40452       1   40425   40446   40464   40476       2
   40425   40446   40464   40479       2   40422   40407   40419   40437       4
   40422   40440   40455   40473       4   40419   40407   40422   40443       4
   40419   40434   40455   40473       4   40416   40398   40410   40425       2
   40416   40398   40410   40428       1   40416   40398   40410   40431       1
   40413   40398   40410   40425       2   40413   40398   40410   40428       1
   40413   40398   40410   40431       1   40410   40425   40446   40467       2
   40410   40425   40446   40470       2   40407   40419   40434   40458       4
   40407   40422   40440   40461       4   40404   40380   40398   40410       2
   40404   40380   40398   40413       1   40404   40380   40398   40416       1
   40401   40380   40398   40410       2   40401   40380   40398   40413       1
   40401   40380   40398   40416       1   40398   40410   40425   40449       2
   40398   40410   40425   40452       2   40395   40371   40389   40407       4
   40392   40368   40389   40407       4   40389   40407   40419   40437       4
   40389   40407   40422   40443       4   40386   40362   40380   40398       2
   40386   40362   40380   40401       1   40386   40362   40380   40404       1
   40383   40362   40380   40398       2   40383   40362   40380   40401       1
   40383   40362   40380   40404       1   40380   40398   40410   40428       2
   40380   40398   40410   40431       2   40374   40356   40371   40389       4
   40374   40356   40371   40395       4   40371   40389   40368   40392       4
   40368   40389   40371   40395       4   40365   40350   40359   40377       4
   40362   40344   40359   40377       4   40362   40380   40398   40413       2
   40362   40380   40398   40416       2   40359   40344   40362   40383       7
   40359   40344   40362   40386       7   40353   40341   40356   40374       4
   40347   40332   40344   40359       4   40347   40332   40344   40362       4
   40344   40359   40350   40365       4   40344   40362   40380   40401       8
   40344   40362   40380   40404       8   40341   40353   40368   40392       4
   40341   40356   40371   40395       4   40338   40353   40368   40392       4
   40335   40323   40332   40347       4   40335   40350   40359   40377       4
   40332   40344   40359   40377       4   40332   40344   40362   40383       7
   40332   40344   40362   40386       7   40329   40341   40356   40374       4
   40326   40335   40350   40365       4   40323   40335   40350   40365       4
   40320   40323   40332   40347       4   40692   40677   40689   40695       1
   40692   40677   40689   40698       1   40692   40677   40689   40701       1
   40686   40677   40689   40695       1   40686   40677   40689   40698       1
   40686   40677   40689   40701       1   40683   40674   40677   40686       1
   40683   40674   40677   40689       2   40683   40674   40677   40692       1
   40680   40674   40677   40686       1   40680   40674   40677   40689       2
   40680   40674   40677   40692       1   40674   40677   40689   40695       2
   40674   40677   40689   40698       2   40674   40677   40689   40701       2
   40671   40656   40674   40677       2   40671   40656   40674   40680       1
   40671   40656   40674   40683       1   40668   40656   40674   40677       2
   40668   40656   40674   40680       1   40668   40656   40674   40683       1
   40662   40638   40656   40668       1   40662   40638   40656   40671       1
   40662   40638   40656   40674       2   40659   40638   40656   40668       1
   40659   40638   40656   40671       1   40659   40638   40656   40674       2
   40656   40674   40677   40686       2   40656   40674   40677   40692       2
   40653   40632   40647   40665       4   40650   40626   40647   40665       4
   40644   40617   40638   40656       2   40644   40617   40638   40659       1
   40644   40617   40638   40662       1   40641   40617   40638   40656       2
   40641   40617   40638   40659       1   40641   40617   40638   40662       1
   40638   40656   40674   40680       2   40638   40656   40674   40683       2
   40635   40614   40632   40647       4   40635   40614   40632   40653       4
   40632   40647   40626   40650       4   40629   40611   40626   40647       4
   40629   40611   40626   40650       4   40626   40647   40632   40653       4
   40623   40602   40617   40638       2   40623   40602   40617   40641       1
   40623   40602   40617   40644       1   40620   40602   40617   40638       2
   40620   40602   40617   40641       1   40620   40602   40617   40644       1
   40617   40638   40656   40668       2   40617   40638   40656   40671       2
   40614   40599   40611   40629       4   40614   40632   40647   40665       4
   40611   40599   40614   40635       4   40611   40626   40647   40665       4
   40608   40590   40602   40617       2   40608   40590   40602   40620       1
   40608   40590   40602   40623       1   40605   40590   40602   40617       2
   40605   40590   40602   40620       1   40605   40590   40602   40623       1
   40602   40617   40638   40659       2   40602   40617   40638   40662       2
   40599   40611   40626   40650       4   40599   40614   40632   40653       4
   40596   40572   40590   40602       2   40596   40572   40590   40605       1
   40596   40572   40590   40608       1   40593   40572   40590   40602       2
   40593   40572   40590   40605       1   40593   40572   40590   40608       1
   40590   40602   40617   40641       2   40590   40602   40617   40644       2
   40587   40563   40581   40599       4   40584   40560   40581   40599       4
   40581   40599   40611   40629       4   40581   40599   40614   40635       4
   40578   40554   40572   40590       2   40578   40554   40572   40593       1
   40578   40554   40572   40596       1   40575   40554   40572   40590       2
   40575   40554   40572   40593       1   40575   40554   40572   40596       1
   40572   40590   40602   40620       2   40572   40590   40602   40623       2
   40566   40548   40563   40581       4   40566   40548   40563   40587       4
   40563   40581   40560   40584       4   40560   40581   40563   40587       4
   40557   40542   40551   40569       4   40554   40536   40551   40569       4
   40554   40572   40590   40605       2   40554   40572   40590   40608       2
   40551   40536   40554   40575       7   40551   40536   40554   40578       7
   40545   40533   40548   40566       4   40539   40524   40536   40551       4
   40539   40524   40536   40554       4   40536   40551   40542   40557       4
   40536   40554   40572   40593       8   40536   40554   40572   40596       8
   40533   40545   40560   40584       4   40533   40548   40563   40587       4
   40530   40545   40560   40584       4   40527   40515   40524   40539       4
   40527   40542   40551   40569       4   40524   40536   40551   40569       4
   40524   40536   40554   40575       7   40524   40536   40554   40578       7
   40521   40533   40548   40566       4   40518   40527   40542   40557       4
   40515   40527   40542   40557       4   40512   40515   40524   40539       4
   40884   40869   40881   40887       1   40884   40869   40881   40890       1
   40884   40869   40881   40893       1   40878   40869   40881   40887       1
   40878   40869   40881   40890       1   40878   40869   40881   40893       1
   40875   40866   40869   40878       1   40875   40866   40869   40881       2
   40875   40866   40869   40884       1   40872   40866   40869   40878       1
   40872   40866   40869   40881       2   40872   40866   40869   40884       1
   40866   40869   40881   40887       2   40866   40869   40881   40890       2
   40866   40869   40881   40893       2   40863   40848   40866   40869       2
   40863   40848   40866   40872       1   40863   40848   40866   40875       1
   40860   40848   40866   40869       2   40860   40848   40866   40872       1
   40860   40848   40866   40875       1   40854   40830   40848   40860       1
   40854   40830   40848   40863       1   40854   40830   40848   40866       2
   40851   40830   40848   40860       1   40851   40830   40848   40863       1
   40851   40830   40848   40866       2   40848   40866   40869   40878       2
   40848   40866   40869   40884       2   40845   40824   40839   40857       4
   40842   40818   40839   40857       4   40836   40809   40830   40848       2
   40836   40809   40830   40851       1   40836   40809   40830   40854       1
   40833   40809   40830   40848       2   40833   40809   40830   40851       1
   40833   40809   40830   40854       1   40830   40848   40866   40872       2
   40830   40848   40866   40875       2   40827   40806   40824   40839       4
   40827   40806   40824   40845       4   40824   40839   40818   40842       4
   40821   40803   40818   40839       4   40821   40803   40818   40842       4
   40818   40839   40824   40845       4   40815   40794   40809   40830       2
   40815   40794   40809   40833       1   40815   40794   40809   40836       1
   40812   40794   40809   40830       2   40812   40794   40809   40833       1
   40812   40794   40809   40836       1   40809   40830   40848   40860       2
   40809   40830   40848   40863       2   40806   40791   40803   40821       4
   40806   40824   40839   40857       4   40803   40791   40806   40827       4
   40803   40818   40839   40857       4   40800   40782   40794   40809       2
   40800   40782   40794   40812       1   40800   40782   40794   40815       1
   40797   40782   40794   40809       2   40797   40782   40794   40812       1
   40797   40782   40794   40815       1   40794   40809   40830   40851       2
   40794   40809   40830   40854       2   40791   40803   40818   40842       4
   40791   40806   40824   40845       4   40788   40764   40782   40794       2
   40788   40764   40782   40797       1   40788   40764   40782   40800       1
   40785   40764   40782   40794       2   40785   40764   40782   40797       1
   40785   40764   40782   40800       1   40782   40794   40809   40833       2
   40782   40794   40809   40836       2   40779   40755   40773   40791       4
   40776   40752   40773   40791       4   40773   40791   40803   40821       4
   40773   40791   40806   40827       4   40770   40746   40764   40782       2
   40770   40746   40764   40785       1   40770   40746   40764   40788       1
   40767   40746   40764   40782       2   40767   40746   40764   40785       1
   40767   40746   40764   40788       1   40764   40782   40794   40812       2
   40764   40782   40794   40815       2   40758   40740   40755   40773       4
   40758   40740   40755   40779       4   40755   40773   40752   40776       4
   40752   40773   40755   40779       4   40749   40734   40743   40761       4
   40746   40728   40743   40761       4   40746   40764   40782   40797       2
   40746   40764   40782   40800       2   40743   40728   40746   40767       7
   40743   40728   40746   40770       7   40737   40725   40740   40758       4
   40731   40716   40728   40743       4   40731   40716   40728   40746       4
   40728   40743   40734   40749       4   40728   40746   40764   40785       8
   40728   40746   40764   40788       8   40725   40737   40752   40776       4
   40725   40740   40755   40779       4   40722   40737   40752   40776       4
   40719   40707   40716   40731       4   40719   40734   40743   40761       4
   40716   40728   40743   40761       4   40716   40728   40746   40767       7
   40716   40728   40746   40770       7   40713   40725   40740   40758       4
   40710   40719   40734   40749       4   40707   40719   40734   40749       4
   40704   40707   40716   40731       4   41076   41061   41073   41079       1
   41076   41061   41073   41082       1   41076   41061   41073   41085       1
   41070   41061   41073   41079       1   41070   41061   41073   41082       1
   41070   41061   41073   41085       1   41067   41058   41061   41070       1
   41067   41058   41061   41073       2   41067   41058   41061   41076       1
   41064   41058   41061   41070       1   41064   41058   41061   41073       2
   41064   41058   41061   41076       1   41058   41061   41073   41079       2
   41058   41061   41073   41082       2   41058   41061   41073   41085       2
   41055   41040   41058   41061       2   41055   41040   41058   41064       1
   41055   41040   41058   41067       1   41052   41040   41058   41061       2
   41052   41040   41058   41064       1   41052   41040   41058   41067       1
   41046   41022   41040   41052       1   41046   41022   41040   41055       1
   41046   41022   41040   41058       2   41043   41022   41040   41052       1
   41043   41022   41040   41055       1   41043   41022   41040   41058       2
   41040   41058   41061   41070       2   41040   41058   41061   41076       2
   41037   41016   41031   41049       4   41034   41010   41031   41049       4
   41028   41001   41022   41040       2   41028   41001   41022   41043       1
   41028   41001   41022   41046       1   41025   41001   41022   41040       2
   41025   41001   41022   41043       1   41025   41001   41022   41046       1
   41022   41040   41058   41064       2   41022   41040   41058   41067       2
   41019   40998   41016   41031       4   41019   40998   41016   41037       4
   41016   41031   41010   41034       4   41013   40995   41010   41031       4
   41013   40995   41010   41034       4   41010   41031   41016   41037       4
   41007   40986   41001   41022       2   41007   40986   41001   41025       1
   41007   40986   41001   41028       1   41004   40986   41001   41022       2
   41004   40986   41001   41025       1   41004   40986   41001   41028       1
   41001   41022   41040   41052       2   41001   41022   41040   41055       2
   40998   40983   40995   41013       4   40998   41016   41031   41049       4
   40995   40983   40998   41019       4   40995   41010   41031   41049       4
   40992   40974   40986   41001       2   40992   40974   40986   41004       1
   40992   40974   40986   41007       1   40989   40974   40986   41001       2
   40989   40974   40986   41004       1   40989   40974   40986   41007       1
   40986   41001   41022   41043       2   40986   41001   41022   41046       2
   40983   40995   41010   41034       4   40983   40998   41016   41037       4
   40980   40956   40974   40986       2   40980   40956   40974   40989       1
   40980   40956   40974   40992       1   40977   40956   40974   40986       2
   40977   40956   40974   40989       1   40977   40956   40974   40992       1
   40974   40986   41001   41025       2   40974   40986   41001   41028       2
   40971   40947   40965   40983       4   40968   40944   40965   40983       4
   40965   40983   40995   41013       4   40965   40983   40998   41019       4
   40962   40938   40956   40974       2   40962   40938   40956   40977       1
   40962   40938   40956   40980       1   40959   40938   40956   40974       2
   40959   40938   40956   40977       1   40959   40938   40956   40980       1
   40956   40974   40986   41004       2   40956   40974   40986   41007       2
   40950   40932   40947   40965       4   40950   40932   40947   40971       4
   40947   40965   40944   40968       4   40944   40965   40947   40971       4
   40941   40926   40935   40953       4   40938   40920   40935   40953       4
   40938   40956   40974   40989       2   40938   40956   40974   40992       2
   40935   40920   40938   40959       7   40935   40920   40938   40962       7
   40929   40917   40932   40950       4   40923   40908   40920   40935       4
   40923   40908   40920   40938       4   40920   40935   40926   40941       4
   40920   40938   40956   40977       8   40920   40938   40956   40980       8
   40917   40929   40944   40968       4   40917   40932   40947   40971       4
   40914   40929   40944   40968       4   40911   40899   40908   40923       4
   40911   40926   40935   40953       4   40908   40920   40935   40953       4
   40908   40920   40938   40959       7   40908   40920   40938   40962       7
   40905   40917   40932   40950       4   40902   40911   40926   40941       4
   40899   40911   40926   40941       4   40896   40899   40908   40923       4
   41268   41253   41265   41271       1   41268   41253   41265   41274       1
   41268   41253   41265   41277       1   41262   41253   41265   41271       1
   41262   41253   41265   41274       1   41262   41253   41265   41277       1
   41259   41250   41253   41262       1   41259   41250   41253   41265       2
   41259   41250   41253   41268       1   41256   41250   41253   41262       1
   41256   41250   41253   41265       2   41256   41250   41253   41268       1
   41250   41253   41265   41271       2   41250   41253   41265   41274       2
   41250   41253   41265   41277       2   41247   41232   41250   41253       2
   41247   41232   41250   41256       1   41247   41232   41250   41259       1
   41244   41232   41250   41253       2   41244   41232   41250   41256       1
   41244   41232   41250   41259       1   41238   41214   41232   41244       1
   41238   41214   41232   41247       1   41238   41214   41232   41250       2
   41235   41214   41232   41244       1   41235   41214   41232   41247       1
   41235   41214   41232   41250       2   41232   41250   41253   41262       2
   41232   41250   41253   41268       2   41229   41208   41223   41241       4
   41226   41202   41223   41241       4   41220   41193   41214   41232       2
   41220   41193   41214   41235       1   41220   41193   41214   41238       1
   41217   41193   41214   41232       2   41217   41193   41214   41235       1
   41217   41193   41214   41238       1   41214   41232   41250   41256       2
   41214   41232   41250   41259       2   41211   41190   41208   41223       4
   41211   41190   41208   41229       4   41208   41223   41202   41226       4
   41205   41187   41202   41223       4   41205   41187   41202   41226       4
   41202   41223   41208   41229       4   41199   41178   41193   41214       2
   41199   41178   41193   41217       1   41199   41178   41193   41220       1
   41196   41178   41193   41214       2   41196   41178   41193   41217       1
   41196   41178   41193   41220       1   41193   41214   41232   41244       2
   41193   41214   41232   41247       2   41190   41175   41187   41205       4
   41190   41208   41223   41241       4   41187   41175   41190   41211       4
   41187   41202   41223   41241       4   41184   41166   41178   41193       2
   41184   41166   41178   41196       1   41184   41166   41178   41199       1
   41181   41166   41178   41193       2   41181   41166   41178   41196       1
   41181   41166   41178   41199       1   41178   41193   41214   41235       2
   41178   41193   41214   41238       2   41175   41187   41202   41226       4
   41175   41190   41208   41229       4   41172   41148   41166   41178       2
   41172   41148   41166   41181       1   41172   41148   41166   41184       1
   41169   41148   41166   41178       2   41169   41148   41166   41181       1
   41169   41148   41166   41184       1   41166   41178   41193   41217       2
   41166   41178   41193   41220       2   41163   41139   41157   41175       4
   41160   41136   41157   41175       4   41157   41175   41187   41205       4
   41157   41175   41190   41211       4   41154   41130   41148   41166       2
   41154   41130   41148   41169       1   41154   41130   41148   41172       1
   41151   41130   41148   41166       2   41151   41130   41148   41169       1
   41151   41130   41148   41172       1   41148   41166   41178   41196       2
   41148   41166   41178   41199       2   41142   41124   41139   41157       4
   41142   41124   41139   41163       4   41139   41157   41136   41160       4
   41136   41157   41139   41163       4   41133   41118   41127   41145       4
   41130   41112   41127   41145       4   41130   41148   41166   41181       2
   41130   41148   41166   41184       2   41127   41112   41130   41151       7
   41127   41112   41130   41154       7   41121   41109   41124   41142       4
   41115   41100   41112   41127       4   41115   41100   41112   41130       4
   41112   41127   41118   41133       4   41112   41130   41148   41169       8
   41112   41130   41148   41172       8   41109   41121   41136   41160       4
   41109   41124   41139   41163       4   41106   41121   41136   41160       4
   41103   41091   41100   41115       4   41103   41118   41127   41145       4
   41100   41112   41127   41145       4   41100   41112   41130   41151       7
   41100   41112   41130   41154       7   41097   41109   41124   41142       4
   41094   41103   41118   41133       4   41091   41103   41118   41133       4
   41088   41091   41100   41115       4   41460   41445   41457   41463       1
   41460   41445   41457   41466       1   41460   41445   41457   41469       1
   41454   41445   41457   41463       1   41454   41445   41457   41466       1
   41454   41445   41457   41469       1   41451   41442   41445   41454       1
   41451   41442   41445   41457       2   41451   41442   41445   41460       1
   41448   41442   41445   41454       1   41448   41442   41445   41457       2
   41448   41442   41445   41460       1   41442   41445   41457   41463       2
   41442   41445   41457   41466       2   41442   41445   41457   41469       2
   41439   41424   41442   41445       2   41439   41424   41442   41448       1
   41439   41424   41442   41451       1   41436   41424   41442   41445       2
   41436   41424   41442   41448       1   41436   41424   41442   41451       1
   41430   41406   41424   41436       1   41430   41406   41424   41439       1
   41430   41406   41424   41442       2   41427   41406   41424   41436       1
   41427   41406   41424   41439       1   41427   41406   41424   41442       2
   41424   41442   41445   41454       2   41424   41442   41445   41460       2
   41421   41400   41415   41433       4   41418   41394   41415   41433       4
   41412   41385   41406   41424       2   41412   41385   41406   41427       1
   41412   41385   41406   41430       1   41409   41385   41406   41424       2
   41409   41385   41406   41427       1   41409   41385   41406   41430       1
   41406   41424   41442   41448       2   41406   41424   41442   41451       2
   41403   41382   41400   41415       4   41403   41382   41400   41421       4
   41400   41415   41394   41418       4   41397   41379   41394   41415       4
   41397   41379   41394   41418       4   41394   41415   41400   41421       4
   41391   41370   41385   41406       2   41391   41370   41385   41409       1
   41391   41370   41385   41412       1   41388   41370   41385   41406       2
   41388   41370   41385   41409       1   41388   41370   41385   41412       1
   41385   41406   41424   41436       2   41385   41406   41424   41439       2
   41382   41367   41379   41397       4   41382   41400   41415   41433       4
   41379   41367   41382   41403       4   41379   41394   41415   41433       4
   41376   41358   41370   41385       2   41376   41358   41370   41388       1
   41376   41358   41370   41391       1   41373   41358   41370   41385       2
   41373   41358   41370   41388       1   41373   41358   41370   41391       1
   41370   41385   41406   41427       2   41370   41385   41406   41430       2
   41367   41379   41394   41418       4   41367   41382   41400   41421       4
   41364   41340   41358   41370       2   41364   41340   41358   41373       1
   41364   41340   41358   41376       1   41361   41340   41358   41370       2
   41361   41340   41358   41373       1   41361   41340   41358   41376       1
   41358   41370   41385   41409       2   41358   41370   41385   41412       2
   41355   41331   41349   41367       4   41352   41328   41349   41367       4
   41349   41367   41379   41397       4   41349   41367   41382   41403       4
   41346   41322   41340   41358       2   41346   41322   41340   41361       1
   41346   41322   41340   41364       1   41343   41322   41340   41358       2
   41343   41322   41340   41361       1   41343   41322   41340   41364       1
   41340   41358   41370   41388       2   41340   41358   41370   41391       2
   41334   41316   41331   41349       4   41334   41316   41331   41355       4
   41331   41349   41328   41352       4   41328   41349   41331   41355       4
   41325   41310   41319   41337       4   41322   41304   41319   41337       4
   41322   41340   41358   41373       2   41322   41340   41358   41376       2
   41319   41304   41322   41343       7   41319   41304   41322   41346       7
   41313   41301   41316   41334       4   41307   41292   41304   41319       4
   41307   41292   41304   41322       4   41304   41319   41310   41325       4
   41304   41322   41340   41361       8   41304   41322   41340   41364       8
   41301   41313   41328   41352       4   41301   41316   41331   41355       4
   41298   41313   41328   41352       4   41295   41283   41292   41307       4
   41295   41310   41319   41337       4   41292   41304   41319   41337       4
   41292   41304   41322   41343       7   41292   41304   41322   41346       7
   41289   41301   41316   41334       4   41286   41295   41310   41325       4
   41283   41295   41310   41325       4   41280   41283   41292   41307       4
   41652   41637   41649   41655       1   41652   41637   41649   41658       1
   41652   41637   41649   41661       1   41646   41637   41649   41655       1
   41646   41637   41649   41658       1   41646   41637   41649   41661       1
   41643   41634   41637   41646       1   41643   41634   41637   41649       2
   41643   41634   41637   41652       1   41640   41634   41637   41646       1
   41640   41634   41637   41649       2   41640   41634   41637   41652       1
   41634   41637   41649   41655       2   41634   41637   41649   41658       2
   41634   41637   41649   41661       2   41631   41616   41634   41637       2
   41631   41616   41634   41640       1   41631   41616   41634   41643       1
   41628   41616   41634   41637       2   41628   41616   41634   41640       1
   41628   41616   41634   41643       1   41622   41598   41616   41628       1
   41622   41598   41616   41631       1   41622   41598   41616   41634       2
   41619   41598   41616   41628       1   41619   41598   41616   41631       1
   41619   41598   41616   41634       2   41616   41634   41637   41646       2
   41616   41634   41637   41652       2   41613   41592   41607   41625       4
   41610   41586   41607   41625       4   41604   41577   41598   41616       2
   41604   41577   41598   41619       1   41604   41577   41598   41622       1
   41601   41577   41598   41616       2   41601   41577   41598   41619       1
   41601   41577   41598   41622       1   41598   41616   41634   41640       2
   41598   41616   41634   41643       2   41595   41574   41592   41607       4
   41595   41574   41592   41613       4   41592   41607   41586   41610       4
   41589   41571   41586   41607       4   41589   41571   41586   41610       4
   41586   41607   41592   41613       4   41583   41562   41577   41598       2
   41583   41562   41577   41601       1   41583   41562   41577   41604       1
   41580   41562   41577   41598       2   41580   41562   41577   41601       1
   41580   41562   41577   41604       1   41577   41598   41616   41628       2
   41577   41598   41616   41631       2   41574   41559   41571   41589       4
   41574   41592   41607   41625       4   41571   41559   41574   41595       4
   41571   41586   41607   41625       4   41568   41550   41562   41577       2
   41568   41550   41562   41580       1   41568   41550   41562   41583       1
   41565   41550   41562   41577       2   41565   41550   41562   41580       1
   41565   41550   41562   41583       1   41562   41577   41598   41619       2
   41562   41577   41598   41622       2   41559   41571   41586   41610       4
   41559   41574   41592   41613       4   41556   41532   41550   41562       2
   41556   41532   41550   41565       1   41556   41532   41550   41568       1
   41553   41532   41550   41562       2   41553   41532   41550   41565       1
   41553   41532   41550   41568       1   41550   41562   41577   41601       2
   41550   41562   41577   41604       2   41547   41523   41541   41559       4
   41544   41520   41541   41559       4   41541   41559   41571   41589       4
   41541   41559   41574   41595       4   41538   41514   41532   41550       2
   41538   41514   41532   41553       1   41538   41514   41532   41556       1
   41535   41514   41532   41550       2   41535   41514   41532   41553       1
   41535   41514   41532   41556       1   41532   41550   41562   41580       2
   41532   41550   41562   41583       2   41526   41508   41523   41541       4
   41526   41508   41523   41547       4   41523   41541   41520   41544       4
   41520   41541   41523   41547       4   41517   41502   41511   41529       4
   41514   41496   41511   41529       4   41514   41532   41550   41565       2
   41514   41532   41550   41568       2   41511   41496   41514   41535       7
   41511   41496   41514   41538       7   41505   41493   41508   41526       4
   41499   41484   41496   41511       4   41499   41484   41496   41514       4
   41496   41511   41502   41517       4   41496   41514   41532   41553       8
   41496   41514   41532   41556       8   41493   41505   41520   41544       4
   41493   41508   41523   41547       4   41490   41505   41520   41544       4
   41487   41475   41484   41499       4   41487   41502   41511   41529       4
   41484   41496   41511   41529       4   41484   41496   41514   41535       7
   41484   41496   41514   41538       7   41481   41493   41508   41526       4
   41478   41487   41502   41517       4   41475   41487   41502   41517       4
   41472   41475   41484   41499       4   41844   41829   41841   41847       1
   41844   41829   41841   41850       1   41844   41829   41841   41853       1
   41838   41829   41841   41847       1   41838   41829   41841   41850       1
   41838   41829   41841   41853       1   41835   41826   41829   41838       1
   41835   41826   41829   41841       2   41835   41826   41829   41844       1
   41832   41826   41829   41838       1   41832   41826   41829   41841       2
   41832   41826   41829   41844       1   41826   41829   41841   41847       2
   41826   41829   41841   41850       2   41826   41829   41841   41853       2
   41823   41808   41826   41829       2   41823   41808   41826   41832       1
   41823   41808   41826   41835       1   41820   41808   41826   41829       2
   41820   41808   41826   41832       1   41820   41808   41826   41835       1
   41814   41790   41808   41820       1   41814   41790   41808   41823       1
   41814   41790   41808   41826       2   41811   41790   41808   41820       1
   41811   41790   41808   41823       1   41811   41790   41808   41826       2
   41808   41826   41829   41838       2   41808   41826   41829   41844       2
   41805   41784   41799   41817       4   41802   41778   41799   41817       4
   41796   41769   41790   41808       2   41796   41769   41790   41811       1
   41796   41769   41790   41814       1   41793   41769   41790   41808       2
   41793   41769   41790   41811       1   41793   41769   41790   41814       1
   41790   41808   41826   41832       2   41790   41808   41826   41835       2
   41787   41766   41784   41799       4   41787   41766   41784   41805       4
   41784   41799   41778   41802       4   41781   41763   41778   41799       4
   41781   41763   41778   41802       4   41778   41799   41784   41805       4
   41775   41754   41769   41790       2   41775   41754   41769   41793       1
   41775   41754   41769   41796       1   41772   41754   41769   41790       2
   41772   41754   41769   41793       1   41772   41754   41769   41796       1
   41769   41790   41808   41820       2   41769   41790   41808   41823       2
   41766   41751   41763   41781       4   41766   41784   41799   41817       4
   41763   41751   41766   41787       4   41763   41778   41799   41817       4
   41760   41742   41754   41769       2   41760   41742   41754   41772       1
   41760   41742   41754   41775       1   41757   41742   41754   41769       2
   41757   41742   41754   41772       1   41757   41742   41754   41775       1
   41754   41769   41790   41811       2   41754   41769   41790   41814       2
   41751   41763   41778   41802       4   41751   41766   41784   41805       4
   41748   41724   41742   41754       2   41748   41724   41742   41757       1
   41748   41724   41742   41760       1   41745   41724   41742   41754       2
   41745   41724   41742   41757       1   41745   41724   41742   41760       1
   41742   41754   41769   41793       2   41742   41754   41769   41796       2
   41739   41715   41733   41751       4   41736   41712   41733   41751       4
   41733   41751   41763   41781       4   41733   41751   41766   41787       4
   41730   41706   41724   41742       2   41730   41706   41724   41745       1
   41730   41706   41724   41748       1   41727   41706   41724   41742       2
   41727   41706   41724   41745       1   41727   41706   41724   41748       1
   41724   41742   41754   41772       2   41724   41742   41754   41775       2
   41718   41700   41715   41733       4   41718   41700   41715   41739       4
   41715   41733   41712   41736       4   41712   41733   41715   41739       4
   41709   41694   41703   41721       4   41706   41688   41703   41721       4
   41706   41724   41742   41757       2   41706   41724   41742   41760       2
   41703   41688   41706   41727       7   41703   41688   41706   41730       7
   41697   41685   41700   41718       4   41691   41676   41688   41703       4
   41691   41676   41688   41706       4   41688   41703   41694   41709       4
   41688   41706   41724   41745       8   41688   41706   41724   41748       8
   41685   41697   41712   41736       4   41685   41700   41715   41739       4
   41682   41697   41712   41736       4   41679   41667   41676   41691       4
   41679   41694   41703   41721       4   41676   41688   41703   41721       4
   41676   41688   41706   41727       7   41676   41688   41706   41730       7
   41673   41685   41700   41718       4   41670   41679   41694   41709       4
   41667   41679   41694   41709       4   41664   41667   41676   41691       4
   42036   42021   42033   42039       1   42036   42021   42033   42042       1
   42036   42021   42033   42045       1   42030   42021   42033   42039       1
   42030   42021   42033   42042       1   42030   42021   42033   42045       1
   42027   42018   42021   42030       1   42027   42018   42021   42033       2
   42027   42018   42021   42036       1   42024   42018   42021   42030       1
   42024   42018   42021   42033       2   42024   42018   42021   42036       1
   42018   42021   42033   42039       2   42018   42021   42033   42042       2
   42018   42021   42033   42045       2   42015   42000   42018   42021       2
   42015   42000   42018   42024       1   42015   42000   42018   42027       1
   42012   42000   42018   42021       2   42012   42000   42018   42024       1
   42012   42000   42018   42027       1   42006   41982   42000   42012       1
   42006   41982   42000   42015       1   42006   41982   42000   42018       2
   42003   41982   42000   42012       1   42003   41982   42000   42015       1
   42003   41982   42000   42018       2   42000   42018   42021   42030       2
   42000   42018   42021   42036       2   41997   41976   41991   42009       4
   41994   41970   41991   42009       4   41988   41961   41982   42000       2
   41988   41961   41982   42003       1   41988   41961   41982   42006       1
   41985   41961   41982   42000       2   41985   41961   41982   42003       1
   41985   41961   41982   42006       1   41982   42000   42018   42024       2
   41982   42000   42018   42027       2   41979   41958   41976   41991       4
   41979   41958   41976   41997       4   41976   41991   41970   41994       4
   41973   41955   41970   41991       4   41973   41955   41970   41994       4
   41970   41991   41976   41997       4   41967   41946   41961   41982       2
   41967   41946   41961   41985       1   41967   41946   41961   41988       1
   41964   41946   41961   41982       2   41964   41946   41961   41985       1
   41964   41946   41961   41988       1   41961   41982   42000   42012       2
   41961   41982   42000   42015       2   41958   41943   41955   41973       4
   41958   41976   41991   42009       4   41955   41943   41958   41979       4
   41955   41970   41991   42009       4   41952   41934   41946   41961       2
   41952   41934   41946   41964       1   41952   41934   41946   41967       1
   41949   41934   41946   41961       2   41949   41934   41946   41964       1
   41949   41934   41946   41967       1   41946   41961   41982   42003       2
   41946   41961   41982   42006       2   41943   41955   41970   41994       4
   41943   41958   41976   41997       4   41940   41916   41934   41946       2
   41940   41916   41934   41949       1   41940   41916   41934   41952       1
   41937   41916   41934   41946       2   41937   41916   41934   41949       1
   41937   41916   41934   41952       1   41934   41946   41961   41985       2
   41934   41946   41961   41988       2   41931   41907   41925   41943       4
   41928   41904   41925   41943       4   41925   41943   41955   41973       4
   41925   41943   41958   41979       4   41922   41898   41916   41934       2
   41922   41898   41916   41937       1   41922   41898   41916   41940       1
   41919   41898   41916   41934       2   41919   41898   41916   41937       1
   41919   41898   41916   41940       1   41916   41934   41946   41964       2
   41916   41934   41946   41967       2   41910   41892   41907   41925       4
   41910   41892   41907   41931       4   41907   41925   41904   41928       4
   41904   41925   41907   41931       4   41901   41886   41895   41913       4
   41898   41880   41895   41913       4   41898   41916   41934   41949       2
   41898   41916   41934   41952       2   41895   41880   41898   41919       7
   41895   41880   41898   41922       7   41889   41877   41892   41910       4
   41883   41868   41880   41895       4   41883   41868   41880   41898       4
   41880   41895   41886   41901       4   41880   41898   41916   41937       8
   41880   41898   41916   41940       8   41877   41889   41904   41928       4
   41877   41892   41907   41931       4   41874   41889   41904   41928       4
   41871   41859   41868   41883       4   41871   41886   41895   41913       4
   41868   41880   41895   41913       4   41868   41880   41898   41919       7
   41868   41880   41898   41922       7   41865   41877   41892   41910       4
   41862   41871   41886   41901       4   41859   41871   41886   41901       4
   41856   41859   41868   41883       4   42228   42213   42225   42231       1
   42228   42213   42225   42234       1   42228   42213   42225   42237       1
   42222   42213   42225   42231       1   42222   42213   42225   42234       1
   42222   42213   42225   42237       1   42219   42210   42213   42222       1
   42219   42210   42213   42225       2   42219   42210   42213   42228       1
   42216   42210   42213   42222       1   42216   42210   42213   42225       2
   42216   42210   42213   42228       1   42210   42213   42225   42231       2
   42210   42213   42225   42234       2   42210   42213   42225   42237       2
   42207   42192   42210   42213       2   42207   42192   42210   42216       1
   42207   42192   42210   42219       1   42204   42192   42210   42213       2
   42204   42192   42210   42216       1   42204   42192   42210   42219       1
   42198   42174   42192   42204       1   42198   42174   42192   42207       1
   42198   42174   42192   42210       2   42195   42174   42192   42204       1
   42195   42174   42192   42207       1   42195   42174   42192   42210       2
   42192   42210   42213   42222       2   42192   42210   42213   42228       2
   42189   42168   42183   42201       4   42186   42162   42183   42201       4
   42180   42153   42174   42192       2   42180   42153   42174   42195       1
   42180   42153   42174   42198       1   42177   42153   42174   42192       2
   42177   42153   42174   42195       1   42177   42153   42174   42198       1
   42174   42192   42210   42216       2   42174   42192   42210   42219       2
   42171   42150   42168   42183       4   42171   42150   42168   42189       4
   42168   42183   42162   42186       4   42165   42147   42162   42183       4
   42165   42147   42162   42186       4   42162   42183   42168   42189       4
   42159   42138   42153   42174       2   42159   42138   42153   42177       1
   42159   42138   42153   42180       1   42156   42138   42153   42174       2
   42156   42138   42153   42177       1   42156   42138   42153   42180       1
   42153   42174   42192   42204       2   42153   42174   42192   42207       2
   42150   42135   42147   42165       4   42150   42168   42183   42201       4
   42147   42135   42150   42171       4   42147   42162   42183   42201       4
   42144   42126   42138   42153       2   42144   42126   42138   42156       1
   42144   42126   42138   42159       1   42141   42126   42138   42153       2
   42141   42126   42138   42156       1   42141   42126   42138   42159       1
   42138   42153   42174   42195       2   42138   42153   42174   42198       2
   42135   42147   42162   42186       4   42135   42150   42168   42189       4
   42132   42108   42126   42138       2   42132   42108   42126   42141       1
   42132   42108   42126   42144       1   42129   42108   42126   42138       2
   42129   42108   42126   42141       1   42129   42108   42126   42144       1
   42126   42138   42153   42177       2   42126   42138   42153   42180       2
   42123   42099   42117   42135       4   42120   42096   42117   42135       4
   42117   42135   42147   42165       4   42117   42135   42150   42171       4
   42114   42090   42108   42126       2   42114   42090   42108   42129       1
   42114   42090   42108   42132       1   42111   42090   42108   42126       2
   42111   42090   42108   42129       1   42111   42090   42108   42132       1
   42108   42126   42138   42156       2   42108   42126   42138   42159       2
   42102   42084   42099   42117       4   42102   42084   42099   42123       4
   42099   42117   42096   42120       4   42096   42117   42099   42123       4
   42093   42078   42087   42105       4   42090   42072   42087   42105       4
   42090   42108   42126   42141       2   42090   42108   42126   42144       2
   42087   42072   42090   42111       7   42087   42072   42090   42114       7
   42081   42069   42084   42102       4   42075   42060   42072   42087       4
   42075   42060   42072   42090       4   42072   42087   42078   42093       4
   42072   42090   42108   42129       8   42072   42090   42108   42132       8
   42069   42081   42096   42120       4   42069   42084   42099   42123       4
   42066   42081   42096   42120       4   42063   42051   42060   42075       4
   42063   42078   42087   42105       4   42060   42072   42087   42105       4
   42060   42072   42090   42111       7   42060   42072   42090   42114       7
   42057   42069   42084   42102       4   42054   42063   42078   42093       4
   42051   42063   42078   42093       4   42048   42051   42060   42075       4
   42420   42405   42417   42423       1   42420   42405   42417   42426       1
   42420   42405   42417   42429       1   42414   42405   42417   42423       1
   42414   42405   42417   42426       1   42414   42405   42417   42429       1
   42411   42402   42405   42414       1   42411   42402   42405   42417       2
   42411   42402   42405   42420       1   42408   42402   42405   42414       1
   42408   42402   42405   42417       2   42408   42402   42405   42420       1
   42402   42405   42417   42423       2   42402   42405   42417   42426       2
   42402   42405   42417   42429       2   42399   42384   42402   42405       2
   42399   42384   42402   42408       1   42399   42384   42402   42411       1
   42396   42384   42402   42405       2   42396   42384   42402   42408       1
   42396   42384   42402   42411       1   42390   42366   42384   42396       1
   42390   42366   42384   42399       1   42390   42366   42384   42402       2
   42387   42366   42384   42396       1   42387   42366   42384   42399       1
   42387   42366   42384   42402       2   42384   42402   42405   42414       2
   42384   42402   42405   42420       2   42381   42360   42375   42393       4
   42378   42354   42375   42393       4   42372   42345   42366   42384       2
   42372   42345   42366   42387       1   42372   42345   42366   42390       1
   42369   42345   42366   42384       2   42369   42345   42366   42387       1
   42369   42345   42366   42390       1   42366   42384   42402   42408       2
   42366   42384   42402   42411       2   42363   42342   42360   42375       4
   42363   42342   42360   42381       4   42360   42375   42354   42378       4
   42357   42339   42354   42375       4   42357   42339   42354   42378       4
   42354   42375   42360   42381       4   42351   42330   42345   42366       2
   42351   42330   42345   42369       1   42351   42330   42345   42372       1
   42348   42330   42345   42366       2   42348   42330   42345   42369       1
   42348   42330   42345   42372       1   42345   42366   42384   42396       2
   42345   42366   42384   42399       2   42342   42327   42339   42357       4
   42342   42360   42375   42393       4   42339   42327   42342   42363       4
   42339   42354   42375   42393       4   42336   42318   42330   42345       2
   42336   42318   42330   42348       1   42336   42318   42330   42351       1
   42333   42318   42330   42345       2   42333   42318   42330   42348       1
   42333   42318   42330   42351       1   42330   42345   42366   42387       2
   42330   42345   42366   42390       2   42327   42339   42354   42378       4
   42327   42342   42360   42381       4   42324   42300   42318   42330       2
   42324   42300   42318   42333       1   42324   42300   42318   42336       1
   42321   42300   42318   42330       2   42321   42300   42318   42333       1
   42321   42300   42318   42336       1   42318   42330   42345   42369       2
   42318   42330   42345   42372       2   42315   42291   42309   42327       4
   42312   42288   42309   42327       4   42309   42327   42339   42357       4
   42309   42327   42342   42363       4   42306   42282   42300   42318       2
   42306   42282   42300   42321       1   42306   42282   42300   42324       1
   42303   42282   42300   42318       2   42303   42282   42300   42321       1
   42303   42282   42300   42324       1   42300   42318   42330   42348       2
   42300   42318   42330   42351       2   42294   42276   42291   42309       4
   42294   42276   42291   42315       4   42291   42309   42288   42312       4
   42288   42309   42291   42315       4   42285   42270   42279   42297       4
   42282   42264   42279   42297       4   42282   42300   42318   42333       2
   42282   42300   42318   42336       2   42279   42264   42282   42303       7
   42279   42264   42282   42306       7   42273   42261   42276   42294       4
   42267   42252   42264   42279       4   42267   42252   42264   42282       4
   42264   42279   42270   42285       4   42264   42282   42300   42321       8
   42264   42282   42300   42324       8   42261   42273   42288   42312       4
   42261   42276   42291   42315       4   42258   42273   42288   42312       4
   42255   42243   42252   42267       4   42255   42270   42279   42297       4
   42252   42264   42279   42297       4   42252   42264   42282   42303       7
   42252   42264   42282   42306       7   42249   42261   42276   42294       4
   42246   42255   42270   42285       4   42243   42255   42270   42285       4
   42240   42243   42252   42267       4   42612   42597   42609   42615       1
   42612   42597   42609   42618       1   42612   42597   42609   42621       1
   42606   42597   42609   42615       1   42606   42597   42609   42618       1
   42606   42597   42609   42621       1   42603   42594   42597   42606       1
   42603   42594   42597   42609       2   42603   42594   42597   42612       1
   42600   42594   42597   42606       1   42600   42594   42597   42609       2
   42600   42594   42597   42612       1   42594   42597   42609   42615       2
   42594   42597   42609   42618       2   42594   42597   42609   42621       2
   42591   42576   42594   42597       2   42591   42576   42594   42600       1
   42591   42576   42594   42603       1   42588   42576   42594   42597       2
   42588   42576   42594   42600       1   42588   42576   42594   42603       1
   42582   42558   42576   42588       1   42582   42558   42576   42591       1
   42582   42558   42576   42594       2   42579   42558   42576   42588       1
   42579   42558   42576   42591       1   42579   42558   42576   42594       2
   42576   42594   42597   42606       2   42576   42594   42597   42612       2
   42573   42552   42567   42585       4   42570   42546   42567   42585       4
   42564   42537   42558   42576       2   42564   42537   42558   42579       1
   42564   42537   42558   42582       1   42561   42537   42558   42576       2
   42561   42537   42558   42579       1   42561   42537   42558   42582       1
   42558   42576   42594   42600       2   42558   42576   42594   42603       2
   42555   42534   42552   42567       4   42555   42534   42552   42573       4
   42552   42567   42546   42570       4   42549   42531   42546   42567       4
   42549   42531   42546   42570       4   42546   42567   42552   42573       4
   42543   42522   42537   42558       2   42543   42522   42537   42561       1
   42543   42522   42537   42564       1   42540   42522   42537   42558       2
   42540   42522   42537   42561       1   42540   42522   42537   42564       1
   42537   42558   42576   42588       2   42537   42558   42576   42591       2
   42534   42519   42531   42549       4   42534   42552   42567   42585       4
   42531   42519   42534   42555       4   42531   42546   42567   42585       4
   42528   42510   42522   42537       2   42528   42510   42522   42540       1
   42528   42510   42522   42543       1   42525   42510   42522   42537       2
   42525   42510   42522   42540       1   42525   42510   42522   42543       1
   42522   42537   42558   42579       2   42522   42537   42558   42582       2
   42519   42531   42546   42570       4   42519   42534   42552   42573       4
   42516   42492   42510   42522       2   42516   42492   42510   42525       1
   42516   42492   42510   42528       1   42513   42492   42510   42522       2
   42513   42492   42510   42525       1   42513   42492   42510   42528       1
   42510   42522   42537   42561       2   42510   42522   42537   42564       2
   42507   42483   42501   42519       4   42504   42480   42501   42519       4
   42501   42519   42531   42549       4   42501   42519   42534   42555       4
   42498   42474   42492   42510       2   42498   42474   42492   42513       1
   42498   42474   42492   42516       1   42495   42474   42492   42510       2
   42495   42474   42492   42513       1   42495   42474   42492   42516       1
   42492   42510   42522   42540       2   42492   42510   42522   42543       2
   42486   42468   42483   42501       4   42486   42468   42483   42507       4
   42483   42501   42480   42504       4   42480   42501   42483   42507       4
   42477   42462   42471   42489       4   42474   42456   42471   42489       4
   42474   42492   42510   42525       2   42474   42492   42510   42528       2
   42471   42456   42474   42495       7   42471   42456   42474   42498       7
   42465   42453   42468   42486       4   42459   42444   42456   42471       4
   42459   42444   42456   42474       4   42456   42471   42462   42477       4
   42456   42474   42492   42513       8   42456   42474   42492   42516       8
   42453   42465   42480   42504       4   42453   42468   42483   42507       4
   42450   42465   42480   42504       4   42447   42435   42444   42459       4
   42447   42462   42471   42489       4   42444   42456   42471   42489       4
   42444   42456   42474   42495       7   42444   42456   42474   42498       7
   42441   42453   42468   42486       4   42438   42447   42462   42477       4
   42435   42447   42462   42477       4   42432   42435   42444   42459       4
   42804   42789   42801   42807       1   42804   42789   42801   42810       1
   42804   42789   42801   42813       1   42798   42789   42801   42807       1
   42798   42789   42801   42810       1   42798   42789   42801   42813       1
   42795   42786   42789   42798       1   42795   42786   42789   42801       2
   42795   42786   42789   42804       1   42792   42786   42789   42798       1
   42792   42786   42789   42801       2   42792   42786   42789   42804       1
   42786   42789   42801   42807       2   42786   42789   42801   42810       2
   42786   42789   42801   42813       2   42783   42768   42786   42789       2
   42783   42768   42786   42792       1   42783   42768   42786   42795       1
   42780   42768   42786   42789       2   42780   42768   42786   42792       1
   42780   42768   42786   42795       1   42774   42750   42768   42780       1
   42774   42750   42768   42783       1   42774   42750   42768   42786       2
   42771   42750   42768   42780       1   42771   42750   42768   42783       1
   42771   42750   42768   42786       2   42768   42786   42789   42798       2
   42768   42786   42789   42804       2   42765   42744   42759   42777       4
   42762   42738   42759   42777       4   42756   42729   42750   42768       2
   42756   42729   42750   42771       1   42756   42729   42750   42774       1
   42753   42729   42750   42768       2   42753   42729   42750   42771       1
   42753   42729   42750   42774       1   42750   42768   42786   42792       2
   42750   42768   42786   42795       2   42747   42726   42744   42759       4
   42747   42726   42744   42765       4   42744   42759   42738   42762       4
   42741   42723   42738   42759       4   42741   42723   42738   42762       4
   42738   42759   42744   42765       4   42735   42714   42729   42750       2
   42735   42714   42729   42753       1   42735   42714   42729   42756       1
   42732   42714   42729   42750       2   42732   42714   42729   42753       1
   42732   42714   42729   42756       1   42729   42750   42768   42780       2
   42729   42750   42768   42783       2   42726   42711   42723   42741       4
   42726   42744   42759   42777       4   42723   42711   42726   42747       4
   42723   42738   42759   42777       4   42720   42702   42714   42729       2
   42720   42702   42714   42732       1   42720   42702   42714   42735       1
   42717   42702   42714   42729       2   42717   42702   42714   42732       1
   42717   42702   42714   42735       1   42714   42729   42750   42771       2
   42714   42729   42750   42774       2   42711   42723   42738   42762       4
   42711   42726   42744   42765       4   42708   42684   42702   42714       2
   42708   42684   42702   42717       1   42708   42684   42702   42720       1
   42705   42684   42702   42714       2   42705   42684   42702   42717       1
   42705   42684   42702   42720       1   42702   42714   42729   42753       2
   42702   42714   42729   42756       2   42699   42675   42693   42711       4
   42696   42672   42693   42711       4   42693   42711   42723   42741       4
   42693   42711   42726   42747       4   42690   42666   42684   42702       2
   42690   42666   42684   42705       1   42690   42666   42684   42708       1
   42687   42666   42684   42702       2   42687   42666   42684   42705       1
   42687   42666   42684   42708       1   42684   42702   42714   42732       2
   42684   42702   42714   42735       2   42678   42660   42675   42693       4
   42678   42660   42675   42699       4   42675   42693   42672   42696       4
   42672   42693   42675   42699       4   42669   42654   42663   42681       4
   42666   42648   42663   42681       4   42666   42684   42702   42717       2
   42666   42684   42702   42720       2   42663   42648   42666   42687       7
   42663   42648   42666   42690       7   42657   42645   42660   42678       4
   42651   42636   42648   42663       4   42651   42636   42648   42666       4
   42648   42663   42654   42669       4   42648   42666   42684   42705       8
   42648   42666   42684   42708       8   42645   42657   42672   42696       4
   42645   42660   42675   42699       4   42642   42657   42672   42696       4
   42639   42627   42636   42651       4   42639   42654   42663   42681       4
   42636   42648   42663   42681       4   42636   42648   42666   42687       7
   42636   42648   42666   42690       7   42633   42645   42660   42678       4
   42630   42639   42654   42669       4   42627   42639   42654   42669       4
   42624   42627   42636   42651       4   42996   42981   42993   42999       1
   42996   42981   42993   43002       1   42996   42981   42993   43005       1
   42990   42981   42993   42999       1   42990   42981   42993   43002       1
   42990   42981   42993   43005       1   42987   42978   42981   42990       1
   42987   42978   42981   42993       2   42987   42978   42981   42996       1
   42984   42978   42981   42990       1   42984   42978   42981   42993       2
   42984   42978   42981   42996       1   42978   42981   42993   42999       2
   42978   42981   42993   43002       2   42978   42981   42993   43005       2
   42975   42960   42978   42981       2   42975   42960   42978   42984       1
   42975   42960   42978   42987       1   42972   42960   42978   42981       2
   42972   42960   42978   42984       1   42972   42960   42978   42987       1
   42966   42942   42960   42972       1   42966   42942   42960   42975       1
   42966   42942   42960   42978       2   42963   42942   42960   42972       1
   42963   42942   42960   42975       1   42963   42942   42960   42978       2
   42960   42978   42981   42990       2   42960   42978   42981   42996       2
   42957   42936   42951   42969       4   42954   42930   42951   42969       4
   42948   42921   42942   42960       2   42948   42921   42942   42963       1
   42948   42921   42942   42966       1   42945   42921   42942   42960       2
   42945   42921   42942   42963       1   42945   42921   42942   42966       1
   42942   42960   42978   42984       2   42942   42960   42978   42987       2
   42939   42918   42936   42951       4   42939   42918   42936   42957       4
   42936   42951   42930   42954       4   42933   42915   42930   42951       4
   42933   42915   42930   42954       4   42930   42951   42936   42957       4
   42927   42906   42921   42942       2   42927   42906   42921   42945       1
   42927   42906   42921   42948       1   42924   42906   42921   42942       2
   42924   42906   42921   42945       1   42924   42906   42921   42948       1
   42921   42942   42960   42972       2   42921   42942   42960   42975       2
   42918   42903   42915   42933       4   42918   42936   42951   42969       4
   42915   42903   42918   42939       4   42915   42930   42951   42969       4
   42912   42894   42906   42921       2   42912   42894   42906   42924       1
   42912   42894   42906   42927       1   42909   42894   42906   42921       2
   42909   42894   42906   42924       1   42909   42894   42906   42927       1
   42906   42921   42942   42963       2   42906   42921   42942   42966       2
   42903   42915   42930   42954       4   42903   42918   42936   42957       4
   42900   42876   42894   42906       2   42900   42876   42894   42909       1
   42900   42876   42894   42912       1   42897   42876   42894   42906       2
   42897   42876   42894   42909       1   42897   42876   42894   42912       1
   42894   42906   42921   42945       2   42894   42906   42921   42948       2
   42891   42867   42885   42903       4   42888   42864   42885   42903       4
   42885   42903   42915   42933       4   42885   42903   42918   42939       4
   42882   42858   42876   42894       2   42882   42858   42876   42897       1
   42882   42858   42876   42900       1   42879   42858   42876   42894       2
   42879   42858   42876   42897       1   42879   42858   42876   42900       1
   42876   42894   42906   42924       2   42876   42894   42906   42927       2
   42870   42852   42867   42885       4   42870   42852   42867   42891       4
   42867   42885   42864   42888       4   42864   42885   42867   42891       4
   42861   42846   42855   42873       4   42858   42840   42855   42873       4
   42858   42876   42894   42909       2   42858   42876   42894   42912       2
   42855   42840   42858   42879       7   42855   42840   42858   42882       7
   42849   42837   42852   42870       4   42843   42828   42840   42855       4
   42843   42828   42840   42858       4   42840   42855   42846   42861       4
   42840   42858   42876   42897       8   42840   42858   42876   42900       8
   42837   42849   42864   42888       4   42837   42852   42867   42891       4
   42834   42849   42864   42888       4   42831   42819   42828   42843       4
   42831   42846   42855   42873       4   42828   42840   42855   42873       4
   42828   42840   42858   42879       7   42828   42840   42858   42882       7
   42825   42837   42852   42870       4   42822   42831   42846   42861       4
   42819   42831   42846   42861       4   42816   42819   42828   42843       4
   43188   43173   43185   43191       1   43188   43173   43185   43194       1
   43188   43173   43185   43197       1   43182   43173   43185   43191       1
   43182   43173   43185   43194       1   43182   43173   43185   43197       1
   43179   43170   43173   43182       1   43179   43170   43173   43185       2
   43179   43170   43173   43188       1   43176   43170   43173   43182       1
   43176   43170   43173   43185       2   43176   43170   43173   43188       1
   43170   43173   43185   43191       2   43170   43173   43185   43194       2
   43170   43173   43185   43197       2   43167   43152   43170   43173       2
   43167   43152   43170   43176       1   43167   43152   43170   43179       1
   43164   43152   43170   43173       2   43164   43152   43170   43176       1
   43164   43152   43170   43179       1   43158   43134   43152   43164       1
   43158   43134   43152   43167       1   43158   43134   43152   43170       2
   43155   43134   43152   43164       1   43155   43134   43152   43167       1
   43155   43134   43152   43170       2   43152   43170   43173   43182       2
   43152   43170   43173   43188       2   43149   43128   43143   43161       4
   43146   43122   43143   43161       4   43140   43113   43134   43152       2
   43140   43113   43134   43155       1   43140   43113   43134   43158       1
   43137   43113   43134   43152       2   43137   43113   43134   43155       1
   43137   43113   43134   43158       1   43134   43152   43170   43176       2
   43134   43152   43170   43179       2   43131   43110   43128   43143       4
   43131   43110   43128   43149       4   43128   43143   43122   43146       4
   43125   43107   43122   43143       4   43125   43107   43122   43146       4
   43122   43143   43128   43149       4   43119   43098   43113   43134       2
   43119   43098   43113   43137       1   43119   43098   43113   43140       1
   43116   43098   43113   43134       2   43116   43098   43113   43137       1
   43116   43098   43113   43140       1   43113   43134   43152   43164       2
   43113   43134   43152   43167       2   43110   43095   43107   43125       4
   43110   43128   43143   43161       4   43107   43095   43110   43131       4
   43107   43122   43143   43161       4   43104   43086   43098   43113       2
   43104   43086   43098   43116       1   43104   43086   43098   43119       1
   43101   43086   43098   43113       2   43101   43086   43098   43116       1
   43101   43086   43098   43119       1   43098   43113   43134   43155       2
   43098   43113   43134   43158       2   43095   43107   43122   43146       4
   43095   43110   43128   43149       4   43092   43068   43086   43098       2
   43092   43068   43086   43101       1   43092   43068   43086   43104       1
   43089   43068   43086   43098       2   43089   43068   43086   43101       1
   43089   43068   43086   43104       1   43086   43098   43113   43137       2
   43086   43098   43113   43140       2   43083   43059   43077   43095       4
   43080   43056   43077   43095       4   43077   43095   43107   43125       4
   43077   43095   43110   43131       4   43074   43050   43068   43086       2
   43074   43050   43068   43089       1   43074   43050   43068   43092       1
   43071   43050   43068   43086       2   43071   43050   43068   43089       1
   43071   43050   43068   43092       1   43068   43086   43098   43116       2
   43068   43086   43098   43119       2   43062   43044   43059   43077       4
   43062   43044   43059   43083       4   43059   43077   43056   43080       4
   43056   43077   43059   43083       4   43053   43038   43047   43065       4
   43050   43032   43047   43065       4   43050   43068   43086   43101       2
   43050   43068   43086   43104       2   43047   43032   43050   43071       7
   43047   43032   43050   43074       7   43041   43029   43044   43062       4
   43035   43020   43032   43047       4   43035   43020   43032   43050       4
   43032   43047   43038   43053       4   43032   43050   43068   43089       8
   43032   43050   43068   43092       8   43029   43041   43056   43080       4
   43029   43044   43059   43083       4   43026   43041   43056   43080       4
   43023   43011   43020   43035       4   43023   43038   43047   43065       4
   43020   43032   43047   43065       4   43020   43032   43050   43071       7
   43020   43032   43050   43074       7   43017   43029   43044   43062       4
   43014   43023   43038   43053       4   43011   43023   43038   43053       4
   43008   43011   43020   43035       4   43380   43365   43377   43383       1
   43380   43365   43377   43386       1   43380   43365   43377   43389       1
   43374   43365   43377   43383       1   43374   43365   43377   43386       1
   43374   43365   43377   43389       1   43371   43362   43365   43374       1
   43371   43362   43365   43377       2   43371   43362   43365   43380       1
   43368   43362   43365   43374       1   43368   43362   43365   43377       2
   43368   43362   43365   43380       1   43362   43365   43377   43383       2
   43362   43365   43377   43386       2   43362   43365   43377   43389       2
   43359   43344   43362   43365       2   43359   43344   43362   43368       1
   43359   43344   43362   43371       1   43356   43344   43362   43365       2
   43356   43344   43362   43368       1   43356   43344   43362   43371       1
   43350   43326   43344   43356       1   43350   43326   43344   43359       1
   43350   43326   43344   43362       2   43347   43326   43344   43356       1
   43347   43326   43344   43359       1   43347   43326   43344   43362       2
   43344   43362   43365   43374       2   43344   43362   43365   43380       2
   43341   43320   43335   43353       4   43338   43314   43335   43353       4
   43332   43305   43326   43344       2   43332   43305   43326   43347       1
   43332   43305   43326   43350       1   43329   43305   43326   43344       2
   43329   43305   43326   43347       1   43329   43305   43326   43350       1
   43326   43344   43362   43368       2   43326   43344   43362   43371       2
   43323   43302   43320   43335       4   43323   43302   43320   43341       4
   43320   43335   43314   43338       4   43317   43299   43314   43335       4
   43317   43299   43314   43338       4   43314   43335   43320   43341       4
   43311   43290   43305   43326       2   43311   43290   43305   43329       1
   43311   43290   43305   43332       1   43308   43290   43305   43326       2
   43308   43290   43305   43329       1   43308   43290   43305   43332       1
   43305   43326   43344   43356       2   43305   43326   43344   43359       2
   43302   43287   43299   43317       4   43302   43320   43335   43353       4
   43299   43287   43302   43323       4   43299   43314   43335   43353       4
   43296   43278   43290   43305       2   43296   43278   43290   43308       1
   43296   43278   43290   43311       1   43293   43278   43290   43305       2
   43293   43278   43290   43308       1   43293   43278   43290   43311       1
   43290   43305   43326   43347       2   43290   43305   43326   43350       2
   43287   43299   43314   43338       4   43287   43302   43320   43341       4
   43284   43260   43278   43290       2   43284   43260   43278   43293       1
   43284   43260   43278   43296       1   43281   43260   43278   43290       2
   43281   43260   43278   43293       1   43281   43260   43278   43296       1
   43278   43290   43305   43329       2   43278   43290   43305   43332       2
   43275   43251   43269   43287       4   43272   43248   43269   43287       4
   43269   43287   43299   43317       4   43269   43287   43302   43323       4
   43266   43242   43260   43278       2   43266   43242   43260   43281       1
   43266   43242   43260   43284       1   43263   43242   43260   43278       2
   43263   43242   43260   43281       1   43263   43242   43260   43284       1
   43260   43278   43290   43308       2   43260   43278   43290   43311       2
   43254   43236   43251   43269       4   43254   43236   43251   43275       4
   43251   43269   43248   43272       4   43248   43269   43251   43275       4
   43245   43230   43239   43257       4   43242   43224   43239   43257       4
   43242   43260   43278   43293       2   43242   43260   43278   43296       2
   43239   43224   43242   43263       7   43239   43224   43242   43266       7
   43233   43221   43236   43254       4   43227   43212   43224   43239       4
   43227   43212   43224   43242       4   43224   43239   43230   43245       4
   43224   43242   43260   43281       8   43224   43242   43260   43284       8
   43221   43233   43248   43272       4   43221   43236   43251   43275       4
   43218   43233   43248   43272       4   43215   43203   43212   43227       4
   43215   43230   43239   43257       4   43212   43224   43239   43257       4
   43212   43224   43242   43263       7   43212   43224   43242   43266       7
   43209   43221   43236   43254       4   43206   43215   43230   43245       4
   43203   43215   43230   43245       4   43200   43203   43212   43227       4
   43572   43557   43569   43575       1   43572   43557   43569   43578       1
   43572   43557   43569   43581       1   43566   43557   43569   43575       1
   43566   43557   43569   43578       1   43566   43557   43569   43581       1
   43563   43554   43557   43566       1   43563   43554   43557   43569       2
   43563   43554   43557   43572       1   43560   43554   43557   43566       1
   43560   43554   43557   43569       2   43560   43554   43557   43572       1
   43554   43557   43569   43575       2   43554   43557   43569   43578       2
   43554   43557   43569   43581       2   43551   43536   43554   43557       2
   43551   43536   43554   43560       1   43551   43536   43554   43563       1
   43548   43536   43554   43557       2   43548   43536   43554   43560       1
   43548   43536   43554   43563       1   43542   43518   43536   43548       1
   43542   43518   43536   43551       1   43542   43518   43536   43554       2
   43539   43518   43536   43548       1   43539   43518   43536   43551       1
   43539   43518   43536   43554       2   43536   43554   43557   43566       2
   43536   43554   43557   43572       2   43533   43512   43527   43545       4
   43530   43506   43527   43545       4   43524   43497   43518   43536       2
   43524   43497   43518   43539       1   43524   43497   43518   43542       1
   43521   43497   43518   43536       2   43521   43497   43518   43539       1
   43521   43497   43518   43542       1   43518   43536   43554   43560       2
   43518   43536   43554   43563       2   43515   43494   43512   43527       4
   43515   43494   43512   43533       4   43512   43527   43506   43530       4
   43509   43491   43506   43527       4   43509   43491   43506   43530       4
   43506   43527   43512   43533       4   43503   43482   43497   43518       2
   43503   43482   43497   43521       1   43503   43482   43497   43524       1
   43500   43482   43497   43518       2   43500   43482   43497   43521       1
   43500   43482   43497   43524       1   43497   43518   43536   43548       2
   43497   43518   43536   43551       2   43494   43479   43491   43509       4
   43494   43512   43527   43545       4   43491   43479   43494   43515       4
   43491   43506   43527   43545       4   43488   43470   43482   43497       2
   43488   43470   43482   43500       1   43488   43470   43482   43503       1
   43485   43470   43482   43497       2   43485   43470   43482   43500       1
   43485   43470   43482   43503       1   43482   43497   43518   43539       2
   43482   43497   43518   43542       2   43479   43491   43506   43530       4
   43479   43494   43512   43533       4   43476   43452   43470   43482       2
   43476   43452   43470   43485       1   43476   43452   43470   43488       1
   43473   43452   43470   43482       2   43473   43452   43470   43485       1
   43473   43452   43470   43488       1   43470   43482   43497   43521       2
   43470   43482   43497   43524       2   43467   43443   43461   43479       4
   43464   43440   43461   43479       4   43461   43479   43491   43509       4
   43461   43479   43494   43515       4   43458   43434   43452   43470       2
   43458   43434   43452   43473       1   43458   43434   43452   43476       1
   43455   43434   43452   43470       2   43455   43434   43452   43473       1
   43455   43434   43452   43476       1   43452   43470   43482   43500       2
   43452   43470   43482   43503       2   43446   43428   43443   43461       4
   43446   43428   43443   43467       4   43443   43461   43440   43464       4
   43440   43461   43443   43467       4   43437   43422   43431   43449       4
   43434   43416   43431   43449       4   43434   43452   43470   43485       2
   43434   43452   43470   43488       2   43431   43416   43434   43455       7
   43431   43416   43434   43458       7   43425   43413   43428   43446       4
   43419   43404   43416   43431       4   43419   43404   43416   43434       4
   43416   43431   43422   43437       4   43416   43434   43452   43473       8
   43416   43434   43452   43476       8   43413   43425   43440   43464       4
   43413   43428   43443   43467       4   43410   43425   43440   43464       4
   43407   43395   43404   43419       4   43407   43422   43431   43449       4
   43404   43416   43431   43449       4   43404   43416   43434   43455       7
   43404   43416   43434   43458       7   43401   43413   43428   43446       4
   43398   43407   43422   43437       4   43395   43407   43422   43437       4
   43392   43395   43404   43419       4   43764   43749   43761   43767       1
   43764   43749   43761   43770       1   43764   43749   43761   43773       1
   43758   43749   43761   43767       1   43758   43749   43761   43770       1
   43758   43749   43761   43773       1   43755   43746   43749   43758       1
   43755   43746   43749   43761       2   43755   43746   43749   43764       1
   43752   43746   43749   43758       1   43752   43746   43749   43761       2
   43752   43746   43749   43764       1   43746   43749   43761   43767       2
   43746   43749   43761   43770       2   43746   43749   43761   43773       2
   43743   43728   43746   43749       2   43743   43728   43746   43752       1
   43743   43728   43746   43755       1   43740   43728   43746   43749       2
   43740   43728   43746   43752       1   43740   43728   43746   43755       1
   43734   43710   43728   43740       1   43734   43710   43728   43743       1
   43734   43710   43728   43746       2   43731   43710   43728   43740       1
   43731   43710   43728   43743       1   43731   43710   43728   43746       2
   43728   43746   43749   43758       2   43728   43746   43749   43764       2
   43725   43704   43719   43737       4   43722   43698   43719   43737       4
   43716   43689   43710   43728       2   43716   43689   43710   43731       1
   43716   43689   43710   43734       1   43713   43689   43710   43728       2
   43713   43689   43710   43731       1   43713   43689   43710   43734       1
   43710   43728   43746   43752       2   43710   43728   43746   43755       2
   43707   43686   43704   43719       4   43707   43686   43704   43725       4
   43704   43719   43698   43722       4   43701   43683   43698   43719       4
   43701   43683   43698   43722       4   43698   43719   43704   43725       4
   43695   43674   43689   43710       2   43695   43674   43689   43713       1
   43695   43674   43689   43716       1   43692   43674   43689   43710       2
   43692   43674   43689   43713       1   43692   43674   43689   43716       1
   43689   43710   43728   43740       2   43689   43710   43728   43743       2
   43686   43671   43683   43701       4   43686   43704   43719   43737       4
   43683   43671   43686   43707       4   43683   43698   43719   43737       4
   43680   43662   43674   43689       2   43680   43662   43674   43692       1
   43680   43662   43674   43695       1   43677   43662   43674   43689       2
   43677   43662   43674   43692       1   43677   43662   43674   43695       1
   43674   43689   43710   43731       2   43674   43689   43710   43734       2
   43671   43683   43698   43722       4   43671   43686   43704   43725       4
   43668   43644   43662   43674       2   43668   43644   43662   43677       1
   43668   43644   43662   43680       1   43665   43644   43662   43674       2
   43665   43644   43662   43677       1   43665   43644   43662   43680       1
   43662   43674   43689   43713       2   43662   43674   43689   43716       2
   43659   43635   43653   43671       4   43656   43632   43653   43671       4
   43653   43671   43683   43701       4   43653   43671   43686   43707       4
   43650   43626   43644   43662       2   43650   43626   43644   43665       1
   43650   43626   43644   43668       1   43647   43626   43644   43662       2
   43647   43626   43644   43665       1   43647   43626   43644   43668       1
   43644   43662   43674   43692       2   43644   43662   43674   43695       2
   43638   43620   43635   43653       4   43638   43620   43635   43659       4
   43635   43653   43632   43656       4   43632   43653   43635   43659       4
   43629   43614   43623   43641       4   43626   43608   43623   43641       4
   43626   43644   43662   43677       2   43626   43644   43662   43680       2
   43623   43608   43626   43647       7   43623   43608   43626   43650       7
   43617   43605   43620   43638       4   43611   43596   43608   43623       4
   43611   43596   43608   43626       4   43608   43623   43614   43629       4
   43608   43626   43644   43665       8   43608   43626   43644   43668       8
   43605   43617   43632   43656       4   43605   43620   43635   43659       4
   43602   43617   43632   43656       4   43599   43587   43596   43611       4
   43599   43614   43623   43641       4   43596   43608   43623   43641       4
   43596   43608   43626   43647       7   43596   43608   43626   43650       7
   43593   43605   43620   43638       4   43590   43599   43614   43629       4
   43587   43599   43614   43629       4   43584   43587   43596   43611       4
   43956   43941   43953   43959       1   43956   43941   43953   43962       1
   43956   43941   43953   43965       1   43950   43941   43953   43959       1
   43950   43941   43953   43962       1   43950   43941   43953   43965       1
   43947   43938   43941   43950       1   43947   43938   43941   43953       2
   43947   43938   43941   43956       1   43944   43938   43941   43950       1
   43944   43938   43941   43953       2   43944   43938   43941   43956       1
   43938   43941   43953   43959       2   43938   43941   43953   43962       2
   43938   43941   43953   43965       2   43935   43920   43938   43941       2
   43935   43920   43938   43944       1   43935   43920   43938   43947       1
   43932   43920   43938   43941       2   43932   43920   43938   43944       1
   43932   43920   43938   43947       1   43926   43902   43920   43932       1
   43926   43902   43920   43935       1   43926   43902   43920   43938       2
   43923   43902   43920   43932       1   43923   43902   43920   43935       1
   43923   43902   43920   43938       2   43920   43938   43941   43950       2
   43920   43938   43941   43956       2   43917   43896   43911   43929       4
   43914   43890   43911   43929       4   43908   43881   43902   43920       2
   43908   43881   43902   43923       1   43908   43881   43902   43926       1
   43905   43881   43902   43920       2   43905   43881   43902   43923       1
   43905   43881   43902   43926       1   43902   43920   43938   43944       2
   43902   43920   43938   43947       2   43899   43878   43896   43911       4
   43899   43878   43896   43917       4   43896   43911   43890   43914       4
   43893   43875   43890   43911       4   43893   43875   43890   43914       4
   43890   43911   43896   43917       4   43887   43866   43881   43902       2
   43887   43866   43881   43905       1   43887   43866   43881   43908       1
   43884   43866   43881   43902       2   43884   43866   43881   43905       1
   43884   43866   43881   43908       1   43881   43902   43920   43932       2
   43881   43902   43920   43935       2   43878   43863   43875   43893       4
   43878   43896   43911   43929       4   43875   43863   43878   43899       4
   43875   43890   43911   43929       4   43872   43854   43866   43881       2
   43872   43854   43866   43884       1   43872   43854   43866   43887       1
   43869   43854   43866   43881       2   43869   43854   43866   43884       1
   43869   43854   43866   43887       1   43866   43881   43902   43923       2
   43866   43881   43902   43926       2   43863   43875   43890   43914       4
   43863   43878   43896   43917       4   43860   43836   43854   43866       2
   43860   43836   43854   43869       1   43860   43836   43854   43872       1
   43857   43836   43854   43866       2   43857   43836   43854   43869       1
   43857   43836   43854   43872       1   43854   43866   43881   43905       2
   43854   43866   43881   43908       2   43851   43827   43845   43863       4
   43848   43824   43845   43863       4   43845   43863   43875   43893       4
   43845   43863   43878   43899       4   43842   43818   43836   43854       2
   43842   43818   43836   43857       1   43842   43818   43836   43860       1
   43839   43818   43836   43854       2   43839   43818   43836   43857       1
   43839   43818   43836   43860       1   43836   43854   43866   43884       2
   43836   43854   43866   43887       2   43830   43812   43827   43845       4
   43830   43812   43827   43851       4   43827   43845   43824   43848       4
   43824   43845   43827   43851       4   43821   43806   43815   43833       4
   43818   43800   43815   43833       4   43818   43836   43854   43869       2
   43818   43836   43854   43872       2   43815   43800   43818   43839       7
   43815   43800   43818   43842       7   43809   43797   43812   43830       4
   43803   43788   43800   43815       4   43803   43788   43800   43818       4
   43800   43815   43806   43821       4   43800   43818   43836   43857       8
   43800   43818   43836   43860       8   43797   43809   43824   43848       4
   43797   43812   43827   43851       4   43794   43809   43824   43848       4
   43791   43779   43788   43803       4   43791   43806   43815   43833       4
   43788   43800   43815   43833       4   43788   43800   43818   43839       7
   43788   43800   43818   43842       7   43785   43797   43812   43830       4
   43782   43791   43806   43821       4   43779   43791   43806   43821       4
   43776   43779   43788   43803       4   44148   44133   44145   44151       1
   44148   44133   44145   44154       1   44148   44133   44145   44157       1
   44142   44133   44145   44151       1   44142   44133   44145   44154       1
   44142   44133   44145   44157       1   44139   44130   44133   44142       1
   44139   44130   44133   44145       2   44139   44130   44133   44148       1
   44136   44130   44133   44142       1   44136   44130   44133   44145       2
   44136   44130   44133   44148       1   44130   44133   44145   44151       2
   44130   44133   44145   44154       2   44130   44133   44145   44157       2
   44127   44112   44130   44133       2   44127   44112   44130   44136       1
   44127   44112   44130   44139       1   44124   44112   44130   44133       2
   44124   44112   44130   44136       1   44124   44112   44130   44139       1
   44118   44094   44112   44124       1   44118   44094   44112   44127       1
   44118   44094   44112   44130       2   44115   44094   44112   44124       1
   44115   44094   44112   44127       1   44115   44094   44112   44130       2
   44112   44130   44133   44142       2   44112   44130   44133   44148       2
   44109   44088   44103   44121       4   44106   44082   44103   44121       4
   44100   44073   44094   44112       2   44100   44073   44094   44115       1
   44100   44073   44094   44118       1   44097   44073   44094   44112       2
   44097   44073   44094   44115       1   44097   44073   44094   44118       1
   44094   44112   44130   44136       2   44094   44112   44130   44139       2
   44091   44070   44088   44103       4   44091   44070   44088   44109       4
   44088   44103   44082   44106       4   44085   44067   44082   44103       4
   44085   44067   44082   44106       4   44082   44103   44088   44109       4
   44079   44058   44073   44094       2   44079   44058   44073   44097       1
   44079   44058   44073   44100       1   44076   44058   44073   44094       2
   44076   44058   44073   44097       1   44076   44058   44073   44100       1
   44073   44094   44112   44124       2   44073   44094   44112   44127       2
   44070   44055   44067   44085       4   44070   44088   44103   44121       4
   44067   44055   44070   44091       4   44067   44082   44103   44121       4
   44064   44046   44058   44073       2   44064   44046   44058   44076       1
   44064   44046   44058   44079       1   44061   44046   44058   44073       2
   44061   44046   44058   44076       1   44061   44046   44058   44079       1
   44058   44073   44094   44115       2   44058   44073   44094   44118       2
   44055   44067   44082   44106       4   44055   44070   44088   44109       4
   44052   44028   44046   44058       2   44052   44028   44046   44061       1
   44052   44028   44046   44064       1   44049   44028   44046   44058       2
   44049   44028   44046   44061       1   44049   44028   44046   44064       1
   44046   44058   44073   44097       2   44046   44058   44073   44100       2
   44043   44019   44037   44055       4   44040   44016   44037   44055       4
   44037   44055   44067   44085       4   44037   44055   44070   44091       4
   44034   44010   44028   44046       2   44034   44010   44028   44049       1
   44034   44010   44028   44052       1   44031   44010   44028   44046       2
   44031   44010   44028   44049       1   44031   44010   44028   44052       1
   44028   44046   44058   44076       2   44028   44046   44058   44079       2
   44022   44004   44019   44037       4   44022   44004   44019   44043       4
   44019   44037   44016   44040       4   44016   44037   44019   44043       4
   44013   43998   44007   44025       4   44010   43992   44007   44025       4
   44010   44028   44046   44061       2   44010   44028   44046   44064       2
   44007   43992   44010   44031       7   44007   43992   44010   44034       7
   44001   43989   44004   44022       4   43995   43980   43992   44007       4
   43995   43980   43992   44010       4   43992   44007   43998   44013       4
   43992   44010   44028   44049       8   43992   44010   44028   44052       8
   43989   44001   44016   44040       4   43989   44004   44019   44043       4
   43986   44001   44016   44040       4   43983   43971   43980   43995       4
   43983   43998   44007   44025       4   43980   43992   44007   44025       4
   43980   43992   44010   44031       7   43980   43992   44010   44034       7
   43977   43989   44004   44022       4   43974   43983   43998   44013       4
   43971   43983   43998   44013       4   43968   43971   43980   43995       4
   44340   44325   44337   44343       1   44340   44325   44337   44346       1
   44340   44325   44337   44349       1   44334   44325   44337   44343       1
   44334   44325   44337   44346       1   44334   44325   44337   44349       1
   44331   44322   44325   44334       1   44331   44322   44325   44337       2
   44331   44322   44325   44340       1   44328   44322   44325   44334       1
   44328   44322   44325   44337       2   44328   44322   44325   44340       1
   44322   44325   44337   44343       2   44322   44325   44337   44346       2
   44322   44325   44337   44349       2   44319   44304   44322   44325       2
   44319   44304   44322   44328       1   44319   44304   44322   44331       1
   44316   44304   44322   44325       2   44316   44304   44322   44328       1
   44316   44304   44322   44331       1   44310   44286   44304   44316       1
   44310   44286   44304   44319       1   44310   44286   44304   44322       2
   44307   44286   44304   44316       1   44307   44286   44304   44319       1
   44307   44286   44304   44322       2   44304   44322   44325   44334       2
   44304   44322   44325   44340       2   44301   44280   44295   44313       4
   44298   44274   44295   44313       4   44292   44265   44286   44304       2
   44292   44265   44286   44307       1   44292   44265   44286   44310       1
   44289   44265   44286   44304       2   44289   44265   44286   44307       1
   44289   44265   44286   44310       1   44286   44304   44322   44328       2
   44286   44304   44322   44331       2   44283   44262   44280   44295       4
   44283   44262   44280   44301       4   44280   44295   44274   44298       4
   44277   44259   44274   44295       4   44277   44259   44274   44298       4
   44274   44295   44280   44301       4   44271   44250   44265   44286       2
   44271   44250   44265   44289       1   44271   44250   44265   44292       1
   44268   44250   44265   44286       2   44268   44250   44265   44289       1
   44268   44250   44265   44292       1   44265   44286   44304   44316       2
   44265   44286   44304   44319       2   44262   44247   44259   44277       4
   44262   44280   44295   44313       4   44259   44247   44262   44283       4
   44259   44274   44295   44313       4   44256   44238   44250   44265       2
   44256   44238   44250   44268       1   44256   44238   44250   44271       1
   44253   44238   44250   44265       2   44253   44238   44250   44268       1
   44253   44238   44250   44271       1   44250   44265   44286   44307       2
   44250   44265   44286   44310       2   44247   44259   44274   44298       4
   44247   44262   44280   44301       4   44244   44220   44238   44250       2
   44244   44220   44238   44253       1   44244   44220   44238   44256       1
   44241   44220   44238   44250       2   44241   44220   44238   44253       1
   44241   44220   44238   44256       1   44238   44250   44265   44289       2
   44238   44250   44265   44292       2   44235   44211   44229   44247       4
   44232   44208   44229   44247       4   44229   44247   44259   44277       4
   44229   44247   44262   44283       4   44226   44202   44220   44238       2
   44226   44202   44220   44241       1   44226   44202   44220   44244       1
   44223   44202   44220   44238       2   44223   44202   44220   44241       1
   44223   44202   44220   44244       1   44220   44238   44250   44268       2
   44220   44238   44250   44271       2   44214   44196   44211   44229       4
   44214   44196   44211   44235       4   44211   44229   44208   44232       4
   44208   44229   44211   44235       4   44205   44190   44199   44217       4
   44202   44184   44199   44217       4   44202   44220   44238   44253       2
   44202   44220   44238   44256       2   44199   44184   44202   44223       7
   44199   44184   44202   44226       7   44193   44181   44196   44214       4
   44187   44172   44184   44199       4   44187   44172   44184   44202       4
   44184   44199   44190   44205       4   44184   44202   44220   44241       8
   44184   44202   44220   44244       8   44181   44193   44208   44232       4
   44181   44196   44211   44235       4   44178   44193   44208   44232       4
   44175   44163   44172   44187       4   44175   44190   44199   44217       4
   44172   44184   44199   44217       4   44172   44184   44202   44223       7
   44172   44184   44202   44226       7   44169   44181   44196   44214       4
   44166   44175   44190   44205       4   44163   44175   44190   44205       4
   44160   44163   44172   44187       4   44532   44517   44529   44535       1
   44532   44517   44529   44538       1   44532   44517   44529   44541       1
   44526   44517   44529   44535       1   44526   44517   44529   44538       1
   44526   44517   44529   44541       1   44523   44514   44517   44526       1
   44523   44514   44517   44529       2   44523   44514   44517   44532       1
   44520   44514   44517   44526       1   44520   44514   44517   44529       2
   44520   44514   44517   44532       1   44514   44517   44529   44535       2
   44514   44517   44529   44538       2   44514   44517   44529   44541       2
   44511   44496   44514   44517       2   44511   44496   44514   44520       1
   44511   44496   44514   44523       1   44508   44496   44514   44517       2
   44508   44496   44514   44520       1   44508   44496   44514   44523       1
   44502   44478   44496   44508       1   44502   44478   44496   44511       1
   44502   44478   44496   44514       2   44499   44478   44496   44508       1
   44499   44478   44496   44511       1   44499   44478   44496   44514       2
   44496   44514   44517   44526       2   44496   44514   44517   44532       2
   44493   44472   44487   44505       4   44490   44466   44487   44505       4
   44484   44457   44478   44496       2   44484   44457   44478   44499       1
   44484   44457   44478   44502       1   44481   44457   44478   44496       2
   44481   44457   44478   44499       1   44481   44457   44478   44502       1
   44478   44496   44514   44520       2   44478   44496   44514   44523       2
   44475   44454   44472   44487       4   44475   44454   44472   44493       4
   44472   44487   44466   44490       4   44469   44451   44466   44487       4
   44469   44451   44466   44490       4   44466   44487   44472   44493       4
   44463   44442   44457   44478       2   44463   44442   44457   44481       1
   44463   44442   44457   44484       1   44460   44442   44457   44478       2
   44460   44442   44457   44481       1   44460   44442   44457   44484       1
   44457   44478   44496   44508       2   44457   44478   44496   44511       2
   44454   44439   44451   44469       4   44454   44472   44487   44505       4
   44451   44439   44454   44475       4   44451   44466   44487   44505       4
   44448   44430   44442   44457       2   44448   44430   44442   44460       1
   44448   44430   44442   44463       1   44445   44430   44442   44457       2
   44445   44430   44442   44460       1   44445   44430   44442   44463       1
   44442   44457   44478   44499       2   44442   44457   44478   44502       2
   44439   44451   44466   44490       4   44439   44454   44472   44493       4
   44436   44412   44430   44442       2   44436   44412   44430   44445       1
   44436   44412   44430   44448       1   44433   44412   44430   44442       2
   44433   44412   44430   44445       1   44433   44412   44430   44448       1
   44430   44442   44457   44481       2   44430   44442   44457   44484       2
   44427   44403   44421   44439       4   44424   44400   44421   44439       4
   44421   44439   44451   44469       4   44421   44439   44454   44475       4
   44418   44394   44412   44430       2   44418   44394   44412   44433       1
   44418   44394   44412   44436       1   44415   44394   44412   44430       2
   44415   44394   44412   44433       1   44415   44394   44412   44436       1
   44412   44430   44442   44460       2   44412   44430   44442   44463       2
   44406   44388   44403   44421       4   44406   44388   44403   44427       4
   44403   44421   44400   44424       4   44400   44421   44403   44427       4
   44397   44382   44391   44409       4   44394   44376   44391   44409       4
   44394   44412   44430   44445       2   44394   44412   44430   44448       2
   44391   44376   44394   44415       7   44391   44376   44394   44418       7
   44385   44373   44388   44406       4   44379   44364   44376   44391       4
   44379   44364   44376   44394       4   44376   44391   44382   44397       4
   44376   44394   44412   44433       8   44376   44394   44412   44436       8
   44373   44385   44400   44424       4   44373   44388   44403   44427       4
   44370   44385   44400   44424       4   44367   44355   44364   44379       4
   44367   44382   44391   44409       4   44364   44376   44391   44409       4
   44364   44376   44394   44415       7   44364   44376   44394   44418       7
   44361   44373   44388   44406       4   44358   44367   44382   44397       4
   44355   44367   44382   44397       4   44352   44355   44364   44379       4
   44724   44709   44721   44727       1   44724   44709   44721   44730       1
   44724   44709   44721   44733       1   44718   44709   44721   44727       1
   44718   44709   44721   44730       1   44718   44709   44721   44733       1
   44715   44706   44709   44718       1   44715   44706   44709   44721       2
   44715   44706   44709   44724       1   44712   44706   44709   44718       1
   44712   44706   44709   44721       2   44712   44706   44709   44724       1
   44706   44709   44721   44727       2   44706   44709   44721   44730       2
   44706   44709   44721   44733       2   44703   44688   44706   44709       2
   44703   44688   44706   44712       1   44703   44688   44706   44715       1
   44700   44688   44706   44709       2   44700   44688   44706   44712       1
   44700   44688   44706   44715       1   44694   44670   44688   44700       1
   44694   44670   44688   44703       1   44694   44670   44688   44706       2
   44691   44670   44688   44700       1   44691   44670   44688   44703       1
   44691   44670   44688   44706       2   44688   44706   44709   44718       2
   44688   44706   44709   44724       2   44685   44664   44679   44697       4
   44682   44658   44679   44697       4   44676   44649   44670   44688       2
   44676   44649   44670   44691       1   44676   44649   44670   44694       1
   44673   44649   44670   44688       2   44673   44649   44670   44691       1
   44673   44649   44670   44694       1   44670   44688   44706   44712       2
   44670   44688   44706   44715       2   44667   44646   44664   44679       4
   44667   44646   44664   44685       4   44664   44679   44658   44682       4
   44661   44643   44658   44679       4   44661   44643   44658   44682       4
   44658   44679   44664   44685       4   44655   44634   44649   44670       2
   44655   44634   44649   44673       1   44655   44634   44649   44676       1
   44652   44634   44649   44670       2   44652   44634   44649   44673       1
   44652   44634   44649   44676       1   44649   44670   44688   44700       2
   44649   44670   44688   44703       2   44646   44631   44643   44661       4
   44646   44664   44679   44697       4   44643   44631   44646   44667       4
   44643   44658   44679   44697       4   44640   44622   44634   44649       2
   44640   44622   44634   44652       1   44640   44622   44634   44655       1
   44637   44622   44634   44649       2   44637   44622   44634   44652       1
   44637   44622   44634   44655       1   44634   44649   44670   44691       2
   44634   44649   44670   44694       2   44631   44643   44658   44682       4
   44631   44646   44664   44685       4   44628   44604   44622   44634       2
   44628   44604   44622   44637       1   44628   44604   44622   44640       1
   44625   44604   44622   44634       2   44625   44604   44622   44637       1
   44625   44604   44622   44640       1   44622   44634   44649   44673       2
   44622   44634   44649   44676       2   44619   44595   44613   44631       4
   44616   44592   44613   44631       4   44613   44631   44643   44661       4
   44613   44631   44646   44667       4   44610   44586   44604   44622       2
   44610   44586   44604   44625       1   44610   44586   44604   44628       1
   44607   44586   44604   44622       2   44607   44586   44604   44625       1
   44607   44586   44604   44628       1   44604   44622   44634   44652       2
   44604   44622   44634   44655       2   44598   44580   44595   44613       4
   44598   44580   44595   44619       4   44595   44613   44592   44616       4
   44592   44613   44595   44619       4   44589   44574   44583   44601       4
   44586   44568   44583   44601       4   44586   44604   44622   44637       2
   44586   44604   44622   44640       2   44583   44568   44586   44607       7
   44583   44568   44586   44610       7   44577   44565   44580   44598       4
   44571   44556   44568   44583       4   44571   44556   44568   44586       4
   44568   44583   44574   44589       4   44568   44586   44604   44625       8
   44568   44586   44604   44628       8   44565   44577   44592   44616       4
   44565   44580   44595   44619       4   44562   44577   44592   44616       4
   44559   44547   44556   44571       4   44559   44574   44583   44601       4
   44556   44568   44583   44601       4   44556   44568   44586   44607       7
   44556   44568   44586   44610       7   44553   44565   44580   44598       4
   44550   44559   44574   44589       4   44547   44559   44574   44589       4
   44544   44547   44556   44571       4   44916   44901   44913   44919       1
   44916   44901   44913   44922       1   44916   44901   44913   44925       1
   44910   44901   44913   44919       1   44910   44901   44913   44922       1
   44910   44901   44913   44925       1   44907   44898   44901   44910       1
   44907   44898   44901   44913       2   44907   44898   44901   44916       1
   44904   44898   44901   44910       1   44904   44898   44901   44913       2
   44904   44898   44901   44916       1   44898   44901   44913   44919       2
   44898   44901   44913   44922       2   44898   44901   44913   44925       2
   44895   44880   44898   44901       2   44895   44880   44898   44904       1
   44895   44880   44898   44907       1   44892   44880   44898   44901       2
   44892   44880   44898   44904       1   44892   44880   44898   44907       1
   44886   44862   44880   44892       1   44886   44862   44880   44895       1
   44886   44862   44880   44898       2   44883   44862   44880   44892       1
   44883   44862   44880   44895       1   44883   44862   44880   44898       2
   44880   44898   44901   44910       2   44880   44898   44901   44916       2
   44877   44856   44871   44889       4   44874   44850   44871   44889       4
   44868   44841   44862   44880       2   44868   44841   44862   44883       1
   44868   44841   44862   44886       1   44865   44841   44862   44880       2
   44865   44841   44862   44883       1   44865   44841   44862   44886       1
   44862   44880   44898   44904       2   44862   44880   44898   44907       2
   44859   44838   44856   44871       4   44859   44838   44856   44877       4
   44856   44871   44850   44874       4   44853   44835   44850   44871       4
   44853   44835   44850   44874       4   44850   44871   44856   44877       4
   44847   44826   44841   44862       2   44847   44826   44841   44865       1
   44847   44826   44841   44868       1   44844   44826   44841   44862       2
   44844   44826   44841   44865       1   44844   44826   44841   44868       1
   44841   44862   44880   44892       2   44841   44862   44880   44895       2
   44838   44823   44835   44853       4   44838   44856   44871   44889       4
   44835   44823   44838   44859       4   44835   44850   44871   44889       4
   44832   44814   44826   44841       2   44832   44814   44826   44844       1
   44832   44814   44826   44847       1   44829   44814   44826   44841       2
   44829   44814   44826   44844       1   44829   44814   44826   44847       1
   44826   44841   44862   44883       2   44826   44841   44862   44886       2
   44823   44835   44850   44874       4   44823   44838   44856   44877       4
   44820   44796   44814   44826       2   44820   44796   44814   44829       1
   44820   44796   44814   44832       1   44817   44796   44814   44826       2
   44817   44796   44814   44829       1   44817   44796   44814   44832       1
   44814   44826   44841   44865       2   44814   44826   44841   44868       2
   44811   44787   44805   44823       4   44808   44784   44805   44823       4
   44805   44823   44835   44853       4   44805   44823   44838   44859       4
   44802   44778   44796   44814       2   44802   44778   44796   44817       1
   44802   44778   44796   44820       1   44799   44778   44796   44814       2
   44799   44778   44796   44817       1   44799   44778   44796   44820       1
   44796   44814   44826   44844       2   44796   44814   44826   44847       2
   44790   44772   44787   44805       4   44790   44772   44787   44811       4
   44787   44805   44784   44808       4   44784   44805   44787   44811       4
   44781   44766   44775   44793       4   44778   44760   44775   44793       4
   44778   44796   44814   44829       2   44778   44796   44814   44832       2
   44775   44760   44778   44799       7   44775   44760   44778   44802       7
   44769   44757   44772   44790       4   44763   44748   44760   44775       4
   44763   44748   44760   44778       4   44760   44775   44766   44781       4
   44760   44778   44796   44817       8   44760   44778   44796   44820       8
   44757   44769   44784   44808       4   44757   44772   44787   44811       4
   44754   44769   44784   44808       4   44751   44739   44748   44763       4
   44751   44766   44775   44793       4   44748   44760   44775   44793       4
   44748   44760   44778   44799       7   44748   44760   44778   44802       7
   44745   44757   44772   44790       4   44742   44751   44766   44781       4
   44739   44751   44766   44781       4   44736   44739   44748   44763       4
   45108   45093   45105   45111       1   45108   45093   45105   45114       1
   45108   45093   45105   45117       1   45102   45093   45105   45111       1
   45102   45093   45105   45114       1   45102   45093   45105   45117       1
   45099   45090   45093   45102       1   45099   45090   45093   45105       2
   45099   45090   45093   45108       1   45096   45090   45093   45102       1
   45096   45090   45093   45105       2   45096   45090   45093   45108       1
   45090   45093   45105   45111       2   45090   45093   45105   45114       2
   45090   45093   45105   45117       2   45087   45072   45090   45093       2
   45087   45072   45090   45096       1   45087   45072   45090   45099       1
   45084   45072   45090   45093       2   45084   45072   45090   45096       1
   45084   45072   45090   45099       1   45078   45054   45072   45084       1
   45078   45054   45072   45087       1   45078   45054   45072   45090       2
   45075   45054   45072   45084       1   45075   45054   45072   45087       1
   45075   45054   45072   45090       2   45072   45090   45093   45102       2
   45072   45090   45093   45108       2   45069   45048   45063   45081       4
   45066   45042   45063   45081       4   45060   45033   45054   45072       2
   45060   45033   45054   45075       1   45060   45033   45054   45078       1
   45057   45033   45054   45072       2   45057   45033   45054   45075       1
   45057   45033   45054   45078       1   45054   45072   45090   45096       2
   45054   45072   45090   45099       2   45051   45030   45048   45063       4
   45051   45030   45048   45069       4   45048   45063   45042   45066       4
   45045   45027   45042   45063       4   45045   45027   45042   45066       4
   45042   45063   45048   45069       4   45039   45018   45033   45054       2
   45039   45018   45033   45057       1   45039   45018   45033   45060       1
   45036   45018   45033   45054       2   45036   45018   45033   45057       1
   45036   45018   45033   45060       1   45033   45054   45072   45084       2
   45033   45054   45072   45087       2   45030   45015   45027   45045       4
   45030   45048   45063   45081       4   45027   45015   45030   45051       4
   45027   45042   45063   45081       4   45024   45006   45018   45033       2
   45024   45006   45018   45036       1   45024   45006   45018   45039       1
   45021   45006   45018   45033       2   45021   45006   45018   45036       1
   45021   45006   45018   45039       1   45018   45033   45054   45075       2
   45018   45033   45054   45078       2   45015   45027   45042   45066       4
   45015   45030   45048   45069       4   45012   44988   45006   45018       2
   45012   44988   45006   45021       1   45012   44988   45006   45024       1
   45009   44988   45006   45018       2   45009   44988   45006   45021       1
   45009   44988   45006   45024       1   45006   45018   45033   45057       2
   45006   45018   45033   45060       2   45003   44979   44997   45015       4
   45000   44976   44997   45015       4   44997   45015   45027   45045       4
   44997   45015   45030   45051       4   44994   44970   44988   45006       2
   44994   44970   44988   45009       1   44994   44970   44988   45012       1
   44991   44970   44988   45006       2   44991   44970   44988   45009       1
   44991   44970   44988   45012       1   44988   45006   45018   45036       2
   44988   45006   45018   45039       2   44982   44964   44979   44997       4
   44982   44964   44979   45003       4   44979   44997   44976   45000       4
   44976   44997   44979   45003       4   44973   44958   44967   44985       4
   44970   44952   44967   44985       4   44970   44988   45006   45021       2
   44970   44988   45006   45024       2   44967   44952   44970   44991       7
   44967   44952   44970   44994       7   44961   44949   44964   44982       4
   44955   44940   44952   44967       4   44955   44940   44952   44970       4
   44952   44967   44958   44973       4   44952   44970   44988   45009       8
   44952   44970   44988   45012       8   44949   44961   44976   45000       4
   44949   44964   44979   45003       4   44946   44961   44976   45000       4
   44943   44931   44940   44955       4   44943   44958   44967   44985       4
   44940   44952   44967   44985       4   44940   44952   44970   44991       7
   44940   44952   44970   44994       7   44937   44949   44964   44982       4
   44934   44943   44958   44973       4   44931   44943   44958   44973       4
   44928   44931   44940   44955       4   45300   45285   45297   45303       1
   45300   45285   45297   45306       1   45300   45285   45297   45309       1
   45294   45285   45297   45303       1   45294   45285   45297   45306       1
   45294   45285   45297   45309       1   45291   45282   45285   45294       1
   45291   45282   45285   45297       2   45291   45282   45285   45300       1
   45288   45282   45285   45294       1   45288   45282   45285   45297       2
   45288   45282   45285   45300       1   45282   45285   45297   45303       2
   45282   45285   45297   45306       2   45282   45285   45297   45309       2
   45279   45264   45282   45285       2   45279   45264   45282   45288       1
   45279   45264   45282   45291       1   45276   45264   45282   45285       2
   45276   45264   45282   45288       1   45276   45264   45282   45291       1
   45270   45246   45264   45276       1   45270   45246   45264   45279       1
   45270   45246   45264   45282       2   45267   45246   45264   45276       1
   45267   45246   45264   45279       1   45267   45246   45264   45282       2
   45264   45282   45285   45294       2   45264   45282   45285   45300       2
   45261   45240   45255   45273       4   45258   45234   45255   45273       4
   45252   45225   45246   45264       2   45252   45225   45246   45267       1
   45252   45225   45246   45270       1   45249   45225   45246   45264       2
   45249   45225   45246   45267       1   45249   45225   45246   45270       1
   45246   45264   45282   45288       2   45246   45264   45282   45291       2
   45243   45222   45240   45255       4   45243   45222   45240   45261       4
   45240   45255   45234   45258       4   45237   45219   45234   45255       4
   45237   45219   45234   45258       4   45234   45255   45240   45261       4
   45231   45210   45225   45246       2   45231   45210   45225   45249       1
   45231   45210   45225   45252       1   45228   45210   45225   45246       2
   45228   45210   45225   45249       1   45228   45210   45225   45252       1
   45225   45246   45264   45276       2   45225   45246   45264   45279       2
   45222   45207   45219   45237       4   45222   45240   45255   45273       4
   45219   45207   45222   45243       4   45219   45234   45255   45273       4
   45216   45198   45210   45225       2   45216   45198   45210   45228       1
   45216   45198   45210   45231       1   45213   45198   45210   45225       2
   45213   45198   45210   45228       1   45213   45198   45210   45231       1
   45210   45225   45246   45267       2   45210   45225   45246   45270       2
   45207   45219   45234   45258       4   45207   45222   45240   45261       4
   45204   45180   45198   45210       2   45204   45180   45198   45213       1
   45204   45180   45198   45216       1   45201   45180   45198   45210       2
   45201   45180   45198   45213       1   45201   45180   45198   45216       1
   45198   45210   45225   45249       2   45198   45210   45225   45252       2
   45195   45171   45189   45207       4   45192   45168   45189   45207       4
   45189   45207   45219   45237       4   45189   45207   45222   45243       4
   45186   45162   45180   45198       2   45186   45162   45180   45201       1
   45186   45162   45180   45204       1   45183   45162   45180   45198       2
   45183   45162   45180   45201       1   45183   45162   45180   45204       1
   45180   45198   45210   45228       2   45180   45198   45210   45231       2
   45174   45156   45171   45189       4   45174   45156   45171   45195       4
   45171   45189   45168   45192       4   45168   45189   45171   45195       4
   45165   45150   45159   45177       4   45162   45144   45159   45177       4
   45162   45180   45198   45213       2   45162   45180   45198   45216       2
   45159   45144   45162   45183       7   45159   45144   45162   45186       7
   45153   45141   45156   45174       4   45147   45132   45144   45159       4
   45147   45132   45144   45162       4   45144   45159   45150   45165       4
   45144   45162   45180   45201       8   45144   45162   45180   45204       8
   45141   45153   45168   45192       4   45141   45156   45171   45195       4
   45138   45153   45168   45192       4   45135   45123   45132   45147       4
   45135   45150   45159   45177       4   45132   45144   45159   45177       4
   45132   45144   45162   45183       7   45132   45144   45162   45186       7
   45129   45141   45156   45174       4   45126   45135   45150   45165       4
   45123   45135   45150   45165       4   45120   45123   45132   45147       4
   45492   45477   45489   45495       1   45492   45477   45489   45498       1
   45492   45477   45489   45501       1   45486   45477   45489   45495       1
   45486   45477   45489   45498       1   45486   45477   45489   45501       1
   45483   45474   45477   45486       1   45483   45474   45477   45489       2
   45483   45474   45477   45492       1   45480   45474   45477   45486       1
   45480   45474   45477   45489       2   45480   45474   45477   45492       1
   45474   45477   45489   45495       2   45474   45477   45489   45498       2
   45474   45477   45489   45501       2   45471   45456   45474   45477       2
   45471   45456   45474   45480       1   45471   45456   45474   45483       1
   45468   45456   45474   45477       2   45468   45456   45474   45480       1
   45468   45456   45474   45483       1   45462   45438   45456   45468       1
   45462   45438   45456   45471       1   45462   45438   45456   45474       2
   45459   45438   45456   45468       1   45459   45438   45456   45471       1
   45459   45438   45456   45474       2   45456   45474   45477   45486       2
   45456   45474   45477   45492       2   45453   45432   45447   45465       4
   45450   45426   45447   45465       4   45444   45417   45438   45456       2
   45444   45417   45438   45459       1   45444   45417   45438   45462       1
   45441   45417   45438   45456       2   45441   45417   45438   45459       1
   45441   45417   45438   45462       1   45438   45456   45474   45480       2
   45438   45456   45474   45483       2   45435   45414   45432   45447       4
   45435   45414   45432   45453       4   45432   45447   45426   45450       4
   45429   45411   45426   45447       4   45429   45411   45426   45450       4
   45426   45447   45432   45453       4   45423   45402   45417   45438       2
   45423   45402   45417   45441       1   45423   45402   45417   45444       1
   45420   45402   45417   45438       2   45420   45402   45417   45441       1
   45420   45402   45417   45444       1   45417   45438   45456   45468       2
   45417   45438   45456   45471       2   45414   45399   45411   45429       4
   45414   45432   45447   45465       4   45411   45399   45414   45435       4
   45411   45426   45447   45465       4   45408   45390   45402   45417       2
   45408   45390   45402   45420       1   45408   45390   45402   45423       1
   45405   45390   45402   45417       2   45405   45390   45402   45420       1
   45405   45390   45402   45423       1   45402   45417   45438   45459       2
   45402   45417   45438   45462       2   45399   45411   45426   45450       4
   45399   45414   45432   45453       4   45396   45372   45390   45402       2
   45396   45372   45390   45405       1   45396   45372   45390   45408       1
   45393   45372   45390   45402       2   45393   45372   45390   45405       1
   45393   45372   45390   45408       1   45390   45402   45417   45441       2
   45390   45402   45417   45444       2   45387   45363   45381   45399       4
   45384   45360   45381   45399       4   45381   45399   45411   45429       4
   45381   45399   45414   45435       4   45378   45354   45372   45390       2
   45378   45354   45372   45393       1   45378   45354   45372   45396       1
   45375   45354   45372   45390       2   45375   45354   45372   45393       1
   45375   45354   45372   45396       1   45372   45390   45402   45420       2
   45372   45390   45402   45423       2   45366   45348   45363   45381       4
   45366   45348   45363   45387       4   45363   45381   45360   45384       4
   45360   45381   45363   45387       4   45357   45342   45351   45369       4
   45354   45336   45351   45369       4   45354   45372   45390   45405       2
   45354   45372   45390   45408       2   45351   45336   45354   45375       7
   45351   45336   45354   45378       7   45345   45333   45348   45366       4
   45339   45324   45336   45351       4   45339   45324   45336   45354       4
   45336   45351   45342   45357       4   45336   45354   45372   45393       8
   45336   45354   45372   45396       8   45333   45345   45360   45384       4
   45333   45348   45363   45387       4   45330   45345   45360   45384       4
   45327   45315   45324   45339       4   45327   45342   45351   45369       4
   45324   45336   45351   45369       4   45324   45336   45354   45375       7
   45324   45336   45354   45378       7   45321   45333   45348   45366       4
   45318   45327   45342   45357       4   45315   45327   45342   45357       4
   45312   45315   45324   45339       4   45684   45669   45681   45687       1
   45684   45669   45681   45690       1   45684   45669   45681   45693       1
   45678   45669   45681   45687       1   45678   45669   45681   45690       1
   45678   45669   45681   45693       1   45675   45666   45669   45678       1
   45675   45666   45669   45681       2   45675   45666   45669   45684       1
   45672   45666   45669   45678       1   45672   45666   45669   45681       2
   45672   45666   45669   45684       1   45666   45669   45681   45687       2
   45666   45669   45681   45690       2   45666   45669   45681   45693       2
   45663   45648   45666   45669       2   45663   45648   45666   45672       1
   45663   45648   45666   45675       1   45660   45648   45666   45669       2
   45660   45648   45666   45672       1   45660   45648   45666   45675       1
   45654   45630   45648   45660       1   45654   45630   45648   45663       1
   45654   45630   45648   45666       2   45651   45630   45648   45660       1
   45651   45630   45648   45663       1   45651   45630   45648   45666       2
   45648   45666   45669   45678       2   45648   45666   45669   45684       2
   45645   45624   45639   45657       4   45642   45618   45639   45657       4
   45636   45609   45630   45648       2   45636   45609   45630   45651       1
   45636   45609   45630   45654       1   45633   45609   45630   45648       2
   45633   45609   45630   45651       1   45633   45609   45630   45654       1
   45630   45648   45666   45672       2   45630   45648   45666   45675       2
   45627   45606   45624   45639       4   45627   45606   45624   45645       4
   45624   45639   45618   45642       4   45621   45603   45618   45639       4
   45621   45603   45618   45642       4   45618   45639   45624   45645       4
   45615   45594   45609   45630       2   45615   45594   45609   45633       1
   45615   45594   45609   45636       1   45612   45594   45609   45630       2
   45612   45594   45609   45633       1   45612   45594   45609   45636       1
   45609   45630   45648   45660       2   45609   45630   45648   45663       2
   45606   45591   45603   45621       4   45606   45624   45639   45657       4
   45603   45591   45606   45627       4   45603   45618   45639   45657       4
   45600   45582   45594   45609       2   45600   45582   45594   45612       1
   45600   45582   45594   45615       1   45597   45582   45594   45609       2
   45597   45582   45594   45612       1   45597   45582   45594   45615       1
   45594   45609   45630   45651       2   45594   45609   45630   45654       2
   45591   45603   45618   45642       4   45591   45606   45624   45645       4
   45588   45564   45582   45594       2   45588   45564   45582   45597       1
   45588   45564   45582   45600       1   45585   45564   45582   45594       2
   45585   45564   45582   45597       1   45585   45564   45582   45600       1
   45582   45594   45609   45633       2   45582   45594   45609   45636       2
   45579   45555   45573   45591       4   45576   45552   45573   45591       4
   45573   45591   45603   45621       4   45573   45591   45606   45627       4
   45570   45546   45564   45582       2   45570   45546   45564   45585       1
   45570   45546   45564   45588       1   45567   45546   45564   45582       2
   45567   45546   45564   45585       1   45567   45546   45564   45588       1
   45564   45582   45594   45612       2   45564   45582   45594   45615       2
   45558   45540   45555   45573       4   45558   45540   45555   45579       4
   45555   45573   45552   45576       4   45552   45573   45555   45579       4
   45549   45534   45543   45561       4   45546   45528   45543   45561       4
   45546   45564   45582   45597       2   45546   45564   45582   45600       2
   45543   45528   45546   45567       7   45543   45528   45546   45570       7
   45537   45525   45540   45558       4   45531   45516   45528   45543       4
   45531   45516   45528   45546       4   45528   45543   45534   45549       4
   45528   45546   45564   45585       8   45528   45546   45564   45588       8
   45525   45537   45552   45576       4   45525   45540   45555   45579       4
   45522   45537   45552   45576       4   45519   45507   45516   45531       4
   45519   45534   45543   45561       4   45516   45528   45543   45561       4
   45516   45528   45546   45567       7   45516   45528   45546   45570       7
   45513   45525   45540   45558       4   45510   45519   45534   45549       4
   45507   45519   45534   45549       4   45504   45507   45516   45531       4
   45876   45861   45873   45879       1   45876   45861   45873   45882       1
   45876   45861   45873   45885       1   45870   45861   45873   45879       1
   45870   45861   45873   45882       1   45870   45861   45873   45885       1
   45867   45858   45861   45870       1   45867   45858   45861   45873       2
   45867   45858   45861   45876       1   45864   45858   45861   45870       1
   45864   45858   45861   45873       2   45864   45858   45861   45876       1
   45858   45861   45873   45879       2   45858   45861   45873   45882       2
   45858   45861   45873   45885       2   45855   45840   45858   45861       2
   45855   45840   45858   45864       1   45855   45840   45858   45867       1
   45852   45840   45858   45861       2   45852   45840   45858   45864       1
   45852   45840   45858   45867       1   45846   45822   45840   45852       1
   45846   45822   45840   45855       1   45846   45822   45840   45858       2
   45843   45822   45840   45852       1   45843   45822   45840   45855       1
   45843   45822   45840   45858       2   45840   45858   45861   45870       2
   45840   45858   45861   45876       2   45837   45816   45831   45849       4
   45834   45810   45831   45849       4   45828   45801   45822   45840       2
   45828   45801   45822   45843       1   45828   45801   45822   45846       1
   45825   45801   45822   45840       2   45825   45801   45822   45843       1
   45825   45801   45822   45846       1   45822   45840   45858   45864       2
   45822   45840   45858   45867       2   45819   45798   45816   45831       4
   45819   45798   45816   45837       4   45816   45831   45810   45834       4
   45813   45795   45810   45831       4   45813   45795   45810   45834       4
   45810   45831   45816   45837       4   45807   45786   45801   45822       2
   45807   45786   45801   45825       1   45807   45786   45801   45828       1
   45804   45786   45801   45822       2   45804   45786   45801   45825       1
   45804   45786   45801   45828       1   45801   45822   45840   45852       2
   45801   45822   45840   45855       2   45798   45783   45795   45813       4
   45798   45816   45831   45849       4   45795   45783   45798   45819       4
   45795   45810   45831   45849       4   45792   45774   45786   45801       2
   45792   45774   45786   45804       1   45792   45774   45786   45807       1
   45789   45774   45786   45801       2   45789   45774   45786   45804       1
   45789   45774   45786   45807       1   45786   45801   45822   45843       2
   45786   45801   45822   45846       2   45783   45795   45810   45834       4
   45783   45798   45816   45837       4   45780   45756   45774   45786       2
   45780   45756   45774   45789       1   45780   45756   45774   45792       1
   45777   45756   45774   45786       2   45777   45756   45774   45789       1
   45777   45756   45774   45792       1   45774   45786   45801   45825       2
   45774   45786   45801   45828       2   45771   45747   45765   45783       4
   45768   45744   45765   45783       4   45765   45783   45795   45813       4
   45765   45783   45798   45819       4   45762   45738   45756   45774       2
   45762   45738   45756   45777       1   45762   45738   45756   45780       1
   45759   45738   45756   45774       2   45759   45738   45756   45777       1
   45759   45738   45756   45780       1   45756   45774   45786   45804       2
   45756   45774   45786   45807       2   45750   45732   45747   45765       4
   45750   45732   45747   45771       4   45747   45765   45744   45768       4
   45744   45765   45747   45771       4   45741   45726   45735   45753       4
   45738   45720   45735   45753       4   45738   45756   45774   45789       2
   45738   45756   45774   45792       2   45735   45720   45738   45759       7
   45735   45720   45738   45762       7   45729   45717   45732   45750       4
   45723   45708   45720   45735       4   45723   45708   45720   45738       4
   45720   45735   45726   45741       4   45720   45738   45756   45777       8
   45720   45738   45756   45780       8   45717   45729   45744   45768       4
   45717   45732   45747   45771       4   45714   45729   45744   45768       4
   45711   45699   45708   45723       4   45711   45726   45735   45753       4
   45708   45720   45735   45753       4   45708   45720   45738   45759       7
   45708   45720   45738   45762       7   45705   45717   45732   45750       4
   45702   45711   45726   45741       4   45699   45711   45726   45741       4
   45696   45699   45708   45723       4   46068   46053   46065   46071       1
   46068   46053   46065   46074       1   46068   46053   46065   46077       1
   46062   46053   46065   46071       1   46062   46053   46065   46074       1
   46062   46053   46065   46077       1   46059   46050   46053   46062       1
   46059   46050   46053   46065       2   46059   46050   46053   46068       1
   46056   46050   46053   46062       1   46056   46050   46053   46065       2
   46056   46050   46053   46068       1   46050   46053   46065   46071       2
   46050   46053   46065   46074       2   46050   46053   46065   46077       2
   46047   46032   46050   46053       2   46047   46032   46050   46056       1
   46047   46032   46050   46059       1   46044   46032   46050   46053       2
   46044   46032   46050   46056       1   46044   46032   46050   46059       1
   46038   46014   46032   46044       1   46038   46014   46032   46047       1
   46038   46014   46032   46050       2   46035   46014   46032   46044       1
   46035   46014   46032   46047       1   46035   46014   46032   46050       2
   46032   46050   46053   46062       2   46032   46050   46053   46068       2
   46029   46008   46023   46041       4   46026   46002   46023   46041       4
   46020   45993   46014   46032       2   46020   45993   46014   46035       1
   46020   45993   46014   46038       1   46017   45993   46014   46032       2
   46017   45993   46014   46035       1   46017   45993   46014   46038       1
   46014   46032   46050   46056       2   46014   46032   46050   46059       2
   46011   45990   46008   46023       4   46011   45990   46008   46029       4
   46008   46023   46002   46026       4   46005   45987   46002   46023       4
   46005   45987   46002   46026       4   46002   46023   46008   46029       4
   45999   45978   45993   46014       2   45999   45978   45993   46017       1
   45999   45978   45993   46020       1   45996   45978   45993   46014       2
   45996   45978   45993   46017       1   45996   45978   45993   46020       1
   45993   46014   46032   46044       2   45993   46014   46032   46047       2
   45990   45975   45987   46005       4   45990   46008   46023   46041       4
   45987   45975   45990   46011       4   45987   46002   46023   46041       4
   45984   45966   45978   45993       2   45984   45966   45978   45996       1
   45984   45966   45978   45999       1   45981   45966   45978   45993       2
   45981   45966   45978   45996       1   45981   45966   45978   45999       1
   45978   45993   46014   46035       2   45978   45993   46014   46038       2
   45975   45987   46002   46026       4   45975   45990   46008   46029       4
   45972   45948   45966   45978       2   45972   45948   45966   45981       1
   45972   45948   45966   45984       1   45969   45948   45966   45978       2
   45969   45948   45966   45981       1   45969   45948   45966   45984       1
   45966   45978   45993   46017       2   45966   45978   45993   46020       2
   45963   45939   45957   45975       4   45960   45936   45957   45975       4
   45957   45975   45987   46005       4   45957   45975   45990   46011       4
   45954   45930   45948   45966       2   45954   45930   45948   45969       1
   45954   45930   45948   45972       1   45951   45930   45948   45966       2
   45951   45930   45948   45969       1   45951   45930   45948   45972       1
   45948   45966   45978   45996       2   45948   45966   45978   45999       2
   45942   45924   45939   45957       4   45942   45924   45939   45963       4
   45939   45957   45936   45960       4   45936   45957   45939   45963       4
   45933   45918   45927   45945       4   45930   45912   45927   45945       4
   45930   45948   45966   45981       2   45930   45948   45966   45984       2
   45927   45912   45930   45951       7   45927   45912   45930   45954       7
   45921   45909   45924   45942       4   45915   45900   45912   45927       4
   45915   45900   45912   45930       4   45912   45927   45918   45933       4
   45912   45930   45948   45969       8   45912   45930   45948   45972       8
   45909   45921   45936   45960       4   45909   45924   45939   45963       4
   45906   45921   45936   45960       4   45903   45891   45900   45915       4
   45903   45918   45927   45945       4   45900   45912   45927   45945       4
   45900   45912   45930   45951       7   45900   45912   45930   45954       7
   45897   45909   45924   45942       4   45894   45903   45918   45933       4
   45891   45903   45918   45933       4   45888   45891   45900   45915       4
   46260   46245   46257   46263       1   46260   46245   46257   46266       1
   46260   46245   46257   46269       1   46254   46245   46257   46263       1
   46254   46245   46257   46266       1   46254   46245   46257   46269       1
   46251   46242   46245   46254       1   46251   46242   46245   46257       2
   46251   46242   46245   46260       1   46248   46242   46245   46254       1
   46248   46242   46245   46257       2   46248   46242   46245   46260       1
   46242   46245   46257   46263       2   46242   46245   46257   46266       2
   46242   46245   46257   46269       2   46239   46224   46242   46245       2
   46239   46224   46242   46248       1   46239   46224   46242   46251       1
   46236   46224   46242   46245       2   46236   46224   46242   46248       1
   46236   46224   46242   46251       1   46230   46206   46224   46236       1
   46230   46206   46224   46239       1   46230   46206   46224   46242       2
   46227   46206   46224   46236       1   46227   46206   46224   46239       1
   46227   46206   46224   46242       2   46224   46242   46245   46254       2
   46224   46242   46245   46260       2   46221   46200   46215   46233       4
   46218   46194   46215   46233       4   46212   46185   46206   46224       2
   46212   46185   46206   46227       1   46212   46185   46206   46230       1
   46209   46185   46206   46224       2   46209   46185   46206   46227       1
   46209   46185   46206   46230       1   46206   46224   46242   46248       2
   46206   46224   46242   46251       2   46203   46182   46200   46215       4
   46203   46182   46200   46221       4   46200   46215   46194   46218       4
   46197   46179   46194   46215       4   46197   46179   46194   46218       4
   46194   46215   46200   46221       4   46191   46170   46185   46206       2
   46191   46170   46185   46209       1   46191   46170   46185   46212       1
   46188   46170   46185   46206       2   46188   46170   46185   46209       1
   46188   46170   46185   46212       1   46185   46206   46224   46236       2
   46185   46206   46224   46239       2   46182   46167   46179   46197       4
   46182   46200   46215   46233       4   46179   46167   46182   46203       4
   46179   46194   46215   46233       4   46176   46158   46170   46185       2
   46176   46158   46170   46188       1   46176   46158   46170   46191       1
   46173   46158   46170   46185       2   46173   46158   46170   46188       1
   46173   46158   46170   46191       1   46170   46185   46206   46227       2
   46170   46185   46206   46230       2   46167   46179   46194   46218       4
   46167   46182   46200   46221       4   46164   46140   46158   46170       2
   46164   46140   46158   46173       1   46164   46140   46158   46176       1
   46161   46140   46158   46170       2   46161   46140   46158   46173       1
   46161   46140   46158   46176       1   46158   46170   46185   46209       2
   46158   46170   46185   46212       2   46155   46131   46149   46167       4
   46152   46128   46149   46167       4   46149   46167   46179   46197       4
   46149   46167   46182   46203       4   46146   46122   46140   46158       2
   46146   46122   46140   46161       1   46146   46122   46140   46164       1
   46143   46122   46140   46158       2   46143   46122   46140   46161       1
   46143   46122   46140   46164       1   46140   46158   46170   46188       2
   46140   46158   46170   46191       2   46134   46116   46131   46149       4
   46134   46116   46131   46155       4   46131   46149   46128   46152       4
   46128   46149   46131   46155       4   46125   46110   46119   46137       4
   46122   46104   46119   46137       4   46122   46140   46158   46173       2
   46122   46140   46158   46176       2   46119   46104   46122   46143       7
   46119   46104   46122   46146       7   46113   46101   46116   46134       4
   46107   46092   46104   46119       4   46107   46092   46104   46122       4
   46104   46119   46110   46125       4   46104   46122   46140   46161       8
   46104   46122   46140   46164       8   46101   46113   46128   46152       4
   46101   46116   46131   46155       4   46098   46113   46128   46152       4
   46095   46083   46092   46107       4   46095   46110   46119   46137       4
   46092   46104   46119   46137       4   46092   46104   46122   46143       7
   46092   46104   46122   46146       7   46089   46101   46116   46134       4
   46086   46095   46110   46125       4   46083   46095   46110   46125       4
   46080   46083   46092   46107       4   46452   46437   46449   46455       1
   46452   46437   46449   46458       1   46452   46437   46449   46461       1
   46446   46437   46449   46455       1   46446   46437   46449   46458       1
   46446   46437   46449   46461       1   46443   46434   46437   46446       1
   46443   46434   46437   46449       2   46443   46434   46437   46452       1
   46440   46434   46437   46446       1   46440   46434   46437   46449       2
   46440   46434   46437   46452       1   46434   46437   46449   46455       2
   46434   46437   46449   46458       2   46434   46437   46449   46461       2
   46431   46416   46434   46437       2   46431   46416   46434   46440       1
   46431   46416   46434   46443       1   46428   46416   46434   46437       2
   46428   46416   46434   46440       1   46428   46416   46434   46443       1
   46422   46398   46416   46428       1   46422   46398   46416   46431       1
   46422   46398   46416   46434       2   46419   46398   46416   46428       1
   46419   46398   46416   46431       1   46419   46398   46416   46434       2
   46416   46434   46437   46446       2   46416   46434   46437   46452       2
   46413   46392   46407   46425       4   46410   46386   46407   46425       4
   46404   46377   46398   46416       2   46404   46377   46398   46419       1
   46404   46377   46398   46422       1   46401   46377   46398   46416       2
   46401   46377   46398   46419       1   46401   46377   46398   46422       1
   46398   46416   46434   46440       2   46398   46416   46434   46443       2
   46395   46374   46392   46407       4   46395   46374   46392   46413       4
   46392   46407   46386   46410       4   46389   46371   46386   46407       4
   46389   46371   46386   46410       4   46386   46407   46392   46413       4
   46383   46362   46377   46398       2   46383   46362   46377   46401       1
   46383   46362   46377   46404       1   46380   46362   46377   46398       2
   46380   46362   46377   46401       1   46380   46362   46377   46404       1
   46377   46398   46416   46428       2   46377   46398   46416   46431       2
   46374   46359   46371   46389       4   46374   46392   46407   46425       4
   46371   46359   46374   46395       4   46371   46386   46407   46425       4
   46368   46350   46362   46377       2   46368   46350   46362   46380       1
   46368   46350   46362   46383       1   46365   46350   46362   46377       2
   46365   46350   46362   46380       1   46365   46350   46362   46383       1
   46362   46377   46398   46419       2   46362   46377   46398   46422       2
   46359   46371   46386   46410       4   46359   46374   46392   46413       4
   46356   46332   46350   46362       2   46356   46332   46350   46365       1
   46356   46332   46350   46368       1   46353   46332   46350   46362       2
   46353   46332   46350   46365       1   46353   46332   46350   46368       1
   46350   46362   46377   46401       2   46350   46362   46377   46404       2
   46347   46323   46341   46359       4   46344   46320   46341   46359       4
   46341   46359   46371   46389       4   46341   46359   46374   46395       4
   46338   46314   46332   46350       2   46338   46314   46332   46353       1
   46338   46314   46332   46356       1   46335   46314   46332   46350       2
   46335   46314   46332   46353       1   46335   46314   46332   46356       1
   46332   46350   46362   46380       2   46332   46350   46362   46383       2
   46326   46308   46323   46341       4   46326   46308   46323   46347       4
   46323   46341   46320   46344       4   46320   46341   46323   46347       4
   46317   46302   46311   46329       4   46314   46296   46311   46329       4
   46314   46332   46350   46365       2   46314   46332   46350   46368       2
   46311   46296   46314   46335       7   46311   46296   46314   46338       7
   46305   46293   46308   46326       4   46299   46284   46296   46311       4
   46299   46284   46296   46314       4   46296   46311   46302   46317       4
   46296   46314   46332   46353       8   46296   46314   46332   46356       8
   46293   46305   46320   46344       4   46293   46308   46323   46347       4
   46290   46305   46320   46344       4   46287   46275   46284   46299       4
   46287   46302   46311   46329       4   46284   46296   46311   46329       4
   46284   46296   46314   46335       7   46284   46296   46314   46338       7
   46281   46293   46308   46326       4   46278   46287   46302   46317       4
   46275   46287   46302   46317       4   46272   46275   46284   46299       4
   46644   46629   46641   46647       1   46644   46629   46641   46650       1
   46644   46629   46641   46653       1   46638   46629   46641   46647       1
   46638   46629   46641   46650       1   46638   46629   46641   46653       1
   46635   46626   46629   46638       1   46635   46626   46629   46641       2
   46635   46626   46629   46644       1   46632   46626   46629   46638       1
   46632   46626   46629   46641       2   46632   46626   46629   46644       1
   46626   46629   46641   46647       2   46626   46629   46641   46650       2
   46626   46629   46641   46653       2   46623   46608   46626   46629       2
   46623   46608   46626   46632       1   46623   46608   46626   46635       1
   46620   46608   46626   46629       2   46620   46608   46626   46632       1
   46620   46608   46626   46635       1   46614   46590   46608   46620       1
   46614   46590   46608   46623       1   46614   46590   46608   46626       2
   46611   46590   46608   46620       1   46611   46590   46608   46623       1
   46611   46590   46608   46626       2   46608   46626   46629   46638       2
   46608   46626   46629   46644       2   46605   46584   46599   46617       4
   46602   46578   46599   46617       4   46596   46569   46590   46608       2
   46596   46569   46590   46611       1   46596   46569   46590   46614       1
   46593   46569   46590   46608       2   46593   46569   46590   46611       1
   46593   46569   46590   46614       1   46590   46608   46626   46632       2
   46590   46608   46626   46635       2   46587   46566   46584   46599       4
   46587   46566   46584   46605       4   46584   46599   46578   46602       4
   46581   46563   46578   46599       4   46581   46563   46578   46602       4
   46578   46599   46584   46605       4   46575   46554   46569   46590       2
   46575   46554   46569   46593       1   46575   46554   46569   46596       1
   46572   46554   46569   46590       2   46572   46554   46569   46593       1
   46572   46554   46569   46596       1   46569   46590   46608   46620       2
   46569   46590   46608   46623       2   46566   46551   46563   46581       4
   46566   46584   46599   46617       4   46563   46551   46566   46587       4
   46563   46578   46599   46617       4   46560   46542   46554   46569       2
   46560   46542   46554   46572       1   46560   46542   46554   46575       1
   46557   46542   46554   46569       2   46557   46542   46554   46572       1
   46557   46542   46554   46575       1   46554   46569   46590   46611       2
   46554   46569   46590   46614       2   46551   46563   46578   46602       4
   46551   46566   46584   46605       4   46548   46524   46542   46554       2
   46548   46524   46542   46557       1   46548   46524   46542   46560       1
   46545   46524   46542   46554       2   46545   46524   46542   46557       1
   46545   46524   46542   46560       1   46542   46554   46569   46593       2
   46542   46554   46569   46596       2   46539   46515   46533   46551       4
   46536   46512   46533   46551       4   46533   46551   46563   46581       4
   46533   46551   46566   46587       4   46530   46506   46524   46542       2
   46530   46506   46524   46545       1   46530   46506   46524   46548       1
   46527   46506   46524   46542       2   46527   46506   46524   46545       1
   46527   46506   46524   46548       1   46524   46542   46554   46572       2
   46524   46542   46554   46575       2   46518   46500   46515   46533       4
   46518   46500   46515   46539       4   46515   46533   46512   46536       4
   46512   46533   46515   46539       4   46509   46494   46503   46521       4
   46506   46488   46503   46521       4   46506   46524   46542   46557       2
   46506   46524   46542   46560       2   46503   46488   46506   46527       7
   46503   46488   46506   46530       7   46497   46485   46500   46518       4
   46491   46476   46488   46503       4   46491   46476   46488   46506       4
   46488   46503   46494   46509       4   46488   46506   46524   46545       8
   46488   46506   46524   46548       8   46485   46497   46512   46536       4
   46485   46500   46515   46539       4   46482   46497   46512   46536       4
   46479   46467   46476   46491       4   46479   46494   46503   46521       4
   46476   46488   46503   46521       4   46476   46488   46506   46527       7
   46476   46488   46506   46530       7   46473   46485   46500   46518       4
   46470   46479   46494   46509       4   46467   46479   46494   46509       4
   46464   46467   46476   46491       4   46836   46821   46833   46839       1
   46836   46821   46833   46842       1   46836   46821   46833   46845       1
   46830   46821   46833   46839       1   46830   46821   46833   46842       1
   46830   46821   46833   46845       1   46827   46818   46821   46830       1
   46827   46818   46821   46833       2   46827   46818   46821   46836       1
   46824   46818   46821   46830       1   46824   46818   46821   46833       2
   46824   46818   46821   46836       1   46818   46821   46833   46839       2
   46818   46821   46833   46842       2   46818   46821   46833   46845       2
   46815   46800   46818   46821       2   46815   46800   46818   46824       1
   46815   46800   46818   46827       1   46812   46800   46818   46821       2
   46812   46800   46818   46824       1   46812   46800   46818   46827       1
   46806   46782   46800   46812       1   46806   46782   46800   46815       1
   46806   46782   46800   46818       2   46803   46782   46800   46812       1
   46803   46782   46800   46815       1   46803   46782   46800   46818       2
   46800   46818   46821   46830       2   46800   46818   46821   46836       2
   46797   46776   46791   46809       4   46794   46770   46791   46809       4
   46788   46761   46782   46800       2   46788   46761   46782   46803       1
   46788   46761   46782   46806       1   46785   46761   46782   46800       2
   46785   46761   46782   46803       1   46785   46761   46782   46806       1
   46782   46800   46818   46824       2   46782   46800   46818   46827       2
   46779   46758   46776   46791       4   46779   46758   46776   46797       4
   46776   46791   46770   46794       4   46773   46755   46770   46791       4
   46773   46755   46770   46794       4   46770   46791   46776   46797       4
   46767   46746   46761   46782       2   46767   46746   46761   46785       1
   46767   46746   46761   46788       1   46764   46746   46761   46782       2
   46764   46746   46761   46785       1   46764   46746   46761   46788       1
   46761   46782   46800   46812       2   46761   46782   46800   46815       2
   46758   46743   46755   46773       4   46758   46776   46791   46809       4
   46755   46743   46758   46779       4   46755   46770   46791   46809       4
   46752   46734   46746   46761       2   46752   46734   46746   46764       1
   46752   46734   46746   46767       1   46749   46734   46746   46761       2
   46749   46734   46746   46764       1   46749   46734   46746   46767       1
   46746   46761   46782   46803       2   46746   46761   46782   46806       2
   46743   46755   46770   46794       4   46743   46758   46776   46797       4
   46740   46716   46734   46746       2   46740   46716   46734   46749       1
   46740   46716   46734   46752       1   46737   46716   46734   46746       2
   46737   46716   46734   46749       1   46737   46716   46734   46752       1
   46734   46746   46761   46785       2   46734   46746   46761   46788       2
   46731   46707   46725   46743       4   46728   46704   46725   46743       4
   46725   46743   46755   46773       4   46725   46743   46758   46779       4
   46722   46698   46716   46734       2   46722   46698   46716   46737       1
   46722   46698   46716   46740       1   46719   46698   46716   46734       2
   46719   46698   46716   46737       1   46719   46698   46716   46740       1
   46716   46734   46746   46764       2   46716   46734   46746   46767       2
   46710   46692   46707   46725       4   46710   46692   46707   46731       4
   46707   46725   46704   46728       4   46704   46725   46707   46731       4
   46701   46686   46695   46713       4   46698   46680   46695   46713       4
   46698   46716   46734   46749       2   46698   46716   46734   46752       2
   46695   46680   46698   46719       7   46695   46680   46698   46722       7
   46689   46677   46692   46710       4   46683   46668   46680   46695       4
   46683   46668   46680   46698       4   46680   46695   46686   46701       4
   46680   46698   46716   46737       8   46680   46698   46716   46740       8
   46677   46689   46704   46728       4   46677   46692   46707   46731       4
   46674   46689   46704   46728       4   46671   46659   46668   46683       4
   46671   46686   46695   46713       4   46668   46680   46695   46713       4
   46668   46680   46698   46719       7   46668   46680   46698   46722       7
   46665   46677   46692   46710       4   46662   46671   46686   46701       4
   46659   46671   46686   46701       4   46656   46659   46668   46683       4
   47028   47013   47025   47031       1   47028   47013   47025   47034       1
   47028   47013   47025   47037       1   47022   47013   47025   47031       1
   47022   47013   47025   47034       1   47022   47013   47025   47037       1
   47019   47010   47013   47022       1   47019   47010   47013   47025       2
   47019   47010   47013   47028       1   47016   47010   47013   47022       1
   47016   47010   47013   47025       2   47016   47010   47013   47028       1
   47010   47013   47025   47031       2   47010   47013   47025   47034       2
   47010   47013   47025   47037       2   47007   46992   47010   47013       2
   47007   46992   47010   47016       1   47007   46992   47010   47019       1
   47004   46992   47010   47013       2   47004   46992   47010   47016       1
   47004   46992   47010   47019       1   46998   46974   46992   47004       1
   46998   46974   46992   47007       1   46998   46974   46992   47010       2
   46995   46974   46992   47004       1   46995   46974   46992   47007       1
   46995   46974   46992   47010       2   46992   47010   47013   47022       2
   46992   47010   47013   47028       2   46989   46968   46983   47001       4
   46986   46962   46983   47001       4   46980   46953   46974   46992       2
   46980   46953   46974   46995       1   46980   46953   46974   46998       1
   46977   46953   46974   46992       2   46977   46953   46974   46995       1
   46977   46953   46974   46998       1   46974   46992   47010   47016       2
   46974   46992   47010   47019       2   46971   46950   46968   46983       4
   46971   46950   46968   46989       4   46968   46983   46962   46986       4
   46965   46947   46962   46983       4   46965   46947   46962   46986       4
   46962   46983   46968   46989       4   46959   46938   46953   46974       2
   46959   46938   46953   46977       1   46959   46938   46953   46980       1
   46956   46938   46953   46974       2   46956   46938   46953   46977       1
   46956   46938   46953   46980       1   46953   46974   46992   47004       2
   46953   46974   46992   47007       2   46950   46935   46947   46965       4
   46950   46968   46983   47001       4   46947   46935   46950   46971       4
   46947   46962   46983   47001       4   46944   46926   46938   46953       2
   46944   46926   46938   46956       1   46944   46926   46938   46959       1
   46941   46926   46938   46953       2   46941   46926   46938   46956       1
   46941   46926   46938   46959       1   46938   46953   46974   46995       2
   46938   46953   46974   46998       2   46935   46947   46962   46986       4
   46935   46950   46968   46989       4   46932   46908   46926   46938       2
   46932   46908   46926   46941       1   46932   46908   46926   46944       1
   46929   46908   46926   46938       2   46929   46908   46926   46941       1
   46929   46908   46926   46944       1   46926   46938   46953   46977       2
   46926   46938   46953   46980       2   46923   46899   46917   46935       4
   46920   46896   46917   46935       4   46917   46935   46947   46965       4
   46917   46935   46950   46971       4   46914   46890   46908   46926       2
   46914   46890   46908   46929       1   46914   46890   46908   46932       1
   46911   46890   46908   46926       2   46911   46890   46908   46929       1
   46911   46890   46908   46932       1   46908   46926   46938   46956       2
   46908   46926   46938   46959       2   46902   46884   46899   46917       4
   46902   46884   46899   46923       4   46899   46917   46896   46920       4
   46896   46917   46899   46923       4   46893   46878   46887   46905       4
   46890   46872   46887   46905       4   46890   46908   46926   46941       2
   46890   46908   46926   46944       2   46887   46872   46890   46911       7
   46887   46872   46890   46914       7   46881   46869   46884   46902       4
   46875   46860   46872   46887       4   46875   46860   46872   46890       4
   46872   46887   46878   46893       4   46872   46890   46908   46929       8
   46872   46890   46908   46932       8   46869   46881   46896   46920       4
   46869   46884   46899   46923       4   46866   46881   46896   46920       4
   46863   46851   46860   46875       4   46863   46878   46887   46905       4
   46860   46872   46887   46905       4   46860   46872   46890   46911       7
   46860   46872   46890   46914       7   46857   46869   46884   46902       4
   46854   46863   46878   46893       4   46851   46863   46878   46893       4
   46848   46851   46860   46875       4   47220   47205   47217   47223       1
   47220   47205   47217   47226       1   47220   47205   47217   47229       1
   47214   47205   47217   47223       1   47214   47205   47217   47226       1
   47214   47205   47217   47229       1   47211   47202   47205   47214       1
   47211   47202   47205   47217       2   47211   47202   47205   47220       1
   47208   47202   47205   47214       1   47208   47202   47205   47217       2
   47208   47202   47205   47220       1   47202   47205   47217   47223       2
   47202   47205   47217   47226       2   47202   47205   47217   47229       2
   47199   47184   47202   47205       2   47199   47184   47202   47208       1
   47199   47184   47202   47211       1   47196   47184   47202   47205       2
   47196   47184   47202   47208       1   47196   47184   47202   47211       1
   47190   47166   47184   47196       1   47190   47166   47184   47199       1
   47190   47166   47184   47202       2   47187   47166   47184   47196       1
   47187   47166   47184   47199       1   47187   47166   47184   47202       2
   47184   47202   47205   47214       2   47184   47202   47205   47220       2
   47181   47160   47175   47193       4   47178   47154   47175   47193       4
   47172   47145   47166   47184       2   47172   47145   47166   47187       1
   47172   47145   47166   47190       1   47169   47145   47166   47184       2
   47169   47145   47166   47187       1   47169   47145   47166   47190       1
   47166   47184   47202   47208       2   47166   47184   47202   47211       2
   47163   47142   47160   47175       4   47163   47142   47160   47181       4
   47160   47175   47154   47178       4   47157   47139   47154   47175       4
   47157   47139   47154   47178       4   47154   47175   47160   47181       4
   47151   47130   47145   47166       2   47151   47130   47145   47169       1
   47151   47130   47145   47172       1   47148   47130   47145   47166       2
   47148   47130   47145   47169       1   47148   47130   47145   47172       1
   47145   47166   47184   47196       2   47145   47166   47184   47199       2
   47142   47127   47139   47157       4   47142   47160   47175   47193       4
   47139   47127   47142   47163       4   47139   47154   47175   47193       4
   47136   47118   47130   47145       2   47136   47118   47130   47148       1
   47136   47118   47130   47151       1   47133   47118   47130   47145       2
   47133   47118   47130   47148       1   47133   47118   47130   47151       1
   47130   47145   47166   47187       2   47130   47145   47166   47190       2
   47127   47139   47154   47178       4   47127   47142   47160   47181       4
   47124   47100   47118   47130       2   47124   47100   47118   47133       1
   47124   47100   47118   47136       1   47121   47100   47118   47130       2
   47121   47100   47118   47133       1   47121   47100   47118   47136       1
   47118   47130   47145   47169       2   47118   47130   47145   47172       2
   47115   47091   47109   47127       4   47112   47088   47109   47127       4
   47109   47127   47139   47157       4   47109   47127   47142   47163       4
   47106   47082   47100   47118       2   47106   47082   47100   47121       1
   47106   47082   47100   47124       1   47103   47082   47100   47118       2
   47103   47082   47100   47121       1   47103   47082   47100   47124       1
   47100   47118   47130   47148       2   47100   47118   47130   47151       2
   47094   47076   47091   47109       4   47094   47076   47091   47115       4
   47091   47109   47088   47112       4   47088   47109   47091   47115       4
   47085   47070   47079   47097       4   47082   47064   47079   47097       4
   47082   47100   47118   47133       2   47082   47100   47118   47136       2
   47079   47064   47082   47103       7   47079   47064   47082   47106       7
   47073   47061   47076   47094       4   47067   47052   47064   47079       4
   47067   47052   47064   47082       4   47064   47079   47070   47085       4
   47064   47082   47100   47121       8   47064   47082   47100   47124       8
   47061   47073   47088   47112       4   47061   47076   47091   47115       4
   47058   47073   47088   47112       4   47055   47043   47052   47067       4
   47055   47070   47079   47097       4   47052   47064   47079   47097       4
   47052   47064   47082   47103       7   47052   47064   47082   47106       7
   47049   47061   47076   47094       4   47046   47055   47070   47085       4
   47043   47055   47070   47085       4   47040   47043   47052   47067       4
   47412   47397   47409   47415       1   47412   47397   47409   47418       1
   47412   47397   47409   47421       1   47406   47397   47409   47415       1
   47406   47397   47409   47418       1   47406   47397   47409   47421       1
   47403   47394   47397   47406       1   47403   47394   47397   47409       2
   47403   47394   47397   47412       1   47400   47394   47397   47406       1
   47400   47394   47397   47409       2   47400   47394   47397   47412       1
   47394   47397   47409   47415       2   47394   47397   47409   47418       2
   47394   47397   47409   47421       2   47391   47376   47394   47397       2
   47391   47376   47394   47400       1   47391   47376   47394   47403       1
   47388   47376   47394   47397       2   47388   47376   47394   47400       1
   47388   47376   47394   47403       1   47382   47358   47376   47388       1
   47382   47358   47376   47391       1   47382   47358   47376   47394       2
   47379   47358   47376   47388       1   47379   47358   47376   47391       1
   47379   47358   47376   47394       2   47376   47394   47397   47406       2
   47376   47394   47397   47412       2   47373   47352   47367   47385       4
   47370   47346   47367   47385       4   47364   47337   47358   47376       2
   47364   47337   47358   47379       1   47364   47337   47358   47382       1
   47361   47337   47358   47376       2   47361   47337   47358   47379       1
   47361   47337   47358   47382       1   47358   47376   47394   47400       2
   47358   47376   47394   47403       2   47355   47334   47352   47367       4
   47355   47334   47352   47373       4   47352   47367   47346   47370       4
   47349   47331   47346   47367       4   47349   47331   47346   47370       4
   47346   47367   47352   47373       4   47343   47322   47337   47358       2
   47343   47322   47337   47361       1   47343   47322   47337   47364       1
   47340   47322   47337   47358       2   47340   47322   47337   47361       1
   47340   47322   47337   47364       1   47337   47358   47376   47388       2
   47337   47358   47376   47391       2   47334   47319   47331   47349       4
   47334   47352   47367   47385       4   47331   47319   47334   47355       4
   47331   47346   47367   47385       4   47328   47310   47322   47337       2
   47328   47310   47322   47340       1   47328   47310   47322   47343       1
   47325   47310   47322   47337       2   47325   47310   47322   47340       1
   47325   47310   47322   47343       1   47322   47337   47358   47379       2
   47322   47337   47358   47382       2   47319   47331   47346   47370       4
   47319   47334   47352   47373       4   47316   47292   47310   47322       2
   47316   47292   47310   47325       1   47316   47292   47310   47328       1
   47313   47292   47310   47322       2   47313   47292   47310   47325       1
   47313   47292   47310   47328       1   47310   47322   47337   47361       2
   47310   47322   47337   47364       2   47307   47283   47301   47319       4
   47304   47280   47301   47319       4   47301   47319   47331   47349       4
   47301   47319   47334   47355       4   47298   47274   47292   47310       2
   47298   47274   47292   47313       1   47298   47274   47292   47316       1
   47295   47274   47292   47310       2   47295   47274   47292   47313       1
   47295   47274   47292   47316       1   47292   47310   47322   47340       2
   47292   47310   47322   47343       2   47286   47268   47283   47301       4
   47286   47268   47283   47307       4   47283   47301   47280   47304       4
   47280   47301   47283   47307       4   47277   47262   47271   47289       4
   47274   47256   47271   47289       4   47274   47292   47310   47325       2
   47274   47292   47310   47328       2   47271   47256   47274   47295       7
   47271   47256   47274   47298       7   47265   47253   47268   47286       4
   47259   47244   47256   47271       4   47259   47244   47256   47274       4
   47256   47271   47262   47277       4   47256   47274   47292   47313       8
   47256   47274   47292   47316       8   47253   47265   47280   47304       4
   47253   47268   47283   47307       4   47250   47265   47280   47304       4
   47247   47235   47244   47259       4   47247   47262   47271   47289       4
   47244   47256   47271   47289       4   47244   47256   47274   47295       7
   47244   47256   47274   47298       7   47241   47253   47268   47286       4
   47238   47247   47262   47277       4   47235   47247   47262   47277       4
   47232   47235   47244   47259       4   47604   47589   47601   47607       1
   47604   47589   47601   47610       1   47604   47589   47601   47613       1
   47598   47589   47601   47607       1   47598   47589   47601   47610       1
   47598   47589   47601   47613       1   47595   47586   47589   47598       1
   47595   47586   47589   47601       2   47595   47586   47589   47604       1
   47592   47586   47589   47598       1   47592   47586   47589   47601       2
   47592   47586   47589   47604       1   47586   47589   47601   47607       2
   47586   47589   47601   47610       2   47586   47589   47601   47613       2
   47583   47568   47586   47589       2   47583   47568   47586   47592       1
   47583   47568   47586   47595       1   47580   47568   47586   47589       2
   47580   47568   47586   47592       1   47580   47568   47586   47595       1
   47574   47550   47568   47580       1   47574   47550   47568   47583       1
   47574   47550   47568   47586       2   47571   47550   47568   47580       1
   47571   47550   47568   47583       1   47571   47550   47568   47586       2
   47568   47586   47589   47598       2   47568   47586   47589   47604       2
   47565   47544   47559   47577       4   47562   47538   47559   47577       4
   47556   47529   47550   47568       2   47556   47529   47550   47571       1
   47556   47529   47550   47574       1   47553   47529   47550   47568       2
   47553   47529   47550   47571       1   47553   47529   47550   47574       1
   47550   47568   47586   47592       2   47550   47568   47586   47595       2
   47547   47526   47544   47559       4   47547   47526   47544   47565       4
   47544   47559   47538   47562       4   47541   47523   47538   47559       4
   47541   47523   47538   47562       4   47538   47559   47544   47565       4
   47535   47514   47529   47550       2   47535   47514   47529   47553       1
   47535   47514   47529   47556       1   47532   47514   47529   47550       2
   47532   47514   47529   47553       1   47532   47514   47529   47556       1
   47529   47550   47568   47580       2   47529   47550   47568   47583       2
   47526   47511   47523   47541       4   47526   47544   47559   47577       4
   47523   47511   47526   47547       4   47523   47538   47559   47577       4
   47520   47502   47514   47529       2   47520   47502   47514   47532       1
   47520   47502   47514   47535       1   47517   47502   47514   47529       2
   47517   47502   47514   47532       1   47517   47502   47514   47535       1
   47514   47529   47550   47571       2   47514   47529   47550   47574       2
   47511   47523   47538   47562       4   47511   47526   47544   47565       4
   47508   47484   47502   47514       2   47508   47484   47502   47517       1
   47508   47484   47502   47520       1   47505   47484   47502   47514       2
   47505   47484   47502   47517       1   47505   47484   47502   47520       1
   47502   47514   47529   47553       2   47502   47514   47529   47556       2
   47499   47475   47493   47511       4   47496   47472   47493   47511       4
   47493   47511   47523   47541       4   47493   47511   47526   47547       4
   47490   47466   47484   47502       2   47490   47466   47484   47505       1
   47490   47466   47484   47508       1   47487   47466   47484   47502       2
   47487   47466   47484   47505       1   47487   47466   47484   47508       1
   47484   47502   47514   47532       2   47484   47502   47514   47535       2
   47478   47460   47475   47493       4   47478   47460   47475   47499       4
   47475   47493   47472   47496       4   47472   47493   47475   47499       4
   47469   47454   47463   47481       4   47466   47448   47463   47481       4
   47466   47484   47502   47517       2   47466   47484   47502   47520       2
   47463   47448   47466   47487       7   47463   47448   47466   47490       7
   47457   47445   47460   47478       4   47451   47436   47448   47463       4
   47451   47436   47448   47466       4   47448   47463   47454   47469       4
   47448   47466   47484   47505       8   47448   47466   47484   47508       8
   47445   47457   47472   47496       4   47445   47460   47475   47499       4
   47442   47457   47472   47496       4   47439   47427   47436   47451       4
   47439   47454   47463   47481       4   47436   47448   47463   47481       4
   47436   47448   47466   47487       7   47436   47448   47466   47490       7
   47433   47445   47460   47478       4   47430   47439   47454   47469       4
   47427   47439   47454   47469       4   47424   47427   47436   47451       4
   47796   47781   47793   47799       1   47796   47781   47793   47802       1
   47796   47781   47793   47805       1   47790   47781   47793   47799       1
   47790   47781   47793   47802       1   47790   47781   47793   47805       1
   47787   47778   47781   47790       1   47787   47778   47781   47793       2
   47787   47778   47781   47796       1   47784   47778   47781   47790       1
   47784   47778   47781   47793       2   47784   47778   47781   47796       1
   47778   47781   47793   47799       2   47778   47781   47793   47802       2
   47778   47781   47793   47805       2   47775   47760   47778   47781       2
   47775   47760   47778   47784       1   47775   47760   47778   47787       1
   47772   47760   47778   47781       2   47772   47760   47778   47784       1
   47772   47760   47778   47787       1   47766   47742   47760   47772       1
   47766   47742   47760   47775       1   47766   47742   47760   47778       2
   47763   47742   47760   47772       1   47763   47742   47760   47775       1
   47763   47742   47760   47778       2   47760   47778   47781   47790       2
   47760   47778   47781   47796       2   47757   47736   47751   47769       4
   47754   47730   47751   47769       4   47748   47721   47742   47760       2
   47748   47721   47742   47763       1   47748   47721   47742   47766       1
   47745   47721   47742   47760       2   47745   47721   47742   47763       1
   47745   47721   47742   47766       1   47742   47760   47778   47784       2
   47742   47760   47778   47787       2   47739   47718   47736   47751       4
   47739   47718   47736   47757       4   47736   47751   47730   47754       4
   47733   47715   47730   47751       4   47733   47715   47730   47754       4
   47730   47751   47736   47757       4   47727   47706   47721   47742       2
   47727   47706   47721   47745       1   47727   47706   47721   47748       1
   47724   47706   47721   47742       2   47724   47706   47721   47745       1
   47724   47706   47721   47748       1   47721   47742   47760   47772       2
   47721   47742   47760   47775       2   47718   47703   47715   47733       4
   47718   47736   47751   47769       4   47715   47703   47718   47739       4
   47715   47730   47751   47769       4   47712   47694   47706   47721       2
   47712   47694   47706   47724       1   47712   47694   47706   47727       1
   47709   47694   47706   47721       2   47709   47694   47706   47724       1
   47709   47694   47706   47727       1   47706   47721   47742   47763       2
   47706   47721   47742   47766       2   47703   47715   47730   47754       4
   47703   47718   47736   47757       4   47700   47676   47694   47706       2
   47700   47676   47694   47709       1   47700   47676   47694   47712       1
   47697   47676   47694   47706       2   47697   47676   47694   47709       1
   47697   47676   47694   47712       1   47694   47706   47721   47745       2
   47694   47706   47721   47748       2   47691   47667   47685   47703       4
   47688   47664   47685   47703       4   47685   47703   47715   47733       4
   47685   47703   47718   47739       4   47682   47658   47676   47694       2
   47682   47658   47676   47697       1   47682   47658   47676   47700       1
   47679   47658   47676   47694       2   47679   47658   47676   47697       1
   47679   47658   47676   47700       1   47676   47694   47706   47724       2
   47676   47694   47706   47727       2   47670   47652   47667   47685       4
   47670   47652   47667   47691       4   47667   47685   47664   47688       4
   47664   47685   47667   47691       4   47661   47646   47655   47673       4
   47658   47640   47655   47673       4   47658   47676   47694   47709       2
   47658   47676   47694   47712       2   47655   47640   47658   47679       7
   47655   47640   47658   47682       7   47649   47637   47652   47670       4
   47643   47628   47640   47655       4   47643   47628   47640   47658       4
   47640   47655   47646   47661       4   47640   47658   47676   47697       8
   47640   47658   47676   47700       8   47637   47649   47664   47688       4
   47637   47652   47667   47691       4   47634   47649   47664   47688       4
   47631   47619   47628   47643       4   47631   47646   47655   47673       4
   47628   47640   47655   47673       4   47628   47640   47658   47679       7
   47628   47640   47658   47682       7   47625   47637   47652   47670       4
   47622   47631   47646   47661       4   47619   47631   47646   47661       4
   47616   47619   47628   47643       4   47988   47973   47985   47991       1
   47988   47973   47985   47994       1   47988   47973   47985   47997       1
   47982   47973   47985   47991       1   47982   47973   47985   47994       1
   47982   47973   47985   47997       1   47979   47970   47973   47982       1
   47979   47970   47973   47985       2   47979   47970   47973   47988       1
   47976   47970   47973   47982       1   47976   47970   47973   47985       2
   47976   47970   47973   47988       1   47970   47973   47985   47991       2
   47970   47973   47985   47994       2   47970   47973   47985   47997       2
   47967   47952   47970   47973       2   47967   47952   47970   47976       1
   47967   47952   47970   47979       1   47964   47952   47970   47973       2
   47964   47952   47970   47976       1   47964   47952   47970   47979       1
   47958   47934   47952   47964       1   47958   47934   47952   47967       1
   47958   47934   47952   47970       2   47955   47934   47952   47964       1
   47955   47934   47952   47967       1   47955   47934   47952   47970       2
   47952   47970   47973   47982       2   47952   47970   47973   47988       2
   47949   47928   47943   47961       4   47946   47922   47943   47961       4
   47940   47913   47934   47952       2   47940   47913   47934   47955       1
   47940   47913   47934   47958       1   47937   47913   47934   47952       2
   47937   47913   47934   47955       1   47937   47913   47934   47958       1
   47934   47952   47970   47976       2   47934   47952   47970   47979       2
   47931   47910   47928   47943       4   47931   47910   47928   47949       4
   47928   47943   47922   47946       4   47925   47907   47922   47943       4
   47925   47907   47922   47946       4   47922   47943   47928   47949       4
   47919   47898   47913   47934       2   47919   47898   47913   47937       1
   47919   47898   47913   47940       1   47916   47898   47913   47934       2
   47916   47898   47913   47937       1   47916   47898   47913   47940       1
   47913   47934   47952   47964       2   47913   47934   47952   47967       2
   47910   47895   47907   47925       4   47910   47928   47943   47961       4
   47907   47895   47910   47931       4   47907   47922   47943   47961       4
   47904   47886   47898   47913       2   47904   47886   47898   47916       1
   47904   47886   47898   47919       1   47901   47886   47898   47913       2
   47901   47886   47898   47916       1   47901   47886   47898   47919       1
   47898   47913   47934   47955       2   47898   47913   47934   47958       2
   47895   47907   47922   47946       4   47895   47910   47928   47949       4
   47892   47868   47886   47898       2   47892   47868   47886   47901       1
   47892   47868   47886   47904       1   47889   47868   47886   47898       2
   47889   47868   47886   47901       1   47889   47868   47886   47904       1
   47886   47898   47913   47937       2   47886   47898   47913   47940       2
   47883   47859   47877   47895       4   47880   47856   47877   47895       4
   47877   47895   47907   47925       4   47877   47895   47910   47931       4
   47874   47850   47868   47886       2   47874   47850   47868   47889       1
   47874   47850   47868   47892       1   47871   47850   47868   47886       2
   47871   47850   47868   47889       1   47871   47850   47868   47892       1
   47868   47886   47898   47916       2   47868   47886   47898   47919       2
   47862   47844   47859   47877       4   47862   47844   47859   47883       4
   47859   47877   47856   47880       4   47856   47877   47859   47883       4
   47853   47838   47847   47865       4   47850   47832   47847   47865       4
   47850   47868   47886   47901       2   47850   47868   47886   47904       2
   47847   47832   47850   47871       7   47847   47832   47850   47874       7
   47841   47829   47844   47862       4   47835   47820   47832   47847       4
   47835   47820   47832   47850       4   47832   47847   47838   47853       4
   47832   47850   47868   47889       8   47832   47850   47868   47892       8
   47829   47841   47856   47880       4   47829   47844   47859   47883       4
   47826   47841   47856   47880       4   47823   47811   47820   47835       4
   47823   47838   47847   47865       4   47820   47832   47847   47865       4
   47820   47832   47850   47871       7   47820   47832   47850   47874       7
   47817   47829   47844   47862       4   47814   47823   47838   47853       4
   47811   47823   47838   47853       4   47808   47811   47820   47835       4
   48180   48165   48177   48183       1   48180   48165   48177   48186       1
   48180   48165   48177   48189       1   48174   48165   48177   48183       1
   48174   48165   48177   48186       1   48174   48165   48177   48189       1
   48171   48162   48165   48174       1   48171   48162   48165   48177       2
   48171   48162   48165   48180       1   48168   48162   48165   48174       1
   48168   48162   48165   48177       2   48168   48162   48165   48180       1
   48162   48165   48177   48183       2   48162   48165   48177   48186       2
   48162   48165   48177   48189       2   48159   48144   48162   48165       2
   48159   48144   48162   48168       1   48159   48144   48162   48171       1
   48156   48144   48162   48165       2   48156   48144   48162   48168       1
   48156   48144   48162   48171       1   48150   48126   48144   48156       1
   48150   48126   48144   48159       1   48150   48126   48144   48162       2
   48147   48126   48144   48156       1   48147   48126   48144   48159       1
   48147   48126   48144   48162       2   48144   48162   48165   48174       2
   48144   48162   48165   48180       2   48141   48120   48135   48153       4
   48138   48114   48135   48153       4   48132   48105   48126   48144       2
   48132   48105   48126   48147       1   48132   48105   48126   48150       1
   48129   48105   48126   48144       2   48129   48105   48126   48147       1
   48129   48105   48126   48150       1   48126   48144   48162   48168       2
   48126   48144   48162   48171       2   48123   48102   48120   48135       4
   48123   48102   48120   48141       4   48120   48135   48114   48138       4
   48117   48099   48114   48135       4   48117   48099   48114   48138       4
   48114   48135   48120   48141       4   48111   48090   48105   48126       2
   48111   48090   48105   48129       1   48111   48090   48105   48132       1
   48108   48090   48105   48126       2   48108   48090   48105   48129       1
   48108   48090   48105   48132       1   48105   48126   48144   48156       2
   48105   48126   48144   48159       2   48102   48087   48099   48117       4
   48102   48120   48135   48153       4   48099   48087   48102   48123       4
   48099   48114   48135   48153       4   48096   48078   48090   48105       2
   48096   48078   48090   48108       1   48096   48078   48090   48111       1
   48093   48078   48090   48105       2   48093   48078   48090   48108       1
   48093   48078   48090   48111       1   48090   48105   48126   48147       2
   48090   48105   48126   48150       2   48087   48099   48114   48138       4
   48087   48102   48120   48141       4   48084   48060   48078   48090       2
   48084   48060   48078   48093       1   48084   48060   48078   48096       1
   48081   48060   48078   48090       2   48081   48060   48078   48093       1
   48081   48060   48078   48096       1   48078   48090   48105   48129       2
   48078   48090   48105   48132       2   48075   48051   48069   48087       4
   48072   48048   48069   48087       4   48069   48087   48099   48117       4
   48069   48087   48102   48123       4   48066   48042   48060   48078       2
   48066   48042   48060   48081       1   48066   48042   48060   48084       1
   48063   48042   48060   48078       2   48063   48042   48060   48081       1
   48063   48042   48060   48084       1   48060   48078   48090   48108       2
   48060   48078   48090   48111       2   48054   48036   48051   48069       4
   48054   48036   48051   48075       4   48051   48069   48048   48072       4
   48048   48069   48051   48075       4   48045   48030   48039   48057       4
   48042   48024   48039   48057       4   48042   48060   48078   48093       2
   48042   48060   48078   48096       2   48039   48024   48042   48063       7
   48039   48024   48042   48066       7   48033   48021   48036   48054       4
   48027   48012   48024   48039       4   48027   48012   48024   48042       4
   48024   48039   48030   48045       4   48024   48042   48060   48081       8
   48024   48042   48060   48084       8   48021   48033   48048   48072       4
   48021   48036   48051   48075       4   48018   48033   48048   48072       4
   48015   48003   48012   48027       4   48015   48030   48039   48057       4
   48012   48024   48039   48057       4   48012   48024   48042   48063       7
   48012   48024   48042   48066       7   48009   48021   48036   48054       4
   48006   48015   48030   48045       4   48003   48015   48030   48045       4
   48000   48003   48012   48027       4   48372   48357   48369   48375       1
   48372   48357   48369   48378       1   48372   48357   48369   48381       1
   48366   48357   48369   48375       1   48366   48357   48369   48378       1
   48366   48357   48369   48381       1   48363   48354   48357   48366       1
   48363   48354   48357   48369       2   48363   48354   48357   48372       1
   48360   48354   48357   48366       1   48360   48354   48357   48369       2
   48360   48354   48357   48372       1   48354   48357   48369   48375       2
   48354   48357   48369   48378       2   48354   48357   48369   48381       2
   48351   48336   48354   48357       2   48351   48336   48354   48360       1
   48351   48336   48354   48363       1   48348   48336   48354   48357       2
   48348   48336   48354   48360       1   48348   48336   48354   48363       1
   48342   48318   48336   48348       1   48342   48318   48336   48351       1
   48342   48318   48336   48354       2   48339   48318   48336   48348       1
   48339   48318   48336   48351       1   48339   48318   48336   48354       2
   48336   48354   48357   48366       2   48336   48354   48357   48372       2
   48333   48312   48327   48345       4   48330   48306   48327   48345       4
   48324   48297   48318   48336       2   48324   48297   48318   48339       1
   48324   48297   48318   48342       1   48321   48297   48318   48336       2
   48321   48297   48318   48339       1   48321   48297   48318   48342       1
   48318   48336   48354   48360       2   48318   48336   48354   48363       2
   48315   48294   48312   48327       4   48315   48294   48312   48333       4
   48312   48327   48306   48330       4   48309   48291   48306   48327       4
   48309   48291   48306   48330       4   48306   48327   48312   48333       4
   48303   48282   48297   48318       2   48303   48282   48297   48321       1
   48303   48282   48297   48324       1   48300   48282   48297   48318       2
   48300   48282   48297   48321       1   48300   48282   48297   48324       1
   48297   48318   48336   48348       2   48297   48318   48336   48351       2
   48294   48279   48291   48309       4   48294   48312   48327   48345       4
   48291   48279   48294   48315       4   48291   48306   48327   48345       4
   48288   48270   48282   48297       2   48288   48270   48282   48300       1
   48288   48270   48282   48303       1   48285   48270   48282   48297       2
   48285   48270   48282   48300       1   48285   48270   48282   48303       1
   48282   48297   48318   48339       2   48282   48297   48318   48342       2
   48279   48291   48306   48330       4   48279   48294   48312   48333       4
   48276   48252   48270   48282       2   48276   48252   48270   48285       1
   48276   48252   48270   48288       1   48273   48252   48270   48282       2
   48273   48252   48270   48285       1   48273   48252   48270   48288       1
   48270   48282   48297   48321       2   48270   48282   48297   48324       2
   48267   48243   48261   48279       4   48264   48240   48261   48279       4
   48261   48279   48291   48309       4   48261   48279   48294   48315       4
   48258   48234   48252   48270       2   48258   48234   48252   48273       1
   48258   48234   48252   48276       1   48255   48234   48252   48270       2
   48255   48234   48252   48273       1   48255   48234   48252   48276       1
   48252   48270   48282   48300       2   48252   48270   48282   48303       2
   48246   48228   48243   48261       4   48246   48228   48243   48267       4
   48243   48261   48240   48264       4   48240   48261   48243   48267       4
   48237   48222   48231   48249       4   48234   48216   48231   48249       4
   48234   48252   48270   48285       2   48234   48252   48270   48288       2
   48231   48216   48234   48255       7   48231   48216   48234   48258       7
   48225   48213   48228   48246       4   48219   48204   48216   48231       4
   48219   48204   48216   48234       4   48216   48231   48222   48237       4
   48216   48234   48252   48273       8   48216   48234   48252   48276       8
   48213   48225   48240   48264       4   48213   48228   48243   48267       4
   48210   48225   48240   48264       4   48207   48195   48204   48219       4
   48207   48222   48231   48249       4   48204   48216   48231   48249       4
   48204   48216   48234   48255       7   48204   48216   48234   48258       7
   48201   48213   48228   48246       4   48198   48207   48222   48237       4
   48195   48207   48222   48237       4   48192   48195   48204   48219       4
   48564   48549   48561   48567       1   48564   48549   48561   48570       1
   48564   48549   48561   48573       1   48558   48549   48561   48567       1
   48558   48549   48561   48570       1   48558   48549   48561   48573       1
   48555   48546   48549   48558       1   48555   48546   48549   48561       2
   48555   48546   48549   48564       1   48552   48546   48549   48558       1
   48552   48546   48549   48561       2   48552   48546   48549   48564       1
   48546   48549   48561   48567       2   48546   48549   48561   48570       2
   48546   48549   48561   48573       2   48543   48528   48546   48549       2
   48543   48528   48546   48552       1   48543   48528   48546   48555       1
   48540   48528   48546   48549       2   48540   48528   48546   48552       1
   48540   48528   48546   48555       1   48534   48510   48528   48540       1
   48534   48510   48528   48543       1   48534   48510   48528   48546       2
   48531   48510   48528   48540       1   48531   48510   48528   48543       1
   48531   48510   48528   48546       2   48528   48546   48549   48558       2
   48528   48546   48549   48564       2   48525   48504   48519   48537       4
   48522   48498   48519   48537       4   48516   48489   48510   48528       2
   48516   48489   48510   48531       1   48516   48489   48510   48534       1
   48513   48489   48510   48528       2   48513   48489   48510   48531       1
   48513   48489   48510   48534       1   48510   48528   48546   48552       2
   48510   48528   48546   48555       2   48507   48486   48504   48519       4
   48507   48486   48504   48525       4   48504   48519   48498   48522       4
   48501   48483   48498   48519       4   48501   48483   48498   48522       4
   48498   48519   48504   48525       4   48495   48474   48489   48510       2
   48495   48474   48489   48513       1   48495   48474   48489   48516       1
   48492   48474   48489   48510       2   48492   48474   48489   48513       1
   48492   48474   48489   48516       1   48489   48510   48528   48540       2
   48489   48510   48528   48543       2   48486   48471   48483   48501       4
   48486   48504   48519   48537       4   48483   48471   48486   48507       4
   48483   48498   48519   48537       4   48480   48462   48474   48489       2
   48480   48462   48474   48492       1   48480   48462   48474   48495       1
   48477   48462   48474   48489       2   48477   48462   48474   48492       1
   48477   48462   48474   48495       1   48474   48489   48510   48531       2
   48474   48489   48510   48534       2   48471   48483   48498   48522       4
   48471   48486   48504   48525       4   48468   48444   48462   48474       2
   48468   48444   48462   48477       1   48468   48444   48462   48480       1
   48465   48444   48462   48474       2   48465   48444   48462   48477       1
   48465   48444   48462   48480       1   48462   48474   48489   48513       2
   48462   48474   48489   48516       2   48459   48435   48453   48471       4
   48456   48432   48453   48471       4   48453   48471   48483   48501       4
   48453   48471   48486   48507       4   48450   48426   48444   48462       2
   48450   48426   48444   48465       1   48450   48426   48444   48468       1
   48447   48426   48444   48462       2   48447   48426   48444   48465       1
   48447   48426   48444   48468       1   48444   48462   48474   48492       2
   48444   48462   48474   48495       2   48438   48420   48435   48453       4
   48438   48420   48435   48459       4   48435   48453   48432   48456       4
   48432   48453   48435   48459       4   48429   48414   48423   48441       4
   48426   48408   48423   48441       4   48426   48444   48462   48477       2
   48426   48444   48462   48480       2   48423   48408   48426   48447       7
   48423   48408   48426   48450       7   48417   48405   48420   48438       4
   48411   48396   48408   48423       4   48411   48396   48408   48426       4
   48408   48423   48414   48429       4   48408   48426   48444   48465       8
   48408   48426   48444   48468       8   48405   48417   48432   48456       4
   48405   48420   48435   48459       4   48402   48417   48432   48456       4
   48399   48387   48396   48411       4   48399   48414   48423   48441       4
   48396   48408   48423   48441       4   48396   48408   48426   48447       7
   48396   48408   48426   48450       7   48393   48405   48420   48438       4
   48390   48399   48414   48429       4   48387   48399   48414   48429       4
   48384   48387   48396   48411       4   48756   48741   48753   48759       1
   48756   48741   48753   48762       1   48756   48741   48753   48765       1
   48750   48741   48753   48759       1   48750   48741   48753   48762       1
   48750   48741   48753   48765       1   48747   48738   48741   48750       1
   48747   48738   48741   48753       2   48747   48738   48741   48756       1
   48744   48738   48741   48750       1   48744   48738   48741   48753       2
   48744   48738   48741   48756       1   48738   48741   48753   48759       2
   48738   48741   48753   48762       2   48738   48741   48753   48765       2
   48735   48720   48738   48741       2   48735   48720   48738   48744       1
   48735   48720   48738   48747       1   48732   48720   48738   48741       2
   48732   48720   48738   48744       1   48732   48720   48738   48747       1
   48726   48702   48720   48732       1   48726   48702   48720   48735       1
   48726   48702   48720   48738       2   48723   48702   48720   48732       1
   48723   48702   48720   48735       1   48723   48702   48720   48738       2
   48720   48738   48741   48750       2   48720   48738   48741   48756       2
   48717   48696   48711   48729       4   48714   48690   48711   48729       4
   48708   48681   48702   48720       2   48708   48681   48702   48723       1
   48708   48681   48702   48726       1   48705   48681   48702   48720       2
   48705   48681   48702   48723       1   48705   48681   48702   48726       1
   48702   48720   48738   48744       2   48702   48720   48738   48747       2
   48699   48678   48696   48711       4   48699   48678   48696   48717       4
   48696   48711   48690   48714       4   48693   48675   48690   48711       4
   48693   48675   48690   48714       4   48690   48711   48696   48717       4
   48687   48666   48681   48702       2   48687   48666   48681   48705       1
   48687   48666   48681   48708       1   48684   48666   48681   48702       2
   48684   48666   48681   48705       1   48684   48666   48681   48708       1
   48681   48702   48720   48732       2   48681   48702   48720   48735       2
   48678   48663   48675   48693       4   48678   48696   48711   48729       4
   48675   48663   48678   48699       4   48675   48690   48711   48729       4
   48672   48654   48666   48681       2   48672   48654   48666   48684       1
   48672   48654   48666   48687       1   48669   48654   48666   48681       2
   48669   48654   48666   48684       1   48669   48654   48666   48687       1
   48666   48681   48702   48723       2   48666   48681   48702   48726       2
   48663   48675   48690   48714       4   48663   48678   48696   48717       4
   48660   48636   48654   48666       2   48660   48636   48654   48669       1
   48660   48636   48654   48672       1   48657   48636   48654   48666       2
   48657   48636   48654   48669       1   48657   48636   48654   48672       1
   48654   48666   48681   48705       2   48654   48666   48681   48708       2
   48651   48627   48645   48663       4   48648   48624   48645   48663       4
   48645   48663   48675   48693       4   48645   48663   48678   48699       4
   48642   48618   48636   48654       2   48642   48618   48636   48657       1
   48642   48618   48636   48660       1   48639   48618   48636   48654       2
   48639   48618   48636   48657       1   48639   48618   48636   48660       1
   48636   48654   48666   48684       2   48636   48654   48666   48687       2
   48630   48612   48627   48645       4   48630   48612   48627   48651       4
   48627   48645   48624   48648       4   48624   48645   48627   48651       4
   48621   48606   48615   48633       4   48618   48600   48615   48633       4
   48618   48636   48654   48669       2   48618   48636   48654   48672       2
   48615   48600   48618   48639       7   48615   48600   48618   48642       7
   48609   48597   48612   48630       4   48603   48588   48600   48615       4
   48603   48588   48600   48618       4   48600   48615   48606   48621       4
   48600   48618   48636   48657       8   48600   48618   48636   48660       8
   48597   48609   48624   48648       4   48597   48612   48627   48651       4
   48594   48609   48624   48648       4   48591   48579   48588   48603       4
   48591   48606   48615   48633       4   48588   48600   48615   48633       4
   48588   48600   48618   48639       7   48588   48600   48618   48642       7
   48585   48597   48612   48630       4   48582   48591   48606   48621       4
   48579   48591   48606   48621       4   48576   48579   48588   48603       4
   48948   48933   48945   48951       1   48948   48933   48945   48954       1
   48948   48933   48945   48957       1   48942   48933   48945   48951       1
   48942   48933   48945   48954       1   48942   48933   48945   48957       1
   48939   48930   48933   48942       1   48939   48930   48933   48945       2
   48939   48930   48933   48948       1   48936   48930   48933   48942       1
   48936   48930   48933   48945       2   48936   48930   48933   48948       1
   48930   48933   48945   48951       2   48930   48933   48945   48954       2
   48930   48933   48945   48957       2   48927   48912   48930   48933       2
   48927   48912   48930   48936       1   48927   48912   48930   48939       1
   48924   48912   48930   48933       2   48924   48912   48930   48936       1
   48924   48912   48930   48939       1   48918   48894   48912   48924       1
   48918   48894   48912   48927       1   48918   48894   48912   48930       2
   48915   48894   48912   48924       1   48915   48894   48912   48927       1
   48915   48894   48912   48930       2   48912   48930   48933   48942       2
   48912   48930   48933   48948       2   48909   48888   48903   48921       4
   48906   48882   48903   48921       4   48900   48873   48894   48912       2
   48900   48873   48894   48915       1   48900   48873   48894   48918       1
   48897   48873   48894   48912       2   48897   48873   48894   48915       1
   48897   48873   48894   48918       1   48894   48912   48930   48936       2
   48894   48912   48930   48939       2   48891   48870   48888   48903       4
   48891   48870   48888   48909       4   48888   48903   48882   48906       4
   48885   48867   48882   48903       4   48885   48867   48882   48906       4
   48882   48903   48888   48909       4   48879   48858   48873   48894       2
   48879   48858   48873   48897       1   48879   48858   48873   48900       1
   48876   48858   48873   48894       2   48876   48858   48873   48897       1
   48876   48858   48873   48900       1   48873   48894   48912   48924       2
   48873   48894   48912   48927       2   48870   48855   48867   48885       4
   48870   48888   48903   48921       4   48867   48855   48870   48891       4
   48867   48882   48903   48921       4   48864   48846   48858   48873       2
   48864   48846   48858   48876       1   48864   48846   48858   48879       1
   48861   48846   48858   48873       2   48861   48846   48858   48876       1
   48861   48846   48858   48879       1   48858   48873   48894   48915       2
   48858   48873   48894   48918       2   48855   48867   48882   48906       4
   48855   48870   48888   48909       4   48852   48828   48846   48858       2
   48852   48828   48846   48861       1   48852   48828   48846   48864       1
   48849   48828   48846   48858       2   48849   48828   48846   48861       1
   48849   48828   48846   48864       1   48846   48858   48873   48897       2
   48846   48858   48873   48900       2   48843   48819   48837   48855       4
   48840   48816   48837   48855       4   48837   48855   48867   48885       4
   48837   48855   48870   48891       4   48834   48810   48828   48846       2
   48834   48810   48828   48849       1   48834   48810   48828   48852       1
   48831   48810   48828   48846       2   48831   48810   48828   48849       1
   48831   48810   48828   48852       1   48828   48846   48858   48876       2
   48828   48846   48858   48879       2   48822   48804   48819   48837       4
   48822   48804   48819   48843       4   48819   48837   48816   48840       4
   48816   48837   48819   48843       4   48813   48798   48807   48825       4
   48810   48792   48807   48825       4   48810   48828   48846   48861       2
   48810   48828   48846   48864       2   48807   48792   48810   48831       7
   48807   48792   48810   48834       7   48801   48789   48804   48822       4
   48795   48780   48792   48807       4   48795   48780   48792   48810       4
   48792   48807   48798   48813       4   48792   48810   48828   48849       8
   48792   48810   48828   48852       8   48789   48801   48816   48840       4
   48789   48804   48819   48843       4   48786   48801   48816   48840       4
   48783   48771   48780   48795       4   48783   48798   48807   48825       4
   48780   48792   48807   48825       4   48780   48792   48810   48831       7
   48780   48792   48810   48834       7   48777   48789   48804   48822       4
   48774   48783   48798   48813       4   48771   48783   48798   48813       4
   48768   48771   48780   48795       4   49140   49125   49137   49143       1
   49140   49125   49137   49146       1   49140   49125   49137   49149       1
   49134   49125   49137   49143       1   49134   49125   49137   49146       1
   49134   49125   49137   49149       1   49131   49122   49125   49134       1
   49131   49122   49125   49137       2   49131   49122   49125   49140       1
   49128   49122   49125   49134       1   49128   49122   49125   49137       2
   49128   49122   49125   49140       1   49122   49125   49137   49143       2
   49122   49125   49137   49146       2   49122   49125   49137   49149       2
   49119   49104   49122   49125       2   49119   49104   49122   49128       1
   49119   49104   49122   49131       1   49116   49104   49122   49125       2
   49116   49104   49122   49128       1   49116   49104   49122   49131       1
   49110   49086   49104   49116       1   49110   49086   49104   49119       1
   49110   49086   49104   49122       2   49107   49086   49104   49116       1
   49107   49086   49104   49119       1   49107   49086   49104   49122       2
   49104   49122   49125   49134       2   49104   49122   49125   49140       2
   49101   49080   49095   49113       4   49098   49074   49095   49113       4
   49092   49065   49086   49104       2   49092   49065   49086   49107       1
   49092   49065   49086   49110       1   49089   49065   49086   49104       2
   49089   49065   49086   49107       1   49089   49065   49086   49110       1
   49086   49104   49122   49128       2   49086   49104   49122   49131       2
   49083   49062   49080   49095       4   49083   49062   49080   49101       4
   49080   49095   49074   49098       4   49077   49059   49074   49095       4
   49077   49059   49074   49098       4   49074   49095   49080   49101       4
   49071   49050   49065   49086       2   49071   49050   49065   49089       1
   49071   49050   49065   49092       1   49068   49050   49065   49086       2
   49068   49050   49065   49089       1   49068   49050   49065   49092       1
   49065   49086   49104   49116       2   49065   49086   49104   49119       2
   49062   49047   49059   49077       4   49062   49080   49095   49113       4
   49059   49047   49062   49083       4   49059   49074   49095   49113       4
   49056   49038   49050   49065       2   49056   49038   49050   49068       1
   49056   49038   49050   49071       1   49053   49038   49050   49065       2
   49053   49038   49050   49068       1   49053   49038   49050   49071       1
   49050   49065   49086   49107       2   49050   49065   49086   49110       2
   49047   49059   49074   49098       4   49047   49062   49080   49101       4
   49044   49020   49038   49050       2   49044   49020   49038   49053       1
   49044   49020   49038   49056       1   49041   49020   49038   49050       2
   49041   49020   49038   49053       1   49041   49020   49038   49056       1
   49038   49050   49065   49089       2   49038   49050   49065   49092       2
   49035   49011   49029   49047       4   49032   49008   49029   49047       4
   49029   49047   49059   49077       4   49029   49047   49062   49083       4
   49026   49002   49020   49038       2   49026   49002   49020   49041       1
   49026   49002   49020   49044       1   49023   49002   49020   49038       2
   49023   49002   49020   49041       1   49023   49002   49020   49044       1
   49020   49038   49050   49068       2   49020   49038   49050   49071       2
   49014   48996   49011   49029       4   49014   48996   49011   49035       4
   49011   49029   49008   49032       4   49008   49029   49011   49035       4
   49005   48990   48999   49017       4   49002   48984   48999   49017       4
   49002   49020   49038   49053       2   49002   49020   49038   49056       2
   48999   48984   49002   49023       7   48999   48984   49002   49026       7
   48993   48981   48996   49014       4   48987   48972   48984   48999       4
   48987   48972   48984   49002       4   48984   48999   48990   49005       4
   48984   49002   49020   49041       8   48984   49002   49020   49044       8
   48981   48993   49008   49032       4   48981   48996   49011   49035       4
   48978   48993   49008   49032       4   48975   48963   48972   48987       4
   48975   48990   48999   49017       4   48972   48984   48999   49017       4
   48972   48984   49002   49023       7   48972   48984   49002   49026       7
   48969   48981   48996   49014       4   48966   48975   48990   49005       4
   48963   48975   48990   49005       4   48960   48963   48972   48987       4
   49332   49317   49329   49335       1   49332   49317   49329   49338       1
   49332   49317   49329   49341       1   49326   49317   49329   49335       1
   49326   49317   49329   49338       1   49326   49317   49329   49341       1
   49323   49314   49317   49326       1   49323   49314   49317   49329       2
   49323   49314   49317   49332       1   49320   49314   49317   49326       1
   49320   49314   49317   49329       2   49320   49314   49317   49332       1
   49314   49317   49329   49335       2   49314   49317   49329   49338       2
   49314   49317   49329   49341       2   49311   49296   49314   49317       2
   49311   49296   49314   49320       1   49311   49296   49314   49323       1
   49308   49296   49314   49317       2   49308   49296   49314   49320       1
   49308   49296   49314   49323       1   49302   49278   49296   49308       1
   49302   49278   49296   49311       1   49302   49278   49296   49314       2
   49299   49278   49296   49308       1   49299   49278   49296   49311       1
   49299   49278   49296   49314       2   49296   49314   49317   49326       2
   49296   49314   49317   49332       2   49293   49272   49287   49305       4
   49290   49266   49287   49305       4   49284   49257   49278   49296       2
   49284   49257   49278   49299       1   49284   49257   49278   49302       1
   49281   49257   49278   49296       2   49281   49257   49278   49299       1
   49281   49257   49278   49302       1   49278   49296   49314   49320       2
   49278   49296   49314   49323       2   49275   49254   49272   49287       4
   49275   49254   49272   49293       4   49272   49287   49266   49290       4
   49269   49251   49266   49287       4   49269   49251   49266   49290       4
   49266   49287   49272   49293       4   49263   49242   49257   49278       2
   49263   49242   49257   49281       1   49263   49242   49257   49284       1
   49260   49242   49257   49278       2   49260   49242   49257   49281       1
   49260   49242   49257   49284       1   49257   49278   49296   49308       2
   49257   49278   49296   49311       2   49254   49239   49251   49269       4
   49254   49272   49287   49305       4   49251   49239   49254   49275       4
   49251   49266   49287   49305       4   49248   49230   49242   49257       2
   49248   49230   49242   49260       1   49248   49230   49242   49263       1
   49245   49230   49242   49257       2   49245   49230   49242   49260       1
   49245   49230   49242   49263       1   49242   49257   49278   49299       2
   49242   49257   49278   49302       2   49239   49251   49266   49290       4
   49239   49254   49272   49293       4   49236   49212   49230   49242       2
   49236   49212   49230   49245       1   49236   49212   49230   49248       1
   49233   49212   49230   49242       2   49233   49212   49230   49245       1
   49233   49212   49230   49248       1   49230   49242   49257   49281       2
   49230   49242   49257   49284       2   49227   49203   49221   49239       4
   49224   49200   49221   49239       4   49221   49239   49251   49269       4
   49221   49239   49254   49275       4   49218   49194   49212   49230       2
   49218   49194   49212   49233       1   49218   49194   49212   49236       1
   49215   49194   49212   49230       2   49215   49194   49212   49233       1
   49215   49194   49212   49236       1   49212   49230   49242   49260       2
   49212   49230   49242   49263       2   49206   49188   49203   49221       4
   49206   49188   49203   49227       4   49203   49221   49200   49224       4
   49200   49221   49203   49227       4   49197   49182   49191   49209       4
   49194   49176   49191   49209       4   49194   49212   49230   49245       2
   49194   49212   49230   49248       2   49191   49176   49194   49215       7
   49191   49176   49194   49218       7   49185   49173   49188   49206       4
   49179   49164   49176   49191       4   49179   49164   49176   49194       4
   49176   49191   49182   49197       4   49176   49194   49212   49233       8
   49176   49194   49212   49236       8   49173   49185   49200   49224       4
   49173   49188   49203   49227       4   49170   49185   49200   49224       4
   49167   49155   49164   49179       4   49167   49182   49191   49209       4
   49164   49176   49191   49209       4   49164   49176   49194   49215       7
   49164   49176   49194   49218       7   49161   49173   49188   49206       4
   49158   49167   49182   49197       4   49155   49167   49182   49197       4
   49152   49155   49164   49179       4   49524   49509   49521   49527       1
   49524   49509   49521   49530       1   49524   49509   49521   49533       1
   49518   49509   49521   49527       1   49518   49509   49521   49530       1
   49518   49509   49521   49533       1   49515   49506   49509   49518       1
   49515   49506   49509   49521       2   49515   49506   49509   49524       1
   49512   49506   49509   49518       1   49512   49506   49509   49521       2
   49512   49506   49509   49524       1   49506   49509   49521   49527       2
   49506   49509   49521   49530       2   49506   49509   49521   49533       2
   49503   49488   49506   49509       2   49503   49488   49506   49512       1
   49503   49488   49506   49515       1   49500   49488   49506   49509       2
   49500   49488   49506   49512       1   49500   49488   49506   49515       1
   49494   49470   49488   49500       1   49494   49470   49488   49503       1
   49494   49470   49488   49506       2   49491   49470   49488   49500       1
   49491   49470   49488   49503       1   49491   49470   49488   49506       2
   49488   49506   49509   49518       2   49488   49506   49509   49524       2
   49485   49464   49479   49497       4   49482   49458   49479   49497       4
   49476   49449   49470   49488       2   49476   49449   49470   49491       1
   49476   49449   49470   49494       1   49473   49449   49470   49488       2
   49473   49449   49470   49491       1   49473   49449   49470   49494       1
   49470   49488   49506   49512       2   49470   49488   49506   49515       2
   49467   49446   49464   49479       4   49467   49446   49464   49485       4
   49464   49479   49458   49482       4   49461   49443   49458   49479       4
   49461   49443   49458   49482       4   49458   49479   49464   49485       4
   49455   49434   49449   49470       2   49455   49434   49449   49473       1
   49455   49434   49449   49476       1   49452   49434   49449   49470       2
   49452   49434   49449   49473       1   49452   49434   49449   49476       1
   49449   49470   49488   49500       2   49449   49470   49488   49503       2
   49446   49431   49443   49461       4   49446   49464   49479   49497       4
   49443   49431   49446   49467       4   49443   49458   49479   49497       4
   49440   49422   49434   49449       2   49440   49422   49434   49452       1
   49440   49422   49434   49455       1   49437   49422   49434   49449       2
   49437   49422   49434   49452       1   49437   49422   49434   49455       1
   49434   49449   49470   49491       2   49434   49449   49470   49494       2
   49431   49443   49458   49482       4   49431   49446   49464   49485       4
   49428   49404   49422   49434       2   49428   49404   49422   49437       1
   49428   49404   49422   49440       1   49425   49404   49422   49434       2
   49425   49404   49422   49437       1   49425   49404   49422   49440       1
   49422   49434   49449   49473       2   49422   49434   49449   49476       2
   49419   49395   49413   49431       4   49416   49392   49413   49431       4
   49413   49431   49443   49461       4   49413   49431   49446   49467       4
   49410   49386   49404   49422       2   49410   49386   49404   49425       1
   49410   49386   49404   49428       1   49407   49386   49404   49422       2
   49407   49386   49404   49425       1   49407   49386   49404   49428       1
   49404   49422   49434   49452       2   49404   49422   49434   49455       2
   49398   49380   49395   49413       4   49398   49380   49395   49419       4
   49395   49413   49392   49416       4   49392   49413   49395   49419       4
   49389   49374   49383   49401       4   49386   49368   49383   49401       4
   49386   49404   49422   49437       2   49386   49404   49422   49440       2
   49383   49368   49386   49407       7   49383   49368   49386   49410       7
   49377   49365   49380   49398       4   49371   49356   49368   49383       4
   49371   49356   49368   49386       4   49368   49383   49374   49389       4
   49368   49386   49404   49425       8   49368   49386   49404   49428       8
   49365   49377   49392   49416       4   49365   49380   49395   49419       4
   49362   49377   49392   49416       4   49359   49347   49356   49371       4
   49359   49374   49383   49401       4   49356   49368   49383   49401       4
   49356   49368   49386   49407       7   49356   49368   49386   49410       7
   49353   49365   49380   49398       4   49350   49359   49374   49389       4
   49347   49359   49374   49389       4   49344   49347   49356   49371       4
   49716   49701   49713   49719       1   49716   49701   49713   49722       1
   49716   49701   49713   49725       1   49710   49701   49713   49719       1
   49710   49701   49713   49722       1   49710   49701   49713   49725       1
   49707   49698   49701   49710       1   49707   49698   49701   49713       2
   49707   49698   49701   49716       1   49704   49698   49701   49710       1
   49704   49698   49701   49713       2   49704   49698   49701   49716       1
   49698   49701   49713   49719       2   49698   49701   49713   49722       2
   49698   49701   49713   49725       2   49695   49680   49698   49701       2
   49695   49680   49698   49704       1   49695   49680   49698   49707       1
   49692   49680   49698   49701       2   49692   49680   49698   49704       1
   49692   49680   49698   49707       1   49686   49662   49680   49692       1
   49686   49662   49680   49695       1   49686   49662   49680   49698       2
   49683   49662   49680   49692       1   49683   49662   49680   49695       1
   49683   49662   49680   49698       2   49680   49698   49701   49710       2
   49680   49698   49701   49716       2   49677   49656   49671   49689       4
   49674   49650   49671   49689       4   49668   49641   49662   49680       2
   49668   49641   49662   49683       1   49668   49641   49662   49686       1
   49665   49641   49662   49680       2   49665   49641   49662   49683       1
   49665   49641   49662   49686       1   49662   49680   49698   49704       2
   49662   49680   49698   49707       2   49659   49638   49656   49671       4
   49659   49638   49656   49677       4   49656   49671   49650   49674       4
   49653   49635   49650   49671       4   49653   49635   49650   49674       4
   49650   49671   49656   49677       4   49647   49626   49641   49662       2
   49647   49626   49641   49665       1   49647   49626   49641   49668       1
   49644   49626   49641   49662       2   49644   49626   49641   49665       1
   49644   49626   49641   49668       1   49641   49662   49680   49692       2
   49641   49662   49680   49695       2   49638   49623   49635   49653       4
   49638   49656   49671   49689       4   49635   49623   49638   49659       4
   49635   49650   49671   49689       4   49632   49614   49626   49641       2
   49632   49614   49626   49644       1   49632   49614   49626   49647       1
   49629   49614   49626   49641       2   49629   49614   49626   49644       1
   49629   49614   49626   49647       1   49626   49641   49662   49683       2
   49626   49641   49662   49686       2   49623   49635   49650   49674       4
   49623   49638   49656   49677       4   49620   49596   49614   49626       2
   49620   49596   49614   49629       1   49620   49596   49614   49632       1
   49617   49596   49614   49626       2   49617   49596   49614   49629       1
   49617   49596   49614   49632       1   49614   49626   49641   49665       2
   49614   49626   49641   49668       2   49611   49587   49605   49623       4
   49608   49584   49605   49623       4   49605   49623   49635   49653       4
   49605   49623   49638   49659       4   49602   49578   49596   49614       2
   49602   49578   49596   49617       1   49602   49578   49596   49620       1
   49599   49578   49596   49614       2   49599   49578   49596   49617       1
   49599   49578   49596   49620       1   49596   49614   49626   49644       2
   49596   49614   49626   49647       2   49590   49572   49587   49605       4
   49590   49572   49587   49611       4   49587   49605   49584   49608       4
   49584   49605   49587   49611       4   49581   49566   49575   49593       4
   49578   49560   49575   49593       4   49578   49596   49614   49629       2
   49578   49596   49614   49632       2   49575   49560   49578   49599       7
   49575   49560   49578   49602       7   49569   49557   49572   49590       4
   49563   49548   49560   49575       4   49563   49548   49560   49578       4
   49560   49575   49566   49581       4   49560   49578   49596   49617       8
   49560   49578   49596   49620       8   49557   49569   49584   49608       4
   49557   49572   49587   49611       4   49554   49569   49584   49608       4
   49551   49539   49548   49563       4   49551   49566   49575   49593       4
   49548   49560   49575   49593       4   49548   49560   49578   49599       7
   49548   49560   49578   49602       7   49545   49557   49572   49590       4
   49542   49551   49566   49581       4   49539   49551   49566   49581       4
   49536   49539   49548   49563       4   49908   49893   49905   49911       1
   49908   49893   49905   49914       1   49908   49893   49905   49917       1
   49902   49893   49905   49911       1   49902   49893   49905   49914       1
   49902   49893   49905   49917       1   49899   49890   49893   49902       1
   49899   49890   49893   49905       2   49899   49890   49893   49908       1
   49896   49890   49893   49902       1   49896   49890   49893   49905       2
   49896   49890   49893   49908       1   49890   49893   49905   49911       2
   49890   49893   49905   49914       2   49890   49893   49905   49917       2
   49887   49872   49890   49893       2   49887   49872   49890   49896       1
   49887   49872   49890   49899       1   49884   49872   49890   49893       2
   49884   49872   49890   49896       1   49884   49872   49890   49899       1
   49878   49854   49872   49884       1   49878   49854   49872   49887       1
   49878   49854   49872   49890       2   49875   49854   49872   49884       1
   49875   49854   49872   49887       1   49875   49854   49872   49890       2
   49872   49890   49893   49902       2   49872   49890   49893   49908       2
   49869   49848   49863   49881       4   49866   49842   49863   49881       4
   49860   49833   49854   49872       2   49860   49833   49854   49875       1
   49860   49833   49854   49878       1   49857   49833   49854   49872       2
   49857   49833   49854   49875       1   49857   49833   49854   49878       1
   49854   49872   49890   49896       2   49854   49872   49890   49899       2
   49851   49830   49848   49863       4   49851   49830   49848   49869       4
   49848   49863   49842   49866       4   49845   49827   49842   49863       4
   49845   49827   49842   49866       4   49842   49863   49848   49869       4
   49839   49818   49833   49854       2   49839   49818   49833   49857       1
   49839   49818   49833   49860       1   49836   49818   49833   49854       2
   49836   49818   49833   49857       1   49836   49818   49833   49860       1
   49833   49854   49872   49884       2   49833   49854   49872   49887       2
   49830   49815   49827   49845       4   49830   49848   49863   49881       4
   49827   49815   49830   49851       4   49827   49842   49863   49881       4
   49824   49806   49818   49833       2   49824   49806   49818   49836       1
   49824   49806   49818   49839       1   49821   49806   49818   49833       2
   49821   49806   49818   49836       1   49821   49806   49818   49839       1
   49818   49833   49854   49875       2   49818   49833   49854   49878       2
   49815   49827   49842   49866       4   49815   49830   49848   49869       4
   49812   49788   49806   49818       2   49812   49788   49806   49821       1
   49812   49788   49806   49824       1   49809   49788   49806   49818       2
   49809   49788   49806   49821       1   49809   49788   49806   49824       1
   49806   49818   49833   49857       2   49806   49818   49833   49860       2
   49803   49779   49797   49815       4   49800   49776   49797   49815       4
   49797   49815   49827   49845       4   49797   49815   49830   49851       4
   49794   49770   49788   49806       2   49794   49770   49788   49809       1
   49794   49770   49788   49812       1   49791   49770   49788   49806       2
   49791   49770   49788   49809       1   49791   49770   49788   49812       1
   49788   49806   49818   49836       2   49788   49806   49818   49839       2
   49782   49764   49779   49797       4   49782   49764   49779   49803       4
   49779   49797   49776   49800       4   49776   49797   49779   49803       4
   49773   49758   49767   49785       4   49770   49752   49767   49785       4
   49770   49788   49806   49821       2   49770   49788   49806   49824       2
   49767   49752   49770   49791       7   49767   49752   49770   49794       7
   49761   49749   49764   49782       4   49755   49740   49752   49767       4
   49755   49740   49752   49770       4   49752   49767   49758   49773       4
   49752   49770   49788   49809       8   49752   49770   49788   49812       8
   49749   49761   49776   49800       4   49749   49764   49779   49803       4
   49746   49761   49776   49800       4   49743   49731   49740   49755       4
   49743   49758   49767   49785       4   49740   49752   49767   49785       4
   49740   49752   49770   49791       7   49740   49752   49770   49794       7
   49737   49749   49764   49782       4   49734   49743   49758   49773       4
   49731   49743   49758   49773       4   49728   49731   49740   49755       4
   50100   50085   50097   50103       1   50100   50085   50097   50106       1
   50100   50085   50097   50109       1   50094   50085   50097   50103       1
   50094   50085   50097   50106       1   50094   50085   50097   50109       1
   50091   50082   50085   50094       1   50091   50082   50085   50097       2
   50091   50082   50085   50100       1   50088   50082   50085   50094       1
   50088   50082   50085   50097       2   50088   50082   50085   50100       1
   50082   50085   50097   50103       2   50082   50085   50097   50106       2
   50082   50085   50097   50109       2   50079   50064   50082   50085       2
   50079   50064   50082   50088       1   50079   50064   50082   50091       1
   50076   50064   50082   50085       2   50076   50064   50082   50088       1
   50076   50064   50082   50091       1   50070   50046   50064   50076       1
   50070   50046   50064   50079       1   50070   50046   50064   50082       2
   50067   50046   50064   50076       1   50067   50046   50064   50079       1
   50067   50046   50064   50082       2   50064   50082   50085   50094       2
   50064   50082   50085   50100       2   50061   50040   50055   50073       4
   50058   50034   50055   50073       4   50052   50025   50046   50064       2
   50052   50025   50046   50067       1   50052   50025   50046   50070       1
   50049   50025   50046   50064       2   50049   50025   50046   50067       1
   50049   50025   50046   50070       1   50046   50064   50082   50088       2
   50046   50064   50082   50091       2   50043   50022   50040   50055       4
   50043   50022   50040   50061       4   50040   50055   50034   50058       4
   50037   50019   50034   50055       4   50037   50019   50034   50058       4
   50034   50055   50040   50061       4   50031   50010   50025   50046       2
   50031   50010   50025   50049       1   50031   50010   50025   50052       1
   50028   50010   50025   50046       2   50028   50010   50025   50049       1
   50028   50010   50025   50052       1   50025   50046   50064   50076       2
   50025   50046   50064   50079       2   50022   50007   50019   50037       4
   50022   50040   50055   50073       4   50019   50007   50022   50043       4
   50019   50034   50055   50073       4   50016   49998   50010   50025       2
   50016   49998   50010   50028       1   50016   49998   50010   50031       1
   50013   49998   50010   50025       2   50013   49998   50010   50028       1
   50013   49998   50010   50031       1   50010   50025   50046   50067       2
   50010   50025   50046   50070       2   50007   50019   50034   50058       4
   50007   50022   50040   50061       4   50004   49980   49998   50010       2
   50004   49980   49998   50013       1   50004   49980   49998   50016       1
   50001   49980   49998   50010       2   50001   49980   49998   50013       1
   50001   49980   49998   50016       1   49998   50010   50025   50049       2
   49998   50010   50025   50052       2   49995   49971   49989   50007       4
   49992   49968   49989   50007       4   49989   50007   50019   50037       4
   49989   50007   50022   50043       4   49986   49962   49980   49998       2
   49986   49962   49980   50001       1   49986   49962   49980   50004       1
   49983   49962   49980   49998       2   49983   49962   49980   50001       1
   49983   49962   49980   50004       1   49980   49998   50010   50028       2
   49980   49998   50010   50031       2   49974   49956   49971   49989       4
   49974   49956   49971   49995       4   49971   49989   49968   49992       4
   49968   49989   49971   49995       4   49965   49950   49959   49977       4
   49962   49944   49959   49977       4   49962   49980   49998   50013       2
   49962   49980   49998   50016       2   49959   49944   49962   49983       7
   49959   49944   49962   49986       7   49953   49941   49956   49974       4
   49947   49932   49944   49959       4   49947   49932   49944   49962       4
   49944   49959   49950   49965       4   49944   49962   49980   50001       8
   49944   49962   49980   50004       8   49941   49953   49968   49992       4
   49941   49956   49971   49995       4   49938   49953   49968   49992       4
   49935   49923   49932   49947       4   49935   49950   49959   49977       4
   49932   49944   49959   49977       4   49932   49944   49962   49983       7
   49932   49944   49962   49986       7   49929   49941   49956   49974       4
   49926   49935   49950   49965       4   49923   49935   49950   49965       4
   49920   49923   49932   49947       4   50292   50277   50289   50295       1
   50292   50277   50289   50298       1   50292   50277   50289   50301       1
   50286   50277   50289   50295       1   50286   50277   50289   50298       1
   50286   50277   50289   50301       1   50283   50274   50277   50286       1
   50283   50274   50277   50289       2   50283   50274   50277   50292       1
   50280   50274   50277   50286       1   50280   50274   50277   50289       2
   50280   50274   50277   50292       1   50274   50277   50289   50295       2
   50274   50277   50289   50298       2   50274   50277   50289   50301       2
   50271   50256   50274   50277       2   50271   50256   50274   50280       1
   50271   50256   50274   50283       1   50268   50256   50274   50277       2
   50268   50256   50274   50280       1   50268   50256   50274   50283       1
   50262   50238   50256   50268       1   50262   50238   50256   50271       1
   50262   50238   50256   50274       2   50259   50238   50256   50268       1
   50259   50238   50256   50271       1   50259   50238   50256   50274       2
   50256   50274   50277   50286       2   50256   50274   50277   50292       2
   50253   50232   50247   50265       4   50250   50226   50247   50265       4
   50244   50217   50238   50256       2   50244   50217   50238   50259       1
   50244   50217   50238   50262       1   50241   50217   50238   50256       2
   50241   50217   50238   50259       1   50241   50217   50238   50262       1
   50238   50256   50274   50280       2   50238   50256   50274   50283       2
   50235   50214   50232   50247       4   50235   50214   50232   50253       4
   50232   50247   50226   50250       4   50229   50211   50226   50247       4
   50229   50211   50226   50250       4   50226   50247   50232   50253       4
   50223   50202   50217   50238       2   50223   50202   50217   50241       1
   50223   50202   50217   50244       1   50220   50202   50217   50238       2
   50220   50202   50217   50241       1   50220   50202   50217   50244       1
   50217   50238   50256   50268       2   50217   50238   50256   50271       2
   50214   50199   50211   50229       4   50214   50232   50247   50265       4
   50211   50199   50214   50235       4   50211   50226   50247   50265       4
   50208   50190   50202   50217       2   50208   50190   50202   50220       1
   50208   50190   50202   50223       1   50205   50190   50202   50217       2
   50205   50190   50202   50220       1   50205   50190   50202   50223       1
   50202   50217   50238   50259       2   50202   50217   50238   50262       2
   50199   50211   50226   50250       4   50199   50214   50232   50253       4
   50196   50172   50190   50202       2   50196   50172   50190   50205       1
   50196   50172   50190   50208       1   50193   50172   50190   50202       2
   50193   50172   50190   50205       1   50193   50172   50190   50208       1
   50190   50202   50217   50241       2   50190   50202   50217   50244       2
   50187   50163   50181   50199       4   50184   50160   50181   50199       4
   50181   50199   50211   50229       4   50181   50199   50214   50235       4
   50178   50154   50172   50190       2   50178   50154   50172   50193       1
   50178   50154   50172   50196       1   50175   50154   50172   50190       2
   50175   50154   50172   50193       1   50175   50154   50172   50196       1
   50172   50190   50202   50220       2   50172   50190   50202   50223       2
   50166   50148   50163   50181       4   50166   50148   50163   50187       4
   50163   50181   50160   50184       4   50160   50181   50163   50187       4
   50157   50142   50151   50169       4   50154   50136   50151   50169       4
   50154   50172   50190   50205       2   50154   50172   50190   50208       2
   50151   50136   50154   50175       7   50151   50136   50154   50178       7
   50145   50133   50148   50166       4   50139   50124   50136   50151       4
   50139   50124   50136   50154       4   50136   50151   50142   50157       4
   50136   50154   50172   50193       8   50136   50154   50172   50196       8
   50133   50145   50160   50184       4   50133   50148   50163   50187       4
   50130   50145   50160   50184       4   50127   50115   50124   50139       4
   50127   50142   50151   50169       4   50124   50136   50151   50169       4
   50124   50136   50154   50175       7   50124   50136   50154   50178       7
   50121   50133   50148   50166       4   50118   50127   50142   50157       4
   50115   50127   50142   50157       4   50112   50115   50124   50139       4
   50484   50469   50481   50487       1   50484   50469   50481   50490       1
   50484   50469   50481   50493       1   50478   50469   50481   50487       1
   50478   50469   50481   50490       1   50478   50469   50481   50493       1
   50475   50466   50469   50478       1   50475   50466   50469   50481       2
   50475   50466   50469   50484       1   50472   50466   50469   50478       1
   50472   50466   50469   50481       2   50472   50466   50469   50484       1
   50466   50469   50481   50487       2   50466   50469   50481   50490       2
   50466   50469   50481   50493       2   50463   50448   50466   50469       2
   50463   50448   50466   50472       1   50463   50448   50466   50475       1
   50460   50448   50466   50469       2   50460   50448   50466   50472       1
   50460   50448   50466   50475       1   50454   50430   50448   50460       1
   50454   50430   50448   50463       1   50454   50430   50448   50466       2
   50451   50430   50448   50460       1   50451   50430   50448   50463       1
   50451   50430   50448   50466       2   50448   50466   50469   50478       2
   50448   50466   50469   50484       2   50445   50424   50439   50457       4
   50442   50418   50439   50457       4   50436   50409   50430   50448       2
   50436   50409   50430   50451       1   50436   50409   50430   50454       1
   50433   50409   50430   50448       2   50433   50409   50430   50451       1
   50433   50409   50430   50454       1   50430   50448   50466   50472       2
   50430   50448   50466   50475       2   50427   50406   50424   50439       4
   50427   50406   50424   50445       4   50424   50439   50418   50442       4
   50421   50403   50418   50439       4   50421   50403   50418   50442       4
   50418   50439   50424   50445       4   50415   50394   50409   50430       2
   50415   50394   50409   50433       1   50415   50394   50409   50436       1
   50412   50394   50409   50430       2   50412   50394   50409   50433       1
   50412   50394   50409   50436       1   50409   50430   50448   50460       2
   50409   50430   50448   50463       2   50406   50391   50403   50421       4
   50406   50424   50439   50457       4   50403   50391   50406   50427       4
   50403   50418   50439   50457       4   50400   50382   50394   50409       2
   50400   50382   50394   50412       1   50400   50382   50394   50415       1
   50397   50382   50394   50409       2   50397   50382   50394   50412       1
   50397   50382   50394   50415       1   50394   50409   50430   50451       2
   50394   50409   50430   50454       2   50391   50403   50418   50442       4
   50391   50406   50424   50445       4   50388   50364   50382   50394       2
   50388   50364   50382   50397       1   50388   50364   50382   50400       1
   50385   50364   50382   50394       2   50385   50364   50382   50397       1
   50385   50364   50382   50400       1   50382   50394   50409   50433       2
   50382   50394   50409   50436       2   50379   50355   50373   50391       4
   50376   50352   50373   50391       4   50373   50391   50403   50421       4
   50373   50391   50406   50427       4   50370   50346   50364   50382       2
   50370   50346   50364   50385       1   50370   50346   50364   50388       1
   50367   50346   50364   50382       2   50367   50346   50364   50385       1
   50367   50346   50364   50388       1   50364   50382   50394   50412       2
   50364   50382   50394   50415       2   50358   50340   50355   50373       4
   50358   50340   50355   50379       4   50355   50373   50352   50376       4
   50352   50373   50355   50379       4   50349   50334   50343   50361       4
   50346   50328   50343   50361       4   50346   50364   50382   50397       2
   50346   50364   50382   50400       2   50343   50328   50346   50367       7
   50343   50328   50346   50370       7   50337   50325   50340   50358       4
   50331   50316   50328   50343       4   50331   50316   50328   50346       4
   50328   50343   50334   50349       4   50328   50346   50364   50385       8
   50328   50346   50364   50388       8   50325   50337   50352   50376       4
   50325   50340   50355   50379       4   50322   50337   50352   50376       4
   50319   50307   50316   50331       4   50319   50334   50343   50361       4
   50316   50328   50343   50361       4   50316   50328   50346   50367       7
   50316   50328   50346   50370       7   50313   50325   50340   50358       4
   50310   50319   50334   50349       4   50307   50319   50334   50349       4
   50304   50307   50316   50331       4   50676   50661   50673   50679       1
   50676   50661   50673   50682       1   50676   50661   50673   50685       1
   50670   50661   50673   50679       1   50670   50661   50673   50682       1
   50670   50661   50673   50685       1   50667   50658   50661   50670       1
   50667   50658   50661   50673       2   50667   50658   50661   50676       1
   50664   50658   50661   50670       1   50664   50658   50661   50673       2
   50664   50658   50661   50676       1   50658   50661   50673   50679       2
   50658   50661   50673   50682       2   50658   50661   50673   50685       2
   50655   50640   50658   50661       2   50655   50640   50658   50664       1
   50655   50640   50658   50667       1   50652   50640   50658   50661       2
   50652   50640   50658   50664       1   50652   50640   50658   50667       1
   50646   50622   50640   50652       1   50646   50622   50640   50655       1
   50646   50622   50640   50658       2   50643   50622   50640   50652       1
   50643   50622   50640   50655       1   50643   50622   50640   50658       2
   50640   50658   50661   50670       2   50640   50658   50661   50676       2
   50637   50616   50631   50649       4   50634   50610   50631   50649       4
   50628   50601   50622   50640       2   50628   50601   50622   50643       1
   50628   50601   50622   50646       1   50625   50601   50622   50640       2
   50625   50601   50622   50643       1   50625   50601   50622   50646       1
   50622   50640   50658   50664       2   50622   50640   50658   50667       2
   50619   50598   50616   50631       4   50619   50598   50616   50637       4
   50616   50631   50610   50634       4   50613   50595   50610   50631       4
   50613   50595   50610   50634       4   50610   50631   50616   50637       4
   50607   50586   50601   50622       2   50607   50586   50601   50625       1
   50607   50586   50601   50628       1   50604   50586   50601   50622       2
   50604   50586   50601   50625       1   50604   50586   50601   50628       1
   50601   50622   50640   50652       2   50601   50622   50640   50655       2
   50598   50583   50595   50613       4   50598   50616   50631   50649       4
   50595   50583   50598   50619       4   50595   50610   50631   50649       4
   50592   50574   50586   50601       2   50592   50574   50586   50604       1
   50592   50574   50586   50607       1   50589   50574   50586   50601       2
   50589   50574   50586   50604       1   50589   50574   50586   50607       1
   50586   50601   50622   50643       2   50586   50601   50622   50646       2
   50583   50595   50610   50634       4   50583   50598   50616   50637       4
   50580   50556   50574   50586       2   50580   50556   50574   50589       1
   50580   50556   50574   50592       1   50577   50556   50574   50586       2
   50577   50556   50574   50589       1   50577   50556   50574   50592       1
   50574   50586   50601   50625       2   50574   50586   50601   50628       2
   50571   50547   50565   50583       4   50568   50544   50565   50583       4
   50565   50583   50595   50613       4   50565   50583   50598   50619       4
   50562   50538   50556   50574       2   50562   50538   50556   50577       1
   50562   50538   50556   50580       1   50559   50538   50556   50574       2
   50559   50538   50556   50577       1   50559   50538   50556   50580       1
   50556   50574   50586   50604       2   50556   50574   50586   50607       2
   50550   50532   50547   50565       4   50550   50532   50547   50571       4
   50547   50565   50544   50568       4   50544   50565   50547   50571       4
   50541   50526   50535   50553       4   50538   50520   50535   50553       4
   50538   50556   50574   50589       2   50538   50556   50574   50592       2
   50535   50520   50538   50559       7   50535   50520   50538   50562       7
   50529   50517   50532   50550       4   50523   50508   50520   50535       4
   50523   50508   50520   50538       4   50520   50535   50526   50541       4
   50520   50538   50556   50577       8   50520   50538   50556   50580       8
   50517   50529   50544   50568       4   50517   50532   50547   50571       4
   50514   50529   50544   50568       4   50511   50499   50508   50523       4
   50511   50526   50535   50553       4   50508   50520   50535   50553       4
   50508   50520   50538   50559       7   50508   50520   50538   50562       7
   50505   50517   50532   50550       4   50502   50511   50526   50541       4
   50499   50511   50526   50541       4   50496   50499   50508   50523       4
   50868   50853   50865   50871       1   50868   50853   50865   50874       1
   50868   50853   50865   50877       1   50862   50853   50865   50871       1
   50862   50853   50865   50874       1   50862   50853   50865   50877       1
   50859   50850   50853   50862       1   50859   50850   50853   50865       2
   50859   50850   50853   50868       1   50856   50850   50853   50862       1
   50856   50850   50853   50865       2   50856   50850   50853   50868       1
   50850   50853   50865   50871       2   50850   50853   50865   50874       2
   50850   50853   50865   50877       2   50847   50832   50850   50853       2
   50847   50832   50850   50856       1   50847   50832   50850   50859       1
   50844   50832   50850   50853       2   50844   50832   50850   50856       1
   50844   50832   50850   50859       1   50838   50814   50832   50844       1
   50838   50814   50832   50847       1   50838   50814   50832   50850       2
   50835   50814   50832   50844       1   50835   50814   50832   50847       1
   50835   50814   50832   50850       2   50832   50850   50853   50862       2
   50832   50850   50853   50868       2   50829   50808   50823   50841       4
   50826   50802   50823   50841       4   50820   50793   50814   50832       2
   50820   50793   50814   50835       1   50820   50793   50814   50838       1
   50817   50793   50814   50832       2   50817   50793   50814   50835       1
   50817   50793   50814   50838       1   50814   50832   50850   50856       2
   50814   50832   50850   50859       2   50811   50790   50808   50823       4
   50811   50790   50808   50829       4   50808   50823   50802   50826       4
   50805   50787   50802   50823       4   50805   50787   50802   50826       4
   50802   50823   50808   50829       4   50799   50778   50793   50814       2
   50799   50778   50793   50817       1   50799   50778   50793   50820       1
   50796   50778   50793   50814       2   50796   50778   50793   50817       1
   50796   50778   50793   50820       1   50793   50814   50832   50844       2
   50793   50814   50832   50847       2   50790   50775   50787   50805       4
   50790   50808   50823   50841       4   50787   50775   50790   50811       4
   50787   50802   50823   50841       4   50784   50766   50778   50793       2
   50784   50766   50778   50796       1   50784   50766   50778   50799       1
   50781   50766   50778   50793       2   50781   50766   50778   50796       1
   50781   50766   50778   50799       1   50778   50793   50814   50835       2
   50778   50793   50814   50838       2   50775   50787   50802   50826       4
   50775   50790   50808   50829       4   50772   50748   50766   50778       2
   50772   50748   50766   50781       1   50772   50748   50766   50784       1
   50769   50748   50766   50778       2   50769   50748   50766   50781       1
   50769   50748   50766   50784       1   50766   50778   50793   50817       2
   50766   50778   50793   50820       2   50763   50739   50757   50775       4
   50760   50736   50757   50775       4   50757   50775   50787   50805       4
   50757   50775   50790   50811       4   50754   50730   50748   50766       2
   50754   50730   50748   50769       1   50754   50730   50748   50772       1
   50751   50730   50748   50766       2   50751   50730   50748   50769       1
   50751   50730   50748   50772       1   50748   50766   50778   50796       2
   50748   50766   50778   50799       2   50742   50724   50739   50757       4
   50742   50724   50739   50763       4   50739   50757   50736   50760       4
   50736   50757   50739   50763       4   50733   50718   50727   50745       4
   50730   50712   50727   50745       4   50730   50748   50766   50781       2
   50730   50748   50766   50784       2   50727   50712   50730   50751       7
   50727   50712   50730   50754       7   50721   50709   50724   50742       4
   50715   50700   50712   50727       4   50715   50700   50712   50730       4
   50712   50727   50718   50733       4   50712   50730   50748   50769       8
   50712   50730   50748   50772       8   50709   50721   50736   50760       4
   50709   50724   50739   50763       4   50706   50721   50736   50760       4
   50703   50691   50700   50715       4   50703   50718   50727   50745       4
   50700   50712   50727   50745       4   50700   50712   50730   50751       7
   50700   50712   50730   50754       7   50697   50709   50724   50742       4
   50694   50703   50718   50733       4   50691   50703   50718   50733       4
   50688   50691   50700   50715       4   51060   51045   51057   51063       1
   51060   51045   51057   51066       1   51060   51045   51057   51069       1
   51054   51045   51057   51063       1   51054   51045   51057   51066       1
   51054   51045   51057   51069       1   51051   51042   51045   51054       1
   51051   51042   51045   51057       2   51051   51042   51045   51060       1
   51048   51042   51045   51054       1   51048   51042   51045   51057       2
   51048   51042   51045   51060       1   51042   51045   51057   51063       2
   51042   51045   51057   51066       2   51042   51045   51057   51069       2
   51039   51024   51042   51045       2   51039   51024   51042   51048       1
   51039   51024   51042   51051       1   51036   51024   51042   51045       2
   51036   51024   51042   51048       1   51036   51024   51042   51051       1
   51030   51006   51024   51036       1   51030   51006   51024   51039       1
   51030   51006   51024   51042       2   51027   51006   51024   51036       1
   51027   51006   51024   51039       1   51027   51006   51024   51042       2
   51024   51042   51045   51054       2   51024   51042   51045   51060       2
   51021   51000   51015   51033       4   51018   50994   51015   51033       4
   51012   50985   51006   51024       2   51012   50985   51006   51027       1
   51012   50985   51006   51030       1   51009   50985   51006   51024       2
   51009   50985   51006   51027       1   51009   50985   51006   51030       1
   51006   51024   51042   51048       2   51006   51024   51042   51051       2
   51003   50982   51000   51015       4   51003   50982   51000   51021       4
   51000   51015   50994   51018       4   50997   50979   50994   51015       4
   50997   50979   50994   51018       4   50994   51015   51000   51021       4
   50991   50970   50985   51006       2   50991   50970   50985   51009       1
   50991   50970   50985   51012       1   50988   50970   50985   51006       2
   50988   50970   50985   51009       1   50988   50970   50985   51012       1
   50985   51006   51024   51036       2   50985   51006   51024   51039       2
   50982   50967   50979   50997       4   50982   51000   51015   51033       4
   50979   50967   50982   51003       4   50979   50994   51015   51033       4
   50976   50958   50970   50985       2   50976   50958   50970   50988       1
   50976   50958   50970   50991       1   50973   50958   50970   50985       2
   50973   50958   50970   50988       1   50973   50958   50970   50991       1
   50970   50985   51006   51027       2   50970   50985   51006   51030       2
   50967   50979   50994   51018       4   50967   50982   51000   51021       4
   50964   50940   50958   50970       2   50964   50940   50958   50973       1
   50964   50940   50958   50976       1   50961   50940   50958   50970       2
   50961   50940   50958   50973       1   50961   50940   50958   50976       1
   50958   50970   50985   51009       2   50958   50970   50985   51012       2
   50955   50931   50949   50967       4   50952   50928   50949   50967       4
   50949   50967   50979   50997       4   50949   50967   50982   51003       4
   50946   50922   50940   50958       2   50946   50922   50940   50961       1
   50946   50922   50940   50964       1   50943   50922   50940   50958       2
   50943   50922   50940   50961       1   50943   50922   50940   50964       1
   50940   50958   50970   50988       2   50940   50958   50970   50991       2
   50934   50916   50931   50949       4   50934   50916   50931   50955       4
   50931   50949   50928   50952       4   50928   50949   50931   50955       4
   50925   50910   50919   50937       4   50922   50904   50919   50937       4
   50922   50940   50958   50973       2   50922   50940   50958   50976       2
   50919   50904   50922   50943       7   50919   50904   50922   50946       7
   50913   50901   50916   50934       4   50907   50892   50904   50919       4
   50907   50892   50904   50922       4   50904   50919   50910   50925       4
   50904   50922   50940   50961       8   50904   50922   50940   50964       8
   50901   50913   50928   50952       4   50901   50916   50931   50955       4
   50898   50913   50928   50952       4   50895   50883   50892   50907       4
   50895   50910   50919   50937       4   50892   50904   50919   50937       4
   50892   50904   50922   50943       7   50892   50904   50922   50946       7
   50889   50901   50916   50934       4   50886   50895   50910   50925       4
   50883   50895   50910   50925       4   50880   50883   50892   50907       4
   51252   51237   51249   51255       1   51252   51237   51249   51258       1
   51252   51237   51249   51261       1   51246   51237   51249   51255       1
   51246   51237   51249   51258       1   51246   51237   51249   51261       1
   51243   51234   51237   51246       1   51243   51234   51237   51249       2
   51243   51234   51237   51252       1   51240   51234   51237   51246       1
   51240   51234   51237   51249       2   51240   51234   51237   51252       1
   51234   51237   51249   51255       2   51234   51237   51249   51258       2
   51234   51237   51249   51261       2   51231   51216   51234   51237       2
   51231   51216   51234   51240       1   51231   51216   51234   51243       1
   51228   51216   51234   51237       2   51228   51216   51234   51240       1
   51228   51216   51234   51243       1   51222   51198   51216   51228       1
   51222   51198   51216   51231       1   51222   51198   51216   51234       2
   51219   51198   51216   51228       1   51219   51198   51216   51231       1
   51219   51198   51216   51234       2   51216   51234   51237   51246       2
   51216   51234   51237   51252       2   51213   51192   51207   51225       4
   51210   51186   51207   51225       4   51204   51177   51198   51216       2
   51204   51177   51198   51219       1   51204   51177   51198   51222       1
   51201   51177   51198   51216       2   51201   51177   51198   51219       1
   51201   51177   51198   51222       1   51198   51216   51234   51240       2
   51198   51216   51234   51243       2   51195   51174   51192   51207       4
   51195   51174   51192   51213       4   51192   51207   51186   51210       4
   51189   51171   51186   51207       4   51189   51171   51186   51210       4
   51186   51207   51192   51213       4   51183   51162   51177   51198       2
   51183   51162   51177   51201       1   51183   51162   51177   51204       1
   51180   51162   51177   51198       2   51180   51162   51177   51201       1
   51180   51162   51177   51204       1   51177   51198   51216   51228       2
   51177   51198   51216   51231       2   51174   51159   51171   51189       4
   51174   51192   51207   51225       4   51171   51159   51174   51195       4
   51171   51186   51207   51225       4   51168   51150   51162   51177       2
   51168   51150   51162   51180       1   51168   51150   51162   51183       1
   51165   51150   51162   51177       2   51165   51150   51162   51180       1
   51165   51150   51162   51183       1   51162   51177   51198   51219       2
   51162   51177   51198   51222       2   51159   51171   51186   51210       4
   51159   51174   51192   51213       4   51156   51132   51150   51162       2
   51156   51132   51150   51165       1   51156   51132   51150   51168       1
   51153   51132   51150   51162       2   51153   51132   51150   51165       1
   51153   51132   51150   51168       1   51150   51162   51177   51201       2
   51150   51162   51177   51204       2   51147   51123   51141   51159       4
   51144   51120   51141   51159       4   51141   51159   51171   51189       4
   51141   51159   51174   51195       4   51138   51114   51132   51150       2
   51138   51114   51132   51153       1   51138   51114   51132   51156       1
   51135   51114   51132   51150       2   51135   51114   51132   51153       1
   51135   51114   51132   51156       1   51132   51150   51162   51180       2
   51132   51150   51162   51183       2   51126   51108   51123   51141       4
   51126   51108   51123   51147       4   51123   51141   51120   51144       4
   51120   51141   51123   51147       4   51117   51102   51111   51129       4
   51114   51096   51111   51129       4   51114   51132   51150   51165       2
   51114   51132   51150   51168       2   51111   51096   51114   51135       7
   51111   51096   51114   51138       7   51105   51093   51108   51126       4
   51099   51084   51096   51111       4   51099   51084   51096   51114       4
   51096   51111   51102   51117       4   51096   51114   51132   51153       8
   51096   51114   51132   51156       8   51093   51105   51120   51144       4
   51093   51108   51123   51147       4   51090   51105   51120   51144       4
   51087   51075   51084   51099       4   51087   51102   51111   51129       4
   51084   51096   51111   51129       4   51084   51096   51114   51135       7
   51084   51096   51114   51138       7   51081   51093   51108   51126       4
   51078   51087   51102   51117       4   51075   51087   51102   51117       4
   51072   51075   51084   51099       4   51444   51429   51441   51447       1
   51444   51429   51441   51450       1   51444   51429   51441   51453       1
   51438   51429   51441   51447       1   51438   51429   51441   51450       1
   51438   51429   51441   51453       1   51435   51426   51429   51438       1
   51435   51426   51429   51441       2   51435   51426   51429   51444       1
   51432   51426   51429   51438       1   51432   51426   51429   51441       2
   51432   51426   51429   51444       1   51426   51429   51441   51447       2
   51426   51429   51441   51450       2   51426   51429   51441   51453       2
   51423   51408   51426   51429       2   51423   51408   51426   51432       1
   51423   51408   51426   51435       1   51420   51408   51426   51429       2
   51420   51408   51426   51432       1   51420   51408   51426   51435       1
   51414   51390   51408   51420       1   51414   51390   51408   51423       1
   51414   51390   51408   51426       2   51411   51390   51408   51420       1
   51411   51390   51408   51423       1   51411   51390   51408   51426       2
   51408   51426   51429   51438       2   51408   51426   51429   51444       2
   51405   51384   51399   51417       4   51402   51378   51399   51417       4
   51396   51369   51390   51408       2   51396   51369   51390   51411       1
   51396   51369   51390   51414       1   51393   51369   51390   51408       2
   51393   51369   51390   51411       1   51393   51369   51390   51414       1
   51390   51408   51426   51432       2   51390   51408   51426   51435       2
   51387   51366   51384   51399       4   51387   51366   51384   51405       4
   51384   51399   51378   51402       4   51381   51363   51378   51399       4
   51381   51363   51378   51402       4   51378   51399   51384   51405       4
   51375   51354   51369   51390       2   51375   51354   51369   51393       1
   51375   51354   51369   51396       1   51372   51354   51369   51390       2
   51372   51354   51369   51393       1   51372   51354   51369   51396       1
   51369   51390   51408   51420       2   51369   51390   51408   51423       2
   51366   51351   51363   51381       4   51366   51384   51399   51417       4
   51363   51351   51366   51387       4   51363   51378   51399   51417       4
   51360   51342   51354   51369       2   51360   51342   51354   51372       1
   51360   51342   51354   51375       1   51357   51342   51354   51369       2
   51357   51342   51354   51372       1   51357   51342   51354   51375       1
   51354   51369   51390   51411       2   51354   51369   51390   51414       2
   51351   51363   51378   51402       4   51351   51366   51384   51405       4
   51348   51324   51342   51354       2   51348   51324   51342   51357       1
   51348   51324   51342   51360       1   51345   51324   51342   51354       2
   51345   51324   51342   51357       1   51345   51324   51342   51360       1
   51342   51354   51369   51393       2   51342   51354   51369   51396       2
   51339   51315   51333   51351       4   51336   51312   51333   51351       4
   51333   51351   51363   51381       4   51333   51351   51366   51387       4
   51330   51306   51324   51342       2   51330   51306   51324   51345       1
   51330   51306   51324   51348       1   51327   51306   51324   51342       2
   51327   51306   51324   51345       1   51327   51306   51324   51348       1
   51324   51342   51354   51372       2   51324   51342   51354   51375       2
   51318   51300   51315   51333       4   51318   51300   51315   51339       4
   51315   51333   51312   51336       4   51312   51333   51315   51339       4
   51309   51294   51303   51321       4   51306   51288   51303   51321       4
   51306   51324   51342   51357       2   51306   51324   51342   51360       2
   51303   51288   51306   51327       7   51303   51288   51306   51330       7
   51297   51285   51300   51318       4   51291   51276   51288   51303       4
   51291   51276   51288   51306       4   51288   51303   51294   51309       4
   51288   51306   51324   51345       8   51288   51306   51324   51348       8
   51285   51297   51312   51336       4   51285   51300   51315   51339       4
   51282   51297   51312   51336       4   51279   51267   51276   51291       4
   51279   51294   51303   51321       4   51276   51288   51303   51321       4
   51276   51288   51306   51327       7   51276   51288   51306   51330       7
   51273   51285   51300   51318       4   51270   51279   51294   51309       4
   51267   51279   51294   51309       4   51264   51267   51276   51291       4
   51636   51621   51633   51639       1   51636   51621   51633   51642       1
   51636   51621   51633   51645       1   51630   51621   51633   51639       1
   51630   51621   51633   51642       1   51630   51621   51633   51645       1
   51627   51618   51621   51630       1   51627   51618   51621   51633       2
   51627   51618   51621   51636       1   51624   51618   51621   51630       1
   51624   51618   51621   51633       2   51624   51618   51621   51636       1
   51618   51621   51633   51639       2   51618   51621   51633   51642       2
   51618   51621   51633   51645       2   51615   51600   51618   51621       2
   51615   51600   51618   51624       1   51615   51600   51618   51627       1
   51612   51600   51618   51621       2   51612   51600   51618   51624       1
   51612   51600   51618   51627       1   51606   51582   51600   51612       1
   51606   51582   51600   51615       1   51606   51582   51600   51618       2
   51603   51582   51600   51612       1   51603   51582   51600   51615       1
   51603   51582   51600   51618       2   51600   51618   51621   51630       2
   51600   51618   51621   51636       2   51597   51576   51591   51609       4
   51594   51570   51591   51609       4   51588   51561   51582   51600       2
   51588   51561   51582   51603       1   51588   51561   51582   51606       1
   51585   51561   51582   51600       2   51585   51561   51582   51603       1
   51585   51561   51582   51606       1   51582   51600   51618   51624       2
   51582   51600   51618   51627       2   51579   51558   51576   51591       4
   51579   51558   51576   51597       4   51576   51591   51570   51594       4
   51573   51555   51570   51591       4   51573   51555   51570   51594       4
   51570   51591   51576   51597       4   51567   51546   51561   51582       2
   51567   51546   51561   51585       1   51567   51546   51561   51588       1
   51564   51546   51561   51582       2   51564   51546   51561   51585       1
   51564   51546   51561   51588       1   51561   51582   51600   51612       2
   51561   51582   51600   51615       2   51558   51543   51555   51573       4
   51558   51576   51591   51609       4   51555   51543   51558   51579       4
   51555   51570   51591   51609       4   51552   51534   51546   51561       2
   51552   51534   51546   51564       1   51552   51534   51546   51567       1
   51549   51534   51546   51561       2   51549   51534   51546   51564       1
   51549   51534   51546   51567       1   51546   51561   51582   51603       2
   51546   51561   51582   51606       2   51543   51555   51570   51594       4
   51543   51558   51576   51597       4   51540   51516   51534   51546       2
   51540   51516   51534   51549       1   51540   51516   51534   51552       1
   51537   51516   51534   51546       2   51537   51516   51534   51549       1
   51537   51516   51534   51552       1   51534   51546   51561   51585       2
   51534   51546   51561   51588       2   51531   51507   51525   51543       4
   51528   51504   51525   51543       4   51525   51543   51555   51573       4
   51525   51543   51558   51579       4   51522   51498   51516   51534       2
   51522   51498   51516   51537       1   51522   51498   51516   51540       1
   51519   51498   51516   51534       2   51519   51498   51516   51537       1
   51519   51498   51516   51540       1   51516   51534   51546   51564       2
   51516   51534   51546   51567       2   51510   51492   51507   51525       4
   51510   51492   51507   51531       4   51507   51525   51504   51528       4
   51504   51525   51507   51531       4   51501   51486   51495   51513       4
   51498   51480   51495   51513       4   51498   51516   51534   51549       2
   51498   51516   51534   51552       2   51495   51480   51498   51519       7
   51495   51480   51498   51522       7   51489   51477   51492   51510       4
   51483   51468   51480   51495       4   51483   51468   51480   51498       4
   51480   51495   51486   51501       4   51480   51498   51516   51537       8
   51480   51498   51516   51540       8   51477   51489   51504   51528       4
   51477   51492   51507   51531       4   51474   51489   51504   51528       4
   51471   51459   51468   51483       4   51471   51486   51495   51513       4
   51468   51480   51495   51513       4   51468   51480   51498   51519       7
   51468   51480   51498   51522       7   51465   51477   51492   51510       4
   51462   51471   51486   51501       4   51459   51471   51486   51501       4
   51456   51459   51468   51483       4   51828   51813   51825   51831       1
   51828   51813   51825   51834       1   51828   51813   51825   51837       1
   51822   51813   51825   51831       1   51822   51813   51825   51834       1
   51822   51813   51825   51837       1   51819   51810   51813   51822       1
   51819   51810   51813   51825       2   51819   51810   51813   51828       1
   51816   51810   51813   51822       1   51816   51810   51813   51825       2
   51816   51810   51813   51828       1   51810   51813   51825   51831       2
   51810   51813   51825   51834       2   51810   51813   51825   51837       2
   51807   51792   51810   51813       2   51807   51792   51810   51816       1
   51807   51792   51810   51819       1   51804   51792   51810   51813       2
   51804   51792   51810   51816       1   51804   51792   51810   51819       1
   51798   51774   51792   51804       1   51798   51774   51792   51807       1
   51798   51774   51792   51810       2   51795   51774   51792   51804       1
   51795   51774   51792   51807       1   51795   51774   51792   51810       2
   51792   51810   51813   51822       2   51792   51810   51813   51828       2
   51789   51768   51783   51801       4   51786   51762   51783   51801       4
   51780   51753   51774   51792       2   51780   51753   51774   51795       1
   51780   51753   51774   51798       1   51777   51753   51774   51792       2
   51777   51753   51774   51795       1   51777   51753   51774   51798       1
   51774   51792   51810   51816       2   51774   51792   51810   51819       2
   51771   51750   51768   51783       4   51771   51750   51768   51789       4
   51768   51783   51762   51786       4   51765   51747   51762   51783       4
   51765   51747   51762   51786       4   51762   51783   51768   51789       4
   51759   51738   51753   51774       2   51759   51738   51753   51777       1
   51759   51738   51753   51780       1   51756   51738   51753   51774       2
   51756   51738   51753   51777       1   51756   51738   51753   51780       1
   51753   51774   51792   51804       2   51753   51774   51792   51807       2
   51750   51735   51747   51765       4   51750   51768   51783   51801       4
   51747   51735   51750   51771       4   51747   51762   51783   51801       4
   51744   51726   51738   51753       2   51744   51726   51738   51756       1
   51744   51726   51738   51759       1   51741   51726   51738   51753       2
   51741   51726   51738   51756       1   51741   51726   51738   51759       1
   51738   51753   51774   51795       2   51738   51753   51774   51798       2
   51735   51747   51762   51786       4   51735   51750   51768   51789       4
   51732   51708   51726   51738       2   51732   51708   51726   51741       1
   51732   51708   51726   51744       1   51729   51708   51726   51738       2
   51729   51708   51726   51741       1   51729   51708   51726   51744       1
   51726   51738   51753   51777       2   51726   51738   51753   51780       2
   51723   51699   51717   51735       4   51720   51696   51717   51735       4
   51717   51735   51747   51765       4   51717   51735   51750   51771       4
   51714   51690   51708   51726       2   51714   51690   51708   51729       1
   51714   51690   51708   51732       1   51711   51690   51708   51726       2
   51711   51690   51708   51729       1   51711   51690   51708   51732       1
   51708   51726   51738   51756       2   51708   51726   51738   51759       2
   51702   51684   51699   51717       4   51702   51684   51699   51723       4
   51699   51717   51696   51720       4   51696   51717   51699   51723       4
   51693   51678   51687   51705       4   51690   51672   51687   51705       4
   51690   51708   51726   51741       2   51690   51708   51726   51744       2
   51687   51672   51690   51711       7   51687   51672   51690   51714       7
   51681   51669   51684   51702       4   51675   51660   51672   51687       4
   51675   51660   51672   51690       4   51672   51687   51678   51693       4
   51672   51690   51708   51729       8   51672   51690   51708   51732       8
   51669   51681   51696   51720       4   51669   51684   51699   51723       4
   51666   51681   51696   51720       4   51663   51651   51660   51675       4
   51663   51678   51687   51705       4   51660   51672   51687   51705       4
   51660   51672   51690   51711       7   51660   51672   51690   51714       7
   51657   51669   51684   51702       4   51654   51663   51678   51693       4
   51651   51663   51678   51693       4   51648   51651   51660   51675       4
   52020   52005   52017   52023       1   52020   52005   52017   52026       1
   52020   52005   52017   52029       1   52014   52005   52017   52023       1
   52014   52005   52017   52026       1   52014   52005   52017   52029       1
   52011   52002   52005   52014       1   52011   52002   52005   52017       2
   52011   52002   52005   52020       1   52008   52002   52005   52014       1
   52008   52002   52005   52017       2   52008   52002   52005   52020       1
   52002   52005   52017   52023       2   52002   52005   52017   52026       2
   52002   52005   52017   52029       2   51999   51984   52002   52005       2
   51999   51984   52002   52008       1   51999   51984   52002   52011       1
   51996   51984   52002   52005       2   51996   51984   52002   52008       1
   51996   51984   52002   52011       1   51990   51966   51984   51996       1
   51990   51966   51984   51999       1   51990   51966   51984   52002       2
   51987   51966   51984   51996       1   51987   51966   51984   51999       1
   51987   51966   51984   52002       2   51984   52002   52005   52014       2
   51984   52002   52005   52020       2   51981   51960   51975   51993       4
   51978   51954   51975   51993       4   51972   51945   51966   51984       2
   51972   51945   51966   51987       1   51972   51945   51966   51990       1
   51969   51945   51966   51984       2   51969   51945   51966   51987       1
   51969   51945   51966   51990       1   51966   51984   52002   52008       2
   51966   51984   52002   52011       2   51963   51942   51960   51975       4
   51963   51942   51960   51981       4   51960   51975   51954   51978       4
   51957   51939   51954   51975       4   51957   51939   51954   51978       4
   51954   51975   51960   51981       4   51951   51930   51945   51966       2
   51951   51930   51945   51969       1   51951   51930   51945   51972       1
   51948   51930   51945   51966       2   51948   51930   51945   51969       1
   51948   51930   51945   51972       1   51945   51966   51984   51996       2
   51945   51966   51984   51999       2   51942   51927   51939   51957       4
   51942   51960   51975   51993       4   51939   51927   51942   51963       4
   51939   51954   51975   51993       4   51936   51918   51930   51945       2
   51936   51918   51930   51948       1   51936   51918   51930   51951       1
   51933   51918   51930   51945       2   51933   51918   51930   51948       1
   51933   51918   51930   51951       1   51930   51945   51966   51987       2
   51930   51945   51966   51990       2   51927   51939   51954   51978       4
   51927   51942   51960   51981       4   51924   51900   51918   51930       2
   51924   51900   51918   51933       1   51924   51900   51918   51936       1
   51921   51900   51918   51930       2   51921   51900   51918   51933       1
   51921   51900   51918   51936       1   51918   51930   51945   51969       2
   51918   51930   51945   51972       2   51915   51891   51909   51927       4
   51912   51888   51909   51927       4   51909   51927   51939   51957       4
   51909   51927   51942   51963       4   51906   51882   51900   51918       2
   51906   51882   51900   51921       1   51906   51882   51900   51924       1
   51903   51882   51900   51918       2   51903   51882   51900   51921       1
   51903   51882   51900   51924       1   51900   51918   51930   51948       2
   51900   51918   51930   51951       2   51894   51876   51891   51909       4
   51894   51876   51891   51915       4   51891   51909   51888   51912       4
   51888   51909   51891   51915       4   51885   51870   51879   51897       4
   51882   51864   51879   51897       4   51882   51900   51918   51933       2
   51882   51900   51918   51936       2   51879   51864   51882   51903       7
   51879   51864   51882   51906       7   51873   51861   51876   51894       4
   51867   51852   51864   51879       4   51867   51852   51864   51882       4
   51864   51879   51870   51885       4   51864   51882   51900   51921       8
   51864   51882   51900   51924       8   51861   51873   51888   51912       4
   51861   51876   51891   51915       4   51858   51873   51888   51912       4
   51855   51843   51852   51867       4   51855   51870   51879   51897       4
   51852   51864   51879   51897       4   51852   51864   51882   51903       7
   51852   51864   51882   51906       7   51849   51861   51876   51894       4
   51846   51855   51870   51885       4   51843   51855   51870   51885       4
   51840   51843   51852   51867       4   52212   52197   52209   52215       1
   52212   52197   52209   52218       1   52212   52197   52209   52221       1
   52206   52197   52209   52215       1   52206   52197   52209   52218       1
   52206   52197   52209   52221       1   52203   52194   52197   52206       1
   52203   52194   52197   52209       2   52203   52194   52197   52212       1
   52200   52194   52197   52206       1   52200   52194   52197   52209       2
   52200   52194   52197   52212       1   52194   52197   52209   52215       2
   52194   52197   52209   52218       2   52194   52197   52209   52221       2
   52191   52176   52194   52197       2   52191   52176   52194   52200       1
   52191   52176   52194   52203       1   52188   52176   52194   52197       2
   52188   52176   52194   52200       1   52188   52176   52194   52203       1
   52182   52158   52176   52188       1   52182   52158   52176   52191       1
   52182   52158   52176   52194       2   52179   52158   52176   52188       1
   52179   52158   52176   52191       1   52179   52158   52176   52194       2
   52176   52194   52197   52206       2   52176   52194   52197   52212       2
   52173   52152   52167   52185       4   52170   52146   52167   52185       4
   52164   52137   52158   52176       2   52164   52137   52158   52179       1
   52164   52137   52158   52182       1   52161   52137   52158   52176       2
   52161   52137   52158   52179       1   52161   52137   52158   52182       1
   52158   52176   52194   52200       2   52158   52176   52194   52203       2
   52155   52134   52152   52167       4   52155   52134   52152   52173       4
   52152   52167   52146   52170       4   52149   52131   52146   52167       4
   52149   52131   52146   52170       4   52146   52167   52152   52173       4
   52143   52122   52137   52158       2   52143   52122   52137   52161       1
   52143   52122   52137   52164       1   52140   52122   52137   52158       2
   52140   52122   52137   52161       1   52140   52122   52137   52164       1
   52137   52158   52176   52188       2   52137   52158   52176   52191       2
   52134   52119   52131   52149       4   52134   52152   52167   52185       4
   52131   52119   52134   52155       4   52131   52146   52167   52185       4
   52128   52110   52122   52137       2   52128   52110   52122   52140       1
   52128   52110   52122   52143       1   52125   52110   52122   52137       2
   52125   52110   52122   52140       1   52125   52110   52122   52143       1
   52122   52137   52158   52179       2   52122   52137   52158   52182       2
   52119   52131   52146   52170       4   52119   52134   52152   52173       4
   52116   52092   52110   52122       2   52116   52092   52110   52125       1
   52116   52092   52110   52128       1   52113   52092   52110   52122       2
   52113   52092   52110   52125       1   52113   52092   52110   52128       1
   52110   52122   52137   52161       2   52110   52122   52137   52164       2
   52107   52083   52101   52119       4   52104   52080   52101   52119       4
   52101   52119   52131   52149       4   52101   52119   52134   52155       4
   52098   52074   52092   52110       2   52098   52074   52092   52113       1
   52098   52074   52092   52116       1   52095   52074   52092   52110       2
   52095   52074   52092   52113       1   52095   52074   52092   52116       1
   52092   52110   52122   52140       2   52092   52110   52122   52143       2
   52086   52068   52083   52101       4   52086   52068   52083   52107       4
   52083   52101   52080   52104       4   52080   52101   52083   52107       4
   52077   52062   52071   52089       4   52074   52056   52071   52089       4
   52074   52092   52110   52125       2   52074   52092   52110   52128       2
   52071   52056   52074   52095       7   52071   52056   52074   52098       7
   52065   52053   52068   52086       4   52059   52044   52056   52071       4
   52059   52044   52056   52074       4   52056   52071   52062   52077       4
   52056   52074   52092   52113       8   52056   52074   52092   52116       8
   52053   52065   52080   52104       4   52053   52068   52083   52107       4
   52050   52065   52080   52104       4   52047   52035   52044   52059       4
   52047   52062   52071   52089       4   52044   52056   52071   52089       4
   52044   52056   52074   52095       7   52044   52056   52074   52098       7
   52041   52053   52068   52086       4   52038   52047   52062   52077       4
   52035   52047   52062   52077       4   52032   52035   52044   52059       4
   52404   52389   52401   52407       1   52404   52389   52401   52410       1
   52404   52389   52401   52413       1   52398   52389   52401   52407       1
   52398   52389   52401   52410       1   52398   52389   52401   52413       1
   52395   52386   52389   52398       1   52395   52386   52389   52401       2
   52395   52386   52389   52404       1   52392   52386   52389   52398       1
   52392   52386   52389   52401       2   52392   52386   52389   52404       1
   52386   52389   52401   52407       2   52386   52389   52401   52410       2
   52386   52389   52401   52413       2   52383   52368   52386   52389       2
   52383   52368   52386   52392       1   52383   52368   52386   52395       1
   52380   52368   52386   52389       2   52380   52368   52386   52392       1
   52380   52368   52386   52395       1   52374   52350   52368   52380       1
   52374   52350   52368   52383       1   52374   52350   52368   52386       2
   52371   52350   52368   52380       1   52371   52350   52368   52383       1
   52371   52350   52368   52386       2   52368   52386   52389   52398       2
   52368   52386   52389   52404       2   52365   52344   52359   52377       4
   52362   52338   52359   52377       4   52356   52329   52350   52368       2
   52356   52329   52350   52371       1   52356   52329   52350   52374       1
   52353   52329   52350   52368       2   52353   52329   52350   52371       1
   52353   52329   52350   52374       1   52350   52368   52386   52392       2
   52350   52368   52386   52395       2   52347   52326   52344   52359       4
   52347   52326   52344   52365       4   52344   52359   52338   52362       4
   52341   52323   52338   52359       4   52341   52323   52338   52362       4
   52338   52359   52344   52365       4   52335   52314   52329   52350       2
   52335   52314   52329   52353       1   52335   52314   52329   52356       1
   52332   52314   52329   52350       2   52332   52314   52329   52353       1
   52332   52314   52329   52356       1   52329   52350   52368   52380       2
   52329   52350   52368   52383       2   52326   52311   52323   52341       4
   52326   52344   52359   52377       4   52323   52311   52326   52347       4
   52323   52338   52359   52377       4   52320   52302   52314   52329       2
   52320   52302   52314   52332       1   52320   52302   52314   52335       1
   52317   52302   52314   52329       2   52317   52302   52314   52332       1
   52317   52302   52314   52335       1   52314   52329   52350   52371       2
   52314   52329   52350   52374       2   52311   52323   52338   52362       4
   52311   52326   52344   52365       4   52308   52284   52302   52314       2
   52308   52284   52302   52317       1   52308   52284   52302   52320       1
   52305   52284   52302   52314       2   52305   52284   52302   52317       1
   52305   52284   52302   52320       1   52302   52314   52329   52353       2
   52302   52314   52329   52356       2   52299   52275   52293   52311       4
   52296   52272   52293   52311       4   52293   52311   52323   52341       4
   52293   52311   52326   52347       4   52290   52266   52284   52302       2
   52290   52266   52284   52305       1   52290   52266   52284   52308       1
   52287   52266   52284   52302       2   52287   52266   52284   52305       1
   52287   52266   52284   52308       1   52284   52302   52314   52332       2
   52284   52302   52314   52335       2   52278   52260   52275   52293       4
   52278   52260   52275   52299       4   52275   52293   52272   52296       4
   52272   52293   52275   52299       4   52269   52254   52263   52281       4
   52266   52248   52263   52281       4   52266   52284   52302   52317       2
   52266   52284   52302   52320       2   52263   52248   52266   52287       7
   52263   52248   52266   52290       7   52257   52245   52260   52278       4
   52251   52236   52248   52263       4   52251   52236   52248   52266       4
   52248   52263   52254   52269       4   52248   52266   52284   52305       8
   52248   52266   52284   52308       8   52245   52257   52272   52296       4
   52245   52260   52275   52299       4   52242   52257   52272   52296       4
   52239   52227   52236   52251       4   52239   52254   52263   52281       4
   52236   52248   52263   52281       4   52236   52248   52266   52287       7
   52236   52248   52266   52290       7   52233   52245   52260   52278       4
   52230   52239   52254   52269       4   52227   52239   52254   52269       4
   52224   52227   52236   52251       4   52596   52581   52593   52599       1
   52596   52581   52593   52602       1   52596   52581   52593   52605       1
   52590   52581   52593   52599       1   52590   52581   52593   52602       1
   52590   52581   52593   52605       1   52587   52578   52581   52590       1
   52587   52578   52581   52593       2   52587   52578   52581   52596       1
   52584   52578   52581   52590       1   52584   52578   52581   52593       2
   52584   52578   52581   52596       1   52578   52581   52593   52599       2
   52578   52581   52593   52602       2   52578   52581   52593   52605       2
   52575   52560   52578   52581       2   52575   52560   52578   52584       1
   52575   52560   52578   52587       1   52572   52560   52578   52581       2
   52572   52560   52578   52584       1   52572   52560   52578   52587       1
   52566   52542   52560   52572       1   52566   52542   52560   52575       1
   52566   52542   52560   52578       2   52563   52542   52560   52572       1
   52563   52542   52560   52575       1   52563   52542   52560   52578       2
   52560   52578   52581   52590       2   52560   52578   52581   52596       2
   52557   52536   52551   52569       4   52554   52530   52551   52569       4
   52548   52521   52542   52560       2   52548   52521   52542   52563       1
   52548   52521   52542   52566       1   52545   52521   52542   52560       2
   52545   52521   52542   52563       1   52545   52521   52542   52566       1
   52542   52560   52578   52584       2   52542   52560   52578   52587       2
   52539   52518   52536   52551       4   52539   52518   52536   52557       4
   52536   52551   52530   52554       4   52533   52515   52530   52551       4
   52533   52515   52530   52554       4   52530   52551   52536   52557       4
   52527   52506   52521   52542       2   52527   52506   52521   52545       1
   52527   52506   52521   52548       1   52524   52506   52521   52542       2
   52524   52506   52521   52545       1   52524   52506   52521   52548       1
   52521   52542   52560   52572       2   52521   52542   52560   52575       2
   52518   52503   52515   52533       4   52518   52536   52551   52569       4
   52515   52503   52518   52539       4   52515   52530   52551   52569       4
   52512   52494   52506   52521       2   52512   52494   52506   52524       1
   52512   52494   52506   52527       1   52509   52494   52506   52521       2
   52509   52494   52506   52524       1   52509   52494   52506   52527       1
   52506   52521   52542   52563       2   52506   52521   52542   52566       2
   52503   52515   52530   52554       4   52503   52518   52536   52557       4
   52500   52476   52494   52506       2   52500   52476   52494   52509       1
   52500   52476   52494   52512       1   52497   52476   52494   52506       2
   52497   52476   52494   52509       1   52497   52476   52494   52512       1
   52494   52506   52521   52545       2   52494   52506   52521   52548       2
   52491   52467   52485   52503       4   52488   52464   52485   52503       4
   52485   52503   52515   52533       4   52485   52503   52518   52539       4
   52482   52458   52476   52494       2   52482   52458   52476   52497       1
   52482   52458   52476   52500       1   52479   52458   52476   52494       2
   52479   52458   52476   52497       1   52479   52458   52476   52500       1
   52476   52494   52506   52524       2   52476   52494   52506   52527       2
   52470   52452   52467   52485       4   52470   52452   52467   52491       4
   52467   52485   52464   52488       4   52464   52485   52467   52491       4
   52461   52446   52455   52473       4   52458   52440   52455   52473       4
   52458   52476   52494   52509       2   52458   52476   52494   52512       2
   52455   52440   52458   52479       7   52455   52440   52458   52482       7
   52449   52437   52452   52470       4   52443   52428   52440   52455       4
   52443   52428   52440   52458       4   52440   52455   52446   52461       4
   52440   52458   52476   52497       8   52440   52458   52476   52500       8
   52437   52449   52464   52488       4   52437   52452   52467   52491       4
   52434   52449   52464   52488       4   52431   52419   52428   52443       4
   52431   52446   52455   52473       4   52428   52440   52455   52473       4
   52428   52440   52458   52479       7   52428   52440   52458   52482       7
   52425   52437   52452   52470       4   52422   52431   52446   52461       4
   52419   52431   52446   52461       4   52416   52419   52428   52443       4
   52788   52773   52785   52791       1   52788   52773   52785   52794       1
   52788   52773   52785   52797       1   52782   52773   52785   52791       1
   52782   52773   52785   52794       1   52782   52773   52785   52797       1
   52779   52770   52773   52782       1   52779   52770   52773   52785       2
   52779   52770   52773   52788       1   52776   52770   52773   52782       1
   52776   52770   52773   52785       2   52776   52770   52773   52788       1
   52770   52773   52785   52791       2   52770   52773   52785   52794       2
   52770   52773   52785   52797       2   52767   52752   52770   52773       2
   52767   52752   52770   52776       1   52767   52752   52770   52779       1
   52764   52752   52770   52773       2   52764   52752   52770   52776       1
   52764   52752   52770   52779       1   52758   52734   52752   52764       1
   52758   52734   52752   52767       1   52758   52734   52752   52770       2
   52755   52734   52752   52764       1   52755   52734   52752   52767       1
   52755   52734   52752   52770       2   52752   52770   52773   52782       2
   52752   52770   52773   52788       2   52749   52728   52743   52761       4
   52746   52722   52743   52761       4   52740   52713   52734   52752       2
   52740   52713   52734   52755       1   52740   52713   52734   52758       1
   52737   52713   52734   52752       2   52737   52713   52734   52755       1
   52737   52713   52734   52758       1   52734   52752   52770   52776       2
   52734   52752   52770   52779       2   52731   52710   52728   52743       4
   52731   52710   52728   52749       4   52728   52743   52722   52746       4
   52725   52707   52722   52743       4   52725   52707   52722   52746       4
   52722   52743   52728   52749       4   52719   52698   52713   52734       2
   52719   52698   52713   52737       1   52719   52698   52713   52740       1
   52716   52698   52713   52734       2   52716   52698   52713   52737       1
   52716   52698   52713   52740       1   52713   52734   52752   52764       2
   52713   52734   52752   52767       2   52710   52695   52707   52725       4
   52710   52728   52743   52761       4   52707   52695   52710   52731       4
   52707   52722   52743   52761       4   52704   52686   52698   52713       2
   52704   52686   52698   52716       1   52704   52686   52698   52719       1
   52701   52686   52698   52713       2   52701   52686   52698   52716       1
   52701   52686   52698   52719       1   52698   52713   52734   52755       2
   52698   52713   52734   52758       2   52695   52707   52722   52746       4
   52695   52710   52728   52749       4   52692   52668   52686   52698       2
   52692   52668   52686   52701       1   52692   52668   52686   52704       1
   52689   52668   52686   52698       2   52689   52668   52686   52701       1
   52689   52668   52686   52704       1   52686   52698   52713   52737       2
   52686   52698   52713   52740       2   52683   52659   52677   52695       4
   52680   52656   52677   52695       4   52677   52695   52707   52725       4
   52677   52695   52710   52731       4   52674   52650   52668   52686       2
   52674   52650   52668   52689       1   52674   52650   52668   52692       1
   52671   52650   52668   52686       2   52671   52650   52668   52689       1
   52671   52650   52668   52692       1   52668   52686   52698   52716       2
   52668   52686   52698   52719       2   52662   52644   52659   52677       4
   52662   52644   52659   52683       4   52659   52677   52656   52680       4
   52656   52677   52659   52683       4   52653   52638   52647   52665       4
   52650   52632   52647   52665       4   52650   52668   52686   52701       2
   52650   52668   52686   52704       2   52647   52632   52650   52671       7
   52647   52632   52650   52674       7   52641   52629   52644   52662       4
   52635   52620   52632   52647       4   52635   52620   52632   52650       4
   52632   52647   52638   52653       4   52632   52650   52668   52689       8
   52632   52650   52668   52692       8   52629   52641   52656   52680       4
   52629   52644   52659   52683       4   52626   52641   52656   52680       4
   52623   52611   52620   52635       4   52623   52638   52647   52665       4
   52620   52632   52647   52665       4   52620   52632   52650   52671       7
   52620   52632   52650   52674       7   52617   52629   52644   52662       4
   52614   52623   52638   52653       4   52611   52623   52638   52653       4
   52608   52611   52620   52635       4   52980   52965   52977   52983       1
   52980   52965   52977   52986       1   52980   52965   52977   52989       1
   52974   52965   52977   52983       1   52974   52965   52977   52986       1
   52974   52965   52977   52989       1   52971   52962   52965   52974       1
   52971   52962   52965   52977       2   52971   52962   52965   52980       1
   52968   52962   52965   52974       1   52968   52962   52965   52977       2
   52968   52962   52965   52980       1   52962   52965   52977   52983       2
   52962   52965   52977   52986       2   52962   52965   52977   52989       2
   52959   52944   52962   52965       2   52959   52944   52962   52968       1
   52959   52944   52962   52971       1   52956   52944   52962   52965       2
   52956   52944   52962   52968       1   52956   52944   52962   52971       1
   52950   52926   52944   52956       1   52950   52926   52944   52959       1
   52950   52926   52944   52962       2   52947   52926   52944   52956       1
   52947   52926   52944   52959       1   52947   52926   52944   52962       2
   52944   52962   52965   52974       2   52944   52962   52965   52980       2
   52941   52920   52935   52953       4   52938   52914   52935   52953       4
   52932   52905   52926   52944       2   52932   52905   52926   52947       1
   52932   52905   52926   52950       1   52929   52905   52926   52944       2
   52929   52905   52926   52947       1   52929   52905   52926   52950       1
   52926   52944   52962   52968       2   52926   52944   52962   52971       2
   52923   52902   52920   52935       4   52923   52902   52920   52941       4
   52920   52935   52914   52938       4   52917   52899   52914   52935       4
   52917   52899   52914   52938       4   52914   52935   52920   52941       4
   52911   52890   52905   52926       2   52911   52890   52905   52929       1
   52911   52890   52905   52932       1   52908   52890   52905   52926       2
   52908   52890   52905   52929       1   52908   52890   52905   52932       1
   52905   52926   52944   52956       2   52905   52926   52944   52959       2
   52902   52887   52899   52917       4   52902   52920   52935   52953       4
   52899   52887   52902   52923       4   52899   52914   52935   52953       4
   52896   52878   52890   52905       2   52896   52878   52890   52908       1
   52896   52878   52890   52911       1   52893   52878   52890   52905       2
   52893   52878   52890   52908       1   52893   52878   52890   52911       1
   52890   52905   52926   52947       2   52890   52905   52926   52950       2
   52887   52899   52914   52938       4   52887   52902   52920   52941       4
   52884   52860   52878   52890       2   52884   52860   52878   52893       1
   52884   52860   52878   52896       1   52881   52860   52878   52890       2
   52881   52860   52878   52893       1   52881   52860   52878   52896       1
   52878   52890   52905   52929       2   52878   52890   52905   52932       2
   52875   52851   52869   52887       4   52872   52848   52869   52887       4
   52869   52887   52899   52917       4   52869   52887   52902   52923       4
   52866   52842   52860   52878       2   52866   52842   52860   52881       1
   52866   52842   52860   52884       1   52863   52842   52860   52878       2
   52863   52842   52860   52881       1   52863   52842   52860   52884       1
   52860   52878   52890   52908       2   52860   52878   52890   52911       2
   52854   52836   52851   52869       4   52854   52836   52851   52875       4
   52851   52869   52848   52872       4   52848   52869   52851   52875       4
   52845   52830   52839   52857       4   52842   52824   52839   52857       4
   52842   52860   52878   52893       2   52842   52860   52878   52896       2
   52839   52824   52842   52863       7   52839   52824   52842   52866       7
   52833   52821   52836   52854       4   52827   52812   52824   52839       4
   52827   52812   52824   52842       4   52824   52839   52830   52845       4
   52824   52842   52860   52881       8   52824   52842   52860   52884       8
   52821   52833   52848   52872       4   52821   52836   52851   52875       4
   52818   52833   52848   52872       4   52815   52803   52812   52827       4
   52815   52830   52839   52857       4   52812   52824   52839   52857       4
   52812   52824   52842   52863       7   52812   52824   52842   52866       7
   52809   52821   52836   52854       4   52806   52815   52830   52845       4
   52803   52815   52830   52845       4   52800   52803   52812   52827       4
   53172   53157   53169   53175       1   53172   53157   53169   53178       1
   53172   53157   53169   53181       1   53166   53157   53169   53175       1
   53166   53157   53169   53178       1   53166   53157   53169   53181       1
   53163   53154   53157   53166       1   53163   53154   53157   53169       2
   53163   53154   53157   53172       1   53160   53154   53157   53166       1
   53160   53154   53157   53169       2   53160   53154   53157   53172       1
   53154   53157   53169   53175       2   53154   53157   53169   53178       2
   53154   53157   53169   53181       2   53151   53136   53154   53157       2
   53151   53136   53154   53160       1   53151   53136   53154   53163       1
   53148   53136   53154   53157       2   53148   53136   53154   53160       1
   53148   53136   53154   53163       1   53142   53118   53136   53148       1
   53142   53118   53136   53151       1   53142   53118   53136   53154       2
   53139   53118   53136   53148       1   53139   53118   53136   53151       1
   53139   53118   53136   53154       2   53136   53154   53157   53166       2
   53136   53154   53157   53172       2   53133   53112   53127   53145       4
   53130   53106   53127   53145       4   53124   53097   53118   53136       2
   53124   53097   53118   53139       1   53124   53097   53118   53142       1
   53121   53097   53118   53136       2   53121   53097   53118   53139       1
   53121   53097   53118   53142       1   53118   53136   53154   53160       2
   53118   53136   53154   53163       2   53115   53094   53112   53127       4
   53115   53094   53112   53133       4   53112   53127   53106   53130       4
   53109   53091   53106   53127       4   53109   53091   53106   53130       4
   53106   53127   53112   53133       4   53103   53082   53097   53118       2
   53103   53082   53097   53121       1   53103   53082   53097   53124       1
   53100   53082   53097   53118       2   53100   53082   53097   53121       1
   53100   53082   53097   53124       1   53097   53118   53136   53148       2
   53097   53118   53136   53151       2   53094   53079   53091   53109       4
   53094   53112   53127   53145       4   53091   53079   53094   53115       4
   53091   53106   53127   53145       4   53088   53070   53082   53097       2
   53088   53070   53082   53100       1   53088   53070   53082   53103       1
   53085   53070   53082   53097       2   53085   53070   53082   53100       1
   53085   53070   53082   53103       1   53082   53097   53118   53139       2
   53082   53097   53118   53142       2   53079   53091   53106   53130       4
   53079   53094   53112   53133       4   53076   53052   53070   53082       2
   53076   53052   53070   53085       1   53076   53052   53070   53088       1
   53073   53052   53070   53082       2   53073   53052   53070   53085       1
   53073   53052   53070   53088       1   53070   53082   53097   53121       2
   53070   53082   53097   53124       2   53067   53043   53061   53079       4
   53064   53040   53061   53079       4   53061   53079   53091   53109       4
   53061   53079   53094   53115       4   53058   53034   53052   53070       2
   53058   53034   53052   53073       1   53058   53034   53052   53076       1
   53055   53034   53052   53070       2   53055   53034   53052   53073       1
   53055   53034   53052   53076       1   53052   53070   53082   53100       2
   53052   53070   53082   53103       2   53046   53028   53043   53061       4
   53046   53028   53043   53067       4   53043   53061   53040   53064       4
   53040   53061   53043   53067       4   53037   53022   53031   53049       4
   53034   53016   53031   53049       4   53034   53052   53070   53085       2
   53034   53052   53070   53088       2   53031   53016   53034   53055       7
   53031   53016   53034   53058       7   53025   53013   53028   53046       4
   53019   53004   53016   53031       4   53019   53004   53016   53034       4
   53016   53031   53022   53037       4   53016   53034   53052   53073       8
   53016   53034   53052   53076       8   53013   53025   53040   53064       4
   53013   53028   53043   53067       4   53010   53025   53040   53064       4
   53007   52995   53004   53019       4   53007   53022   53031   53049       4
   53004   53016   53031   53049       4   53004   53016   53034   53055       7
   53004   53016   53034   53058       7   53001   53013   53028   53046       4
   52998   53007   53022   53037       4   52995   53007   53022   53037       4
   52992   52995   53004   53019       4   53364   53349   53361   53367       1
   53364   53349   53361   53370       1   53364   53349   53361   53373       1
   53358   53349   53361   53367       1   53358   53349   53361   53370       1
   53358   53349   53361   53373       1   53355   53346   53349   53358       1
   53355   53346   53349   53361       2   53355   53346   53349   53364       1
   53352   53346   53349   53358       1   53352   53346   53349   53361       2
   53352   53346   53349   53364       1   53346   53349   53361   53367       2
   53346   53349   53361   53370       2   53346   53349   53361   53373       2
   53343   53328   53346   53349       2   53343   53328   53346   53352       1
   53343   53328   53346   53355       1   53340   53328   53346   53349       2
   53340   53328   53346   53352       1   53340   53328   53346   53355       1
   53334   53310   53328   53340       1   53334   53310   53328   53343       1
   53334   53310   53328   53346       2   53331   53310   53328   53340       1
   53331   53310   53328   53343       1   53331   53310   53328   53346       2
   53328   53346   53349   53358       2   53328   53346   53349   53364       2
   53325   53304   53319   53337       4   53322   53298   53319   53337       4
   53316   53289   53310   53328       2   53316   53289   53310   53331       1
   53316   53289   53310   53334       1   53313   53289   53310   53328       2
   53313   53289   53310   53331       1   53313   53289   53310   53334       1
   53310   53328   53346   53352       2   53310   53328   53346   53355       2
   53307   53286   53304   53319       4   53307   53286   53304   53325       4
   53304   53319   53298   53322       4   53301   53283   53298   53319       4
   53301   53283   53298   53322       4   53298   53319   53304   53325       4
   53295   53274   53289   53310       2   53295   53274   53289   53313       1
   53295   53274   53289   53316       1   53292   53274   53289   53310       2
   53292   53274   53289   53313       1   53292   53274   53289   53316       1
   53289   53310   53328   53340       2   53289   53310   53328   53343       2
   53286   53271   53283   53301       4   53286   53304   53319   53337       4
   53283   53271   53286   53307       4   53283   53298   53319   53337       4
   53280   53262   53274   53289       2   53280   53262   53274   53292       1
   53280   53262   53274   53295       1   53277   53262   53274   53289       2
   53277   53262   53274   53292       1   53277   53262   53274   53295       1
   53274   53289   53310   53331       2   53274   53289   53310   53334       2
   53271   53283   53298   53322       4   53271   53286   53304   53325       4
   53268   53244   53262   53274       2   53268   53244   53262   53277       1
   53268   53244   53262   53280       1   53265   53244   53262   53274       2
   53265   53244   53262   53277       1   53265   53244   53262   53280       1
   53262   53274   53289   53313       2   53262   53274   53289   53316       2
   53259   53235   53253   53271       4   53256   53232   53253   53271       4
   53253   53271   53283   53301       4   53253   53271   53286   53307       4
   53250   53226   53244   53262       2   53250   53226   53244   53265       1
   53250   53226   53244   53268       1   53247   53226   53244   53262       2
   53247   53226   53244   53265       1   53247   53226   53244   53268       1
   53244   53262   53274   53292       2   53244   53262   53274   53295       2
   53238   53220   53235   53253       4   53238   53220   53235   53259       4
   53235   53253   53232   53256       4   53232   53253   53235   53259       4
   53229   53214   53223   53241       4   53226   53208   53223   53241       4
   53226   53244   53262   53277       2   53226   53244   53262   53280       2
   53223   53208   53226   53247       7   53223   53208   53226   53250       7
   53217   53205   53220   53238       4   53211   53196   53208   53223       4
   53211   53196   53208   53226       4   53208   53223   53214   53229       4
   53208   53226   53244   53265       8   53208   53226   53244   53268       8
   53205   53217   53232   53256       4   53205   53220   53235   53259       4
   53202   53217   53232   53256       4   53199   53187   53196   53211       4
   53199   53214   53223   53241       4   53196   53208   53223   53241       4
   53196   53208   53226   53247       7   53196   53208   53226   53250       7
   53193   53205   53220   53238       4   53190   53199   53214   53229       4
   53187   53199   53214   53229       4   53184   53187   53196   53211       4
   53556   53541   53553   53559       1   53556   53541   53553   53562       1
   53556   53541   53553   53565       1   53550   53541   53553   53559       1
   53550   53541   53553   53562       1   53550   53541   53553   53565       1
   53547   53538   53541   53550       1   53547   53538   53541   53553       2
   53547   53538   53541   53556       1   53544   53538   53541   53550       1
   53544   53538   53541   53553       2   53544   53538   53541   53556       1
   53538   53541   53553   53559       2   53538   53541   53553   53562       2
   53538   53541   53553   53565       2   53535   53520   53538   53541       2
   53535   53520   53538   53544       1   53535   53520   53538   53547       1
   53532   53520   53538   53541       2   53532   53520   53538   53544       1
   53532   53520   53538   53547       1   53526   53502   53520   53532       1
   53526   53502   53520   53535       1   53526   53502   53520   53538       2
   53523   53502   53520   53532       1   53523   53502   53520   53535       1
   53523   53502   53520   53538       2   53520   53538   53541   53550       2
   53520   53538   53541   53556       2   53517   53496   53511   53529       4
   53514   53490   53511   53529       4   53508   53481   53502   53520       2
   53508   53481   53502   53523       1   53508   53481   53502   53526       1
   53505   53481   53502   53520       2   53505   53481   53502   53523       1
   53505   53481   53502   53526       1   53502   53520   53538   53544       2
   53502   53520   53538   53547       2   53499   53478   53496   53511       4
   53499   53478   53496   53517       4   53496   53511   53490   53514       4
   53493   53475   53490   53511       4   53493   53475   53490   53514       4
   53490   53511   53496   53517       4   53487   53466   53481   53502       2
   53487   53466   53481   53505       1   53487   53466   53481   53508       1
   53484   53466   53481   53502       2   53484   53466   53481   53505       1
   53484   53466   53481   53508       1   53481   53502   53520   53532       2
   53481   53502   53520   53535       2   53478   53463   53475   53493       4
   53478   53496   53511   53529       4   53475   53463   53478   53499       4
   53475   53490   53511   53529       4   53472   53454   53466   53481       2
   53472   53454   53466   53484       1   53472   53454   53466   53487       1
   53469   53454   53466   53481       2   53469   53454   53466   53484       1
   53469   53454   53466   53487       1   53466   53481   53502   53523       2
   53466   53481   53502   53526       2   53463   53475   53490   53514       4
   53463   53478   53496   53517       4   53460   53436   53454   53466       2
   53460   53436   53454   53469       1   53460   53436   53454   53472       1
   53457   53436   53454   53466       2   53457   53436   53454   53469       1
   53457   53436   53454   53472       1   53454   53466   53481   53505       2
   53454   53466   53481   53508       2   53451   53427   53445   53463       4
   53448   53424   53445   53463       4   53445   53463   53475   53493       4
   53445   53463   53478   53499       4   53442   53418   53436   53454       2
   53442   53418   53436   53457       1   53442   53418   53436   53460       1
   53439   53418   53436   53454       2   53439   53418   53436   53457       1
   53439   53418   53436   53460       1   53436   53454   53466   53484       2
   53436   53454   53466   53487       2   53430   53412   53427   53445       4
   53430   53412   53427   53451       4   53427   53445   53424   53448       4
   53424   53445   53427   53451       4   53421   53406   53415   53433       4
   53418   53400   53415   53433       4   53418   53436   53454   53469       2
   53418   53436   53454   53472       2   53415   53400   53418   53439       7
   53415   53400   53418   53442       7   53409   53397   53412   53430       4
   53403   53388   53400   53415       4   53403   53388   53400   53418       4
   53400   53415   53406   53421       4   53400   53418   53436   53457       8
   53400   53418   53436   53460       8   53397   53409   53424   53448       4
   53397   53412   53427   53451       4   53394   53409   53424   53448       4
   53391   53379   53388   53403       4   53391   53406   53415   53433       4
   53388   53400   53415   53433       4   53388   53400   53418   53439       7
   53388   53400   53418   53442       7   53385   53397   53412   53430       4
   53382   53391   53406   53421       4   53379   53391   53406   53421       4
   53376   53379   53388   53403       4   53748   53733   53745   53751       1
   53748   53733   53745   53754       1   53748   53733   53745   53757       1
   53742   53733   53745   53751       1   53742   53733   53745   53754       1
   53742   53733   53745   53757       1   53739   53730   53733   53742       1
   53739   53730   53733   53745       2   53739   53730   53733   53748       1
   53736   53730   53733   53742       1   53736   53730   53733   53745       2
   53736   53730   53733   53748       1   53730   53733   53745   53751       2
   53730   53733   53745   53754       2   53730   53733   53745   53757       2
   53727   53712   53730   53733       2   53727   53712   53730   53736       1
   53727   53712   53730   53739       1   53724   53712   53730   53733       2
   53724   53712   53730   53736       1   53724   53712   53730   53739       1
   53718   53694   53712   53724       1   53718   53694   53712   53727       1
   53718   53694   53712   53730       2   53715   53694   53712   53724       1
   53715   53694   53712   53727       1   53715   53694   53712   53730       2
   53712   53730   53733   53742       2   53712   53730   53733   53748       2
   53709   53688   53703   53721       4   53706   53682   53703   53721       4
   53700   53673   53694   53712       2   53700   53673   53694   53715       1
   53700   53673   53694   53718       1   53697   53673   53694   53712       2
   53697   53673   53694   53715       1   53697   53673   53694   53718       1
   53694   53712   53730   53736       2   53694   53712   53730   53739       2
   53691   53670   53688   53703       4   53691   53670   53688   53709       4
   53688   53703   53682   53706       4   53685   53667   53682   53703       4
   53685   53667   53682   53706       4   53682   53703   53688   53709       4
   53679   53658   53673   53694       2   53679   53658   53673   53697       1
   53679   53658   53673   53700       1   53676   53658   53673   53694       2
   53676   53658   53673   53697       1   53676   53658   53673   53700       1
   53673   53694   53712   53724       2   53673   53694   53712   53727       2
   53670   53655   53667   53685       4   53670   53688   53703   53721       4
   53667   53655   53670   53691       4   53667   53682   53703   53721       4
   53664   53646   53658   53673       2   53664   53646   53658   53676       1
   53664   53646   53658   53679       1   53661   53646   53658   53673       2
   53661   53646   53658   53676       1   53661   53646   53658   53679       1
   53658   53673   53694   53715       2   53658   53673   53694   53718       2
   53655   53667   53682   53706       4   53655   53670   53688   53709       4
   53652   53628   53646   53658       2   53652   53628   53646   53661       1
   53652   53628   53646   53664       1   53649   53628   53646   53658       2
   53649   53628   53646   53661       1   53649   53628   53646   53664       1
   53646   53658   53673   53697       2   53646   53658   53673   53700       2
   53643   53619   53637   53655       4   53640   53616   53637   53655       4
   53637   53655   53667   53685       4   53637   53655   53670   53691       4
   53634   53610   53628   53646       2   53634   53610   53628   53649       1
   53634   53610   53628   53652       1   53631   53610   53628   53646       2
   53631   53610   53628   53649       1   53631   53610   53628   53652       1
   53628   53646   53658   53676       2   53628   53646   53658   53679       2
   53622   53604   53619   53637       4   53622   53604   53619   53643       4
   53619   53637   53616   53640       4   53616   53637   53619   53643       4
   53613   53598   53607   53625       4   53610   53592   53607   53625       4
   53610   53628   53646   53661       2   53610   53628   53646   53664       2
   53607   53592   53610   53631       7   53607   53592   53610   53634       7
   53601   53589   53604   53622       4   53595   53580   53592   53607       4
   53595   53580   53592   53610       4   53592   53607   53598   53613       4
   53592   53610   53628   53649       8   53592   53610   53628   53652       8
   53589   53601   53616   53640       4   53589   53604   53619   53643       4
   53586   53601   53616   53640       4   53583   53571   53580   53595       4
   53583   53598   53607   53625       4   53580   53592   53607   53625       4
   53580   53592   53610   53631       7   53580   53592   53610   53634       7
   53577   53589   53604   53622       4   53574   53583   53598   53613       4
   53571   53583   53598   53613       4   53568   53571   53580   53595       4
   53940   53925   53937   53943       1   53940   53925   53937   53946       1
   53940   53925   53937   53949       1   53934   53925   53937   53943       1
   53934   53925   53937   53946       1   53934   53925   53937   53949       1
   53931   53922   53925   53934       1   53931   53922   53925   53937       2
   53931   53922   53925   53940       1   53928   53922   53925   53934       1
   53928   53922   53925   53937       2   53928   53922   53925   53940       1
   53922   53925   53937   53943       2   53922   53925   53937   53946       2
   53922   53925   53937   53949       2   53919   53904   53922   53925       2
   53919   53904   53922   53928       1   53919   53904   53922   53931       1
   53916   53904   53922   53925       2   53916   53904   53922   53928       1
   53916   53904   53922   53931       1   53910   53886   53904   53916       1
   53910   53886   53904   53919       1   53910   53886   53904   53922       2
   53907   53886   53904   53916       1   53907   53886   53904   53919       1
   53907   53886   53904   53922       2   53904   53922   53925   53934       2
   53904   53922   53925   53940       2   53901   53880   53895   53913       4
   53898   53874   53895   53913       4   53892   53865   53886   53904       2
   53892   53865   53886   53907       1   53892   53865   53886   53910       1
   53889   53865   53886   53904       2   53889   53865   53886   53907       1
   53889   53865   53886   53910       1   53886   53904   53922   53928       2
   53886   53904   53922   53931       2   53883   53862   53880   53895       4
   53883   53862   53880   53901       4   53880   53895   53874   53898       4
   53877   53859   53874   53895       4   53877   53859   53874   53898       4
   53874   53895   53880   53901       4   53871   53850   53865   53886       2
   53871   53850   53865   53889       1   53871   53850   53865   53892       1
   53868   53850   53865   53886       2   53868   53850   53865   53889       1
   53868   53850   53865   53892       1   53865   53886   53904   53916       2
   53865   53886   53904   53919       2   53862   53847   53859   53877       4
   53862   53880   53895   53913       4   53859   53847   53862   53883       4
   53859   53874   53895   53913       4   53856   53838   53850   53865       2
   53856   53838   53850   53868       1   53856   53838   53850   53871       1
   53853   53838   53850   53865       2   53853   53838   53850   53868       1
   53853   53838   53850   53871       1   53850   53865   53886   53907       2
   53850   53865   53886   53910       2   53847   53859   53874   53898       4
   53847   53862   53880   53901       4   53844   53820   53838   53850       2
   53844   53820   53838   53853       1   53844   53820   53838   53856       1
   53841   53820   53838   53850       2   53841   53820   53838   53853       1
   53841   53820   53838   53856       1   53838   53850   53865   53889       2
   53838   53850   53865   53892       2   53835   53811   53829   53847       4
   53832   53808   53829   53847       4   53829   53847   53859   53877       4
   53829   53847   53862   53883       4   53826   53802   53820   53838       2
   53826   53802   53820   53841       1   53826   53802   53820   53844       1
   53823   53802   53820   53838       2   53823   53802   53820   53841       1
   53823   53802   53820   53844       1   53820   53838   53850   53868       2
   53820   53838   53850   53871       2   53814   53796   53811   53829       4
   53814   53796   53811   53835       4   53811   53829   53808   53832       4
   53808   53829   53811   53835       4   53805   53790   53799   53817       4
   53802   53784   53799   53817       4   53802   53820   53838   53853       2
   53802   53820   53838   53856       2   53799   53784   53802   53823       7
   53799   53784   53802   53826       7   53793   53781   53796   53814       4
   53787   53772   53784   53799       4   53787   53772   53784   53802       4
   53784   53799   53790   53805       4   53784   53802   53820   53841       8
   53784   53802   53820   53844       8   53781   53793   53808   53832       4
   53781   53796   53811   53835       4   53778   53793   53808   53832       4
   53775   53763   53772   53787       4   53775   53790   53799   53817       4
   53772   53784   53799   53817       4   53772   53784   53802   53823       7
   53772   53784   53802   53826       7   53769   53781   53796   53814       4
   53766   53775   53790   53805       4   53763   53775   53790   53805       4
   53760   53763   53772   53787       4   54132   54117   54129   54135       1
   54132   54117   54129   54138       1   54132   54117   54129   54141       1
   54126   54117   54129   54135       1   54126   54117   54129   54138       1
   54126   54117   54129   54141       1   54123   54114   54117   54126       1
   54123   54114   54117   54129       2   54123   54114   54117   54132       1
   54120   54114   54117   54126       1   54120   54114   54117   54129       2
   54120   54114   54117   54132       1   54114   54117   54129   54135       2
   54114   54117   54129   54138       2   54114   54117   54129   54141       2
   54111   54096   54114   54117       2   54111   54096   54114   54120       1
   54111   54096   54114   54123       1   54108   54096   54114   54117       2
   54108   54096   54114   54120       1   54108   54096   54114   54123       1
   54102   54078   54096   54108       1   54102   54078   54096   54111       1
   54102   54078   54096   54114       2   54099   54078   54096   54108       1
   54099   54078   54096   54111       1   54099   54078   54096   54114       2
   54096   54114   54117   54126       2   54096   54114   54117   54132       2
   54093   54072   54087   54105       4   54090   54066   54087   54105       4
   54084   54057   54078   54096       2   54084   54057   54078   54099       1
   54084   54057   54078   54102       1   54081   54057   54078   54096       2
   54081   54057   54078   54099       1   54081   54057   54078   54102       1
   54078   54096   54114   54120       2   54078   54096   54114   54123       2
   54075   54054   54072   54087       4   54075   54054   54072   54093       4
   54072   54087   54066   54090       4   54069   54051   54066   54087       4
   54069   54051   54066   54090       4   54066   54087   54072   54093       4
   54063   54042   54057   54078       2   54063   54042   54057   54081       1
   54063   54042   54057   54084       1   54060   54042   54057   54078       2
   54060   54042   54057   54081       1   54060   54042   54057   54084       1
   54057   54078   54096   54108       2   54057   54078   54096   54111       2
   54054   54039   54051   54069       4   54054   54072   54087   54105       4
   54051   54039   54054   54075       4   54051   54066   54087   54105       4
   54048   54030   54042   54057       2   54048   54030   54042   54060       1
   54048   54030   54042   54063       1   54045   54030   54042   54057       2
   54045   54030   54042   54060       1   54045   54030   54042   54063       1
   54042   54057   54078   54099       2   54042   54057   54078   54102       2
   54039   54051   54066   54090       4   54039   54054   54072   54093       4
   54036   54012   54030   54042       2   54036   54012   54030   54045       1
   54036   54012   54030   54048       1   54033   54012   54030   54042       2
   54033   54012   54030   54045       1   54033   54012   54030   54048       1
   54030   54042   54057   54081       2   54030   54042   54057   54084       2
   54027   54003   54021   54039       4   54024   54000   54021   54039       4
   54021   54039   54051   54069       4   54021   54039   54054   54075       4
   54018   53994   54012   54030       2   54018   53994   54012   54033       1
   54018   53994   54012   54036       1   54015   53994   54012   54030       2
   54015   53994   54012   54033       1   54015   53994   54012   54036       1
   54012   54030   54042   54060       2   54012   54030   54042   54063       2
   54006   53988   54003   54021       4   54006   53988   54003   54027       4
   54003   54021   54000   54024       4   54000   54021   54003   54027       4
   53997   53982   53991   54009       4   53994   53976   53991   54009       4
   53994   54012   54030   54045       2   53994   54012   54030   54048       2
   53991   53976   53994   54015       7   53991   53976   53994   54018       7
   53985   53973   53988   54006       4   53979   53964   53976   53991       4
   53979   53964   53976   53994       4   53976   53991   53982   53997       4
   53976   53994   54012   54033       8   53976   53994   54012   54036       8
   53973   53985   54000   54024       4   53973   53988   54003   54027       4
   53970   53985   54000   54024       4   53967   53955   53964   53979       4
   53967   53982   53991   54009       4   53964   53976   53991   54009       4
   53964   53976   53994   54015       7   53964   53976   53994   54018       7
   53961   53973   53988   54006       4   53958   53967   53982   53997       4
   53955   53967   53982   53997       4   53952   53955   53964   53979       4
   54324   54309   54321   54327       1   54324   54309   54321   54330       1
   54324   54309   54321   54333       1   54318   54309   54321   54327       1
   54318   54309   54321   54330       1   54318   54309   54321   54333       1
   54315   54306   54309   54318       1   54315   54306   54309   54321       2
   54315   54306   54309   54324       1   54312   54306   54309   54318       1
   54312   54306   54309   54321       2   54312   54306   54309   54324       1
   54306   54309   54321   54327       2   54306   54309   54321   54330       2
   54306   54309   54321   54333       2   54303   54288   54306   54309       2
   54303   54288   54306   54312       1   54303   54288   54306   54315       1
   54300   54288   54306   54309       2   54300   54288   54306   54312       1
   54300   54288   54306   54315       1   54294   54270   54288   54300       1
   54294   54270   54288   54303       1   54294   54270   54288   54306       2
   54291   54270   54288   54300       1   54291   54270   54288   54303       1
   54291   54270   54288   54306       2   54288   54306   54309   54318       2
   54288   54306   54309   54324       2   54285   54264   54279   54297       4
   54282   54258   54279   54297       4   54276   54249   54270   54288       2
   54276   54249   54270   54291       1   54276   54249   54270   54294       1
   54273   54249   54270   54288       2   54273   54249   54270   54291       1
   54273   54249   54270   54294       1   54270   54288   54306   54312       2
   54270   54288   54306   54315       2   54267   54246   54264   54279       4
   54267   54246   54264   54285       4   54264   54279   54258   54282       4
   54261   54243   54258   54279       4   54261   54243   54258   54282       4
   54258   54279   54264   54285       4   54255   54234   54249   54270       2
   54255   54234   54249   54273       1   54255   54234   54249   54276       1
   54252   54234   54249   54270       2   54252   54234   54249   54273       1
   54252   54234   54249   54276       1   54249   54270   54288   54300       2
   54249   54270   54288   54303       2   54246   54231   54243   54261       4
   54246   54264   54279   54297       4   54243   54231   54246   54267       4
   54243   54258   54279   54297       4   54240   54222   54234   54249       2
   54240   54222   54234   54252       1   54240   54222   54234   54255       1
   54237   54222   54234   54249       2   54237   54222   54234   54252       1
   54237   54222   54234   54255       1   54234   54249   54270   54291       2
   54234   54249   54270   54294       2   54231   54243   54258   54282       4
   54231   54246   54264   54285       4   54228   54204   54222   54234       2
   54228   54204   54222   54237       1   54228   54204   54222   54240       1
   54225   54204   54222   54234       2   54225   54204   54222   54237       1
   54225   54204   54222   54240       1   54222   54234   54249   54273       2
   54222   54234   54249   54276       2   54219   54195   54213   54231       4
   54216   54192   54213   54231       4   54213   54231   54243   54261       4
   54213   54231   54246   54267       4   54210   54186   54204   54222       2
   54210   54186   54204   54225       1   54210   54186   54204   54228       1
   54207   54186   54204   54222       2   54207   54186   54204   54225       1
   54207   54186   54204   54228       1   54204   54222   54234   54252       2
   54204   54222   54234   54255       2   54198   54180   54195   54213       4
   54198   54180   54195   54219       4   54195   54213   54192   54216       4
   54192   54213   54195   54219       4   54189   54174   54183   54201       4
   54186   54168   54183   54201       4   54186   54204   54222   54237       2
   54186   54204   54222   54240       2   54183   54168   54186   54207       7
   54183   54168   54186   54210       7   54177   54165   54180   54198       4
   54171   54156   54168   54183       4   54171   54156   54168   54186       4
   54168   54183   54174   54189       4   54168   54186   54204   54225       8
   54168   54186   54204   54228       8   54165   54177   54192   54216       4
   54165   54180   54195   54219       4   54162   54177   54192   54216       4
   54159   54147   54156   54171       4   54159   54174   54183   54201       4
   54156   54168   54183   54201       4   54156   54168   54186   54207       7
   54156   54168   54186   54210       7   54153   54165   54180   54198       4
   54150   54159   54174   54189       4   54147   54159   54174   54189       4
   54144   54147   54156   54171       4   54516   54501   54513   54519       1
   54516   54501   54513   54522       1   54516   54501   54513   54525       1
   54510   54501   54513   54519       1   54510   54501   54513   54522       1
   54510   54501   54513   54525       1   54507   54498   54501   54510       1
   54507   54498   54501   54513       2   54507   54498   54501   54516       1
   54504   54498   54501   54510       1   54504   54498   54501   54513       2
   54504   54498   54501   54516       1   54498   54501   54513   54519       2
   54498   54501   54513   54522       2   54498   54501   54513   54525       2
   54495   54480   54498   54501       2   54495   54480   54498   54504       1
   54495   54480   54498   54507       1   54492   54480   54498   54501       2
   54492   54480   54498   54504       1   54492   54480   54498   54507       1
   54486   54462   54480   54492       1   54486   54462   54480   54495       1
   54486   54462   54480   54498       2   54483   54462   54480   54492       1
   54483   54462   54480   54495       1   54483   54462   54480   54498       2
   54480   54498   54501   54510       2   54480   54498   54501   54516       2
   54477   54456   54471   54489       4   54474   54450   54471   54489       4
   54468   54441   54462   54480       2   54468   54441   54462   54483       1
   54468   54441   54462   54486       1   54465   54441   54462   54480       2
   54465   54441   54462   54483       1   54465   54441   54462   54486       1
   54462   54480   54498   54504       2   54462   54480   54498   54507       2
   54459   54438   54456   54471       4   54459   54438   54456   54477       4
   54456   54471   54450   54474       4   54453   54435   54450   54471       4
   54453   54435   54450   54474       4   54450   54471   54456   54477       4
   54447   54426   54441   54462       2   54447   54426   54441   54465       1
   54447   54426   54441   54468       1   54444   54426   54441   54462       2
   54444   54426   54441   54465       1   54444   54426   54441   54468       1
   54441   54462   54480   54492       2   54441   54462   54480   54495       2
   54438   54423   54435   54453       4   54438   54456   54471   54489       4
   54435   54423   54438   54459       4   54435   54450   54471   54489       4
   54432   54414   54426   54441       2   54432   54414   54426   54444       1
   54432   54414   54426   54447       1   54429   54414   54426   54441       2
   54429   54414   54426   54444       1   54429   54414   54426   54447       1
   54426   54441   54462   54483       2   54426   54441   54462   54486       2
   54423   54435   54450   54474       4   54423   54438   54456   54477       4
   54420   54396   54414   54426       2   54420   54396   54414   54429       1
   54420   54396   54414   54432       1   54417   54396   54414   54426       2
   54417   54396   54414   54429       1   54417   54396   54414   54432       1
   54414   54426   54441   54465       2   54414   54426   54441   54468       2
   54411   54387   54405   54423       4   54408   54384   54405   54423       4
   54405   54423   54435   54453       4   54405   54423   54438   54459       4
   54402   54378   54396   54414       2   54402   54378   54396   54417       1
   54402   54378   54396   54420       1   54399   54378   54396   54414       2
   54399   54378   54396   54417       1   54399   54378   54396   54420       1
   54396   54414   54426   54444       2   54396   54414   54426   54447       2
   54390   54372   54387   54405       4   54390   54372   54387   54411       4
   54387   54405   54384   54408       4   54384   54405   54387   54411       4
   54381   54366   54375   54393       4   54378   54360   54375   54393       4
   54378   54396   54414   54429       2   54378   54396   54414   54432       2
   54375   54360   54378   54399       7   54375   54360   54378   54402       7
   54369   54357   54372   54390       4   54363   54348   54360   54375       4
   54363   54348   54360   54378       4   54360   54375   54366   54381       4
   54360   54378   54396   54417       8   54360   54378   54396   54420       8
   54357   54369   54384   54408       4   54357   54372   54387   54411       4
   54354   54369   54384   54408       4   54351   54339   54348   54363       4
   54351   54366   54375   54393       4   54348   54360   54375   54393       4
   54348   54360   54378   54399       7   54348   54360   54378   54402       7
   54345   54357   54372   54390       4   54342   54351   54366   54381       4
   54339   54351   54366   54381       4   54336   54339   54348   54363       4
   54708   54693   54705   54711       1   54708   54693   54705   54714       1
   54708   54693   54705   54717       1   54702   54693   54705   54711       1
   54702   54693   54705   54714       1   54702   54693   54705   54717       1
   54699   54690   54693   54702       1   54699   54690   54693   54705       2
   54699   54690   54693   54708       1   54696   54690   54693   54702       1
   54696   54690   54693   54705       2   54696   54690   54693   54708       1
   54690   54693   54705   54711       2   54690   54693   54705   54714       2
   54690   54693   54705   54717       2   54687   54672   54690   54693       2
   54687   54672   54690   54696       1   54687   54672   54690   54699       1
   54684   54672   54690   54693       2   54684   54672   54690   54696       1
   54684   54672   54690   54699       1   54678   54654   54672   54684       1
   54678   54654   54672   54687       1   54678   54654   54672   54690       2
   54675   54654   54672   54684       1   54675   54654   54672   54687       1
   54675   54654   54672   54690       2   54672   54690   54693   54702       2
   54672   54690   54693   54708       2   54669   54648   54663   54681       4
   54666   54642   54663   54681       4   54660   54633   54654   54672       2
   54660   54633   54654   54675       1   54660   54633   54654   54678       1
   54657   54633   54654   54672       2   54657   54633   54654   54675       1
   54657   54633   54654   54678       1   54654   54672   54690   54696       2
   54654   54672   54690   54699       2   54651   54630   54648   54663       4
   54651   54630   54648   54669       4   54648   54663   54642   54666       4
   54645   54627   54642   54663       4   54645   54627   54642   54666       4
   54642   54663   54648   54669       4   54639   54618   54633   54654       2
   54639   54618   54633   54657       1   54639   54618   54633   54660       1
   54636   54618   54633   54654       2   54636   54618   54633   54657       1
   54636   54618   54633   54660       1   54633   54654   54672   54684       2
   54633   54654   54672   54687       2   54630   54615   54627   54645       4
   54630   54648   54663   54681       4   54627   54615   54630   54651       4
   54627   54642   54663   54681       4   54624   54606   54618   54633       2
   54624   54606   54618   54636       1   54624   54606   54618   54639       1
   54621   54606   54618   54633       2   54621   54606   54618   54636       1
   54621   54606   54618   54639       1   54618   54633   54654   54675       2
   54618   54633   54654   54678       2   54615   54627   54642   54666       4
   54615   54630   54648   54669       4   54612   54588   54606   54618       2
   54612   54588   54606   54621       1   54612   54588   54606   54624       1
   54609   54588   54606   54618       2   54609   54588   54606   54621       1
   54609   54588   54606   54624       1   54606   54618   54633   54657       2
   54606   54618   54633   54660       2   54603   54579   54597   54615       4
   54600   54576   54597   54615       4   54597   54615   54627   54645       4
   54597   54615   54630   54651       4   54594   54570   54588   54606       2
   54594   54570   54588   54609       1   54594   54570   54588   54612       1
   54591   54570   54588   54606       2   54591   54570   54588   54609       1
   54591   54570   54588   54612       1   54588   54606   54618   54636       2
   54588   54606   54618   54639       2   54582   54564   54579   54597       4
   54582   54564   54579   54603       4   54579   54597   54576   54600       4
   54576   54597   54579   54603       4   54573   54558   54567   54585       4
   54570   54552   54567   54585       4   54570   54588   54606   54621       2
   54570   54588   54606   54624       2   54567   54552   54570   54591       7
   54567   54552   54570   54594       7   54561   54549   54564   54582       4
   54555   54540   54552   54567       4   54555   54540   54552   54570       4
   54552   54567   54558   54573       4   54552   54570   54588   54609       8
   54552   54570   54588   54612       8   54549   54561   54576   54600       4
   54549   54564   54579   54603       4   54546   54561   54576   54600       4
   54543   54531   54540   54555       4   54543   54558   54567   54585       4
   54540   54552   54567   54585       4   54540   54552   54570   54591       7
   54540   54552   54570   54594       7   54537   54549   54564   54582       4
   54534   54543   54558   54573       4   54531   54543   54558   54573       4
   54528   54531   54540   54555       4   54900   54885   54897   54903       1
   54900   54885   54897   54906       1   54900   54885   54897   54909       1
   54894   54885   54897   54903       1   54894   54885   54897   54906       1
   54894   54885   54897   54909       1   54891   54882   54885   54894       1
   54891   54882   54885   54897       2   54891   54882   54885   54900       1
   54888   54882   54885   54894       1   54888   54882   54885   54897       2
   54888   54882   54885   54900       1   54882   54885   54897   54903       2
   54882   54885   54897   54906       2   54882   54885   54897   54909       2
   54879   54864   54882   54885       2   54879   54864   54882   54888       1
   54879   54864   54882   54891       1   54876   54864   54882   54885       2
   54876   54864   54882   54888       1   54876   54864   54882   54891       1
   54870   54846   54864   54876       1   54870   54846   54864   54879       1
   54870   54846   54864   54882       2   54867   54846   54864   54876       1
   54867   54846   54864   54879       1   54867   54846   54864   54882       2
   54864   54882   54885   54894       2   54864   54882   54885   54900       2
   54861   54840   54855   54873       4   54858   54834   54855   54873       4
   54852   54825   54846   54864       2   54852   54825   54846   54867       1
   54852   54825   54846   54870       1   54849   54825   54846   54864       2
   54849   54825   54846   54867       1   54849   54825   54846   54870       1
   54846   54864   54882   54888       2   54846   54864   54882   54891       2
   54843   54822   54840   54855       4   54843   54822   54840   54861       4
   54840   54855   54834   54858       4   54837   54819   54834   54855       4
   54837   54819   54834   54858       4   54834   54855   54840   54861       4
   54831   54810   54825   54846       2   54831   54810   54825   54849       1
   54831   54810   54825   54852       1   54828   54810   54825   54846       2
   54828   54810   54825   54849       1   54828   54810   54825   54852       1
   54825   54846   54864   54876       2   54825   54846   54864   54879       2
   54822   54807   54819   54837       4   54822   54840   54855   54873       4
   54819   54807   54822   54843       4   54819   54834   54855   54873       4
   54816   54798   54810   54825       2   54816   54798   54810   54828       1
   54816   54798   54810   54831       1   54813   54798   54810   54825       2
   54813   54798   54810   54828       1   54813   54798   54810   54831       1
   54810   54825   54846   54867       2   54810   54825   54846   54870       2
   54807   54819   54834   54858       4   54807   54822   54840   54861       4
   54804   54780   54798   54810       2   54804   54780   54798   54813       1
   54804   54780   54798   54816       1   54801   54780   54798   54810       2
   54801   54780   54798   54813       1   54801   54780   54798   54816       1
   54798   54810   54825   54849       2   54798   54810   54825   54852       2
   54795   54771   54789   54807       4   54792   54768   54789   54807       4
   54789   54807   54819   54837       4   54789   54807   54822   54843       4
   54786   54762   54780   54798       2   54786   54762   54780   54801       1
   54786   54762   54780   54804       1   54783   54762   54780   54798       2
   54783   54762   54780   54801       1   54783   54762   54780   54804       1
   54780   54798   54810   54828       2   54780   54798   54810   54831       2
   54774   54756   54771   54789       4   54774   54756   54771   54795       4
   54771   54789   54768   54792       4   54768   54789   54771   54795       4
   54765   54750   54759   54777       4   54762   54744   54759   54777       4
   54762   54780   54798   54813       2   54762   54780   54798   54816       2
   54759   54744   54762   54783       7   54759   54744   54762   54786       7
   54753   54741   54756   54774       4   54747   54732   54744   54759       4
   54747   54732   54744   54762       4   54744   54759   54750   54765       4
   54744   54762   54780   54801       8   54744   54762   54780   54804       8
   54741   54753   54768   54792       4   54741   54756   54771   54795       4
   54738   54753   54768   54792       4   54735   54723   54732   54747       4
   54735   54750   54759   54777       4   54732   54744   54759   54777       4
   54732   54744   54762   54783       7   54732   54744   54762   54786       7
   54729   54741   54756   54774       4   54726   54735   54750   54765       4
   54723   54735   54750   54765       4   54720   54723   54732   54747       4
   55092   55077   55089   55095       1   55092   55077   55089   55098       1
   55092   55077   55089   55101       1   55086   55077   55089   55095       1
   55086   55077   55089   55098       1   55086   55077   55089   55101       1
   55083   55074   55077   55086       1   55083   55074   55077   55089       2
   55083   55074   55077   55092       1   55080   55074   55077   55086       1
   55080   55074   55077   55089       2   55080   55074   55077   55092       1
   55074   55077   55089   55095       2   55074   55077   55089   55098       2
   55074   55077   55089   55101       2   55071   55056   55074   55077       2
   55071   55056   55074   55080       1   55071   55056   55074   55083       1
   55068   55056   55074   55077       2   55068   55056   55074   55080       1
   55068   55056   55074   55083       1   55062   55038   55056   55068       1
   55062   55038   55056   55071       1   55062   55038   55056   55074       2
   55059   55038   55056   55068       1   55059   55038   55056   55071       1
   55059   55038   55056   55074       2   55056   55074   55077   55086       2
   55056   55074   55077   55092       2   55053   55032   55047   55065       4
   55050   55026   55047   55065       4   55044   55017   55038   55056       2
   55044   55017   55038   55059       1   55044   55017   55038   55062       1
   55041   55017   55038   55056       2   55041   55017   55038   55059       1
   55041   55017   55038   55062       1   55038   55056   55074   55080       2
   55038   55056   55074   55083       2   55035   55014   55032   55047       4
   55035   55014   55032   55053       4   55032   55047   55026   55050       4
   55029   55011   55026   55047       4   55029   55011   55026   55050       4
   55026   55047   55032   55053       4   55023   55002   55017   55038       2
   55023   55002   55017   55041       1   55023   55002   55017   55044       1
   55020   55002   55017   55038       2   55020   55002   55017   55041       1
   55020   55002   55017   55044       1   55017   55038   55056   55068       2
   55017   55038   55056   55071       2   55014   54999   55011   55029       4
   55014   55032   55047   55065       4   55011   54999   55014   55035       4
   55011   55026   55047   55065       4   55008   54990   55002   55017       2
   55008   54990   55002   55020       1   55008   54990   55002   55023       1
   55005   54990   55002   55017       2   55005   54990   55002   55020       1
   55005   54990   55002   55023       1   55002   55017   55038   55059       2
   55002   55017   55038   55062       2   54999   55011   55026   55050       4
   54999   55014   55032   55053       4   54996   54972   54990   55002       2
   54996   54972   54990   55005       1   54996   54972   54990   55008       1
   54993   54972   54990   55002       2   54993   54972   54990   55005       1
   54993   54972   54990   55008       1   54990   55002   55017   55041       2
   54990   55002   55017   55044       2   54987   54963   54981   54999       4
   54984   54960   54981   54999       4   54981   54999   55011   55029       4
   54981   54999   55014   55035       4   54978   54954   54972   54990       2
   54978   54954   54972   54993       1   54978   54954   54972   54996       1
   54975   54954   54972   54990       2   54975   54954   54972   54993       1
   54975   54954   54972   54996       1   54972   54990   55002   55020       2
   54972   54990   55002   55023       2   54966   54948   54963   54981       4
   54966   54948   54963   54987       4   54963   54981   54960   54984       4
   54960   54981   54963   54987       4   54957   54942   54951   54969       4
   54954   54936   54951   54969       4   54954   54972   54990   55005       2
   54954   54972   54990   55008       2   54951   54936   54954   54975       7
   54951   54936   54954   54978       7   54945   54933   54948   54966       4
   54939   54924   54936   54951       4   54939   54924   54936   54954       4
   54936   54951   54942   54957       4   54936   54954   54972   54993       8
   54936   54954   54972   54996       8   54933   54945   54960   54984       4
   54933   54948   54963   54987       4   54930   54945   54960   54984       4
   54927   54915   54924   54939       4   54927   54942   54951   54969       4
   54924   54936   54951   54969       4   54924   54936   54954   54975       7
   54924   54936   54954   54978       7   54921   54933   54948   54966       4
   54918   54927   54942   54957       4   54915   54927   54942   54957       4
   54912   54915   54924   54939       4   55284   55269   55281   55287       1
   55284   55269   55281   55290       1   55284   55269   55281   55293       1
   55278   55269   55281   55287       1   55278   55269   55281   55290       1
   55278   55269   55281   55293       1   55275   55266   55269   55278       1
   55275   55266   55269   55281       2   55275   55266   55269   55284       1
   55272   55266   55269   55278       1   55272   55266   55269   55281       2
   55272   55266   55269   55284       1   55266   55269   55281   55287       2
   55266   55269   55281   55290       2   55266   55269   55281   55293       2
   55263   55248   55266   55269       2   55263   55248   55266   55272       1
   55263   55248   55266   55275       1   55260   55248   55266   55269       2
   55260   55248   55266   55272       1   55260   55248   55266   55275       1
   55254   55230   55248   55260       1   55254   55230   55248   55263       1
   55254   55230   55248   55266       2   55251   55230   55248   55260       1
   55251   55230   55248   55263       1   55251   55230   55248   55266       2
   55248   55266   55269   55278       2   55248   55266   55269   55284       2
   55245   55224   55239   55257       4   55242   55218   55239   55257       4
   55236   55209   55230   55248       2   55236   55209   55230   55251       1
   55236   55209   55230   55254       1   55233   55209   55230   55248       2
   55233   55209   55230   55251       1   55233   55209   55230   55254       1
   55230   55248   55266   55272       2   55230   55248   55266   55275       2
   55227   55206   55224   55239       4   55227   55206   55224   55245       4
   55224   55239   55218   55242       4   55221   55203   55218   55239       4
   55221   55203   55218   55242       4   55218   55239   55224   55245       4
   55215   55194   55209   55230       2   55215   55194   55209   55233       1
   55215   55194   55209   55236       1   55212   55194   55209   55230       2
   55212   55194   55209   55233       1   55212   55194   55209   55236       1
   55209   55230   55248   55260       2   55209   55230   55248   55263       2
   55206   55191   55203   55221       4   55206   55224   55239   55257       4
   55203   55191   55206   55227       4   55203   55218   55239   55257       4
   55200   55182   55194   55209       2   55200   55182   55194   55212       1
   55200   55182   55194   55215       1   55197   55182   55194   55209       2
   55197   55182   55194   55212       1   55197   55182   55194   55215       1
   55194   55209   55230   55251       2   55194   55209   55230   55254       2
   55191   55203   55218   55242       4   55191   55206   55224   55245       4
   55188   55164   55182   55194       2   55188   55164   55182   55197       1
   55188   55164   55182   55200       1   55185   55164   55182   55194       2
   55185   55164   55182   55197       1   55185   55164   55182   55200       1
   55182   55194   55209   55233       2   55182   55194   55209   55236       2
   55179   55155   55173   55191       4   55176   55152   55173   55191       4
   55173   55191   55203   55221       4   55173   55191   55206   55227       4
   55170   55146   55164   55182       2   55170   55146   55164   55185       1
   55170   55146   55164   55188       1   55167   55146   55164   55182       2
   55167   55146   55164   55185       1   55167   55146   55164   55188       1
   55164   55182   55194   55212       2   55164   55182   55194   55215       2
   55158   55140   55155   55173       4   55158   55140   55155   55179       4
   55155   55173   55152   55176       4   55152   55173   55155   55179       4
   55149   55134   55143   55161       4   55146   55128   55143   55161       4
   55146   55164   55182   55197       2   55146   55164   55182   55200       2
   55143   55128   55146   55167       7   55143   55128   55146   55170       7
   55137   55125   55140   55158       4   55131   55116   55128   55143       4
   55131   55116   55128   55146       4   55128   55143   55134   55149       4
   55128   55146   55164   55185       8   55128   55146   55164   55188       8
   55125   55137   55152   55176       4   55125   55140   55155   55179       4
   55122   55137   55152   55176       4   55119   55107   55116   55131       4
   55119   55134   55143   55161       4   55116   55128   55143   55161       4
   55116   55128   55146   55167       7   55116   55128   55146   55170       7
   55113   55125   55140   55158       4   55110   55119   55134   55149       4
   55107   55119   55134   55149       4   55104   55107   55116   55131       4
     114     120    -135    -153      23     102     135    -120    -141      23
      99     135    -114    -138      23     120      87    -102    -123      23
     114      87     -99    -117      23      36      69     -51     -75      23
      33      69     -48     -72      23      24      30     -39     -57      23
      21      51     -36     -54      23      15      39     -30     -45      23
       3      24     -12     -27      23     306     312    -327    -345      23
     294     327    -312    -333      23     291     327    -306    -330      23
     312     279    -294    -315      23     306     279    -291    -309      23
     228     261    -243    -267      23     225     261    -240    -264      23
     216     222    -231    -249      23     213     243    -228    -246      23
     207     231    -222    -237      23     195     216    -204    -219      23
     498     504    -519    -537      23     486     519    -504    -525      23
     483     519    -498    -522      23     504     471    -486    -507      23
     498     471    -483    -501      23     420     453    -435    -459      23
     417     453    -432    -456      23     408     414    -423    -441      23
     405     435    -420    -438      23     399     423    -414    -429      23
     387     408    -396    -411      23     690     696    -711    -729      23
     678     711    -696    -717      23     675     711    -690    -714      23
     696     663    -678    -699      23     690     663    -675    -693      23
     612     645    -627    -651      23     609     645    -624    -648      23
     600     606    -615    -633      23     597     627    -612    -630      23
     591     615    -606    -621      23     579     600    -588    -603      23
     882     888    -903    -921      23     870     903    -888    -909      23
     867     903    -882    -906      23     888     855    -870    -891      23
     882     855    -867    -885      23     804     837    -819    -843      23
     801     837    -816    -840      23     792     798    -807    -825      23
     789     819    -804    -822      23     783     807    -798    -813      23
     771     792    -780    -795      23    1074    1080   -1095   -1113      23
    1062    1095   -1080   -1101      23    1059    1095   -1074   -1098      23
    1080    1047   -1062   -1083      23    1074    1047   -1059   -1077      23
     996    1029   -1011   -1035      23     993    1029   -1008   -1032      23
     984     990    -999   -1017      23     981    1011    -996   -1014      23
     975     999    -990   -1005      23     963     984    -972    -987      23
    1266    1272   -1287   -1305      23    1254    1287   -1272   -1293      23
    1251    1287   -1266   -1290      23    1272    1239   -1254   -1275      23
    1266    1239   -1251   -1269      23    1188    1221   -1203   -1227      23
    1185    1221   -1200   -1224      23    1176    1182   -1191   -1209      23
    1173    1203   -1188   -1206      23    1167    1191   -1182   -1197      23
    1155    1176   -1164   -1179      23    1458    1464   -1479   -1497      23
    1446    1479   -1464   -1485      23    1443    1479   -1458   -1482      23
    1464    1431   -1446   -1467      23    1458    1431   -1443   -1461      23
    1380    1413   -1395   -1419      23    1377    1413   -1392   -1416      23
    1368    1374   -1383   -1401      23    1365    1395   -1380   -1398      23
    1359    1383   -1374   -1389      23    1347    1368   -1356   -1371      23
    1650    1656   -1671   -1689      23    1638    1671   -1656   -1677      23
    1635    1671   -1650   -1674      23    1656    1623   -1638   -1659      23
    1650    1623   -1635   -1653      23    1572    1605   -1587   -1611      23
    1569    1605   -1584   -1608      23    1560    1566   -1575   -1593      23
    1557    1587   -1572   -1590      23    1551    1575   -1566   -1581      23
    1539    1560   -1548   -1563      23    1842    1848   -1863   -1881      23
    1830    1863   -1848   -1869      23    1827    1863   -1842   -1866      23
    1848    1815   -1830   -1851      23    1842    1815   -1827   -1845      23
    1764    1797   -1779   -1803      23    1761    1797   -1776   -1800      23
    1752    1758   -1767   -1785      23    1749    1779   -1764   -1782      23
    1743    1767   -1758   -1773      23    1731    1752   -1740   -1755      23
    2034    2040   -2055   -2073      23    2022    2055   -2040   -2061      23
    2019    2055   -2034   -2058      23    2040    2007   -2022   -2043      23
    2034    2007   -2019   -2037      23    1956    1989   -1971   -1995      23
    1953    1989   -1968   -1992      23    1944    1950   -1959   -1977      23
    1941    1971   -1956   -1974      23    1935    1959   -1950   -1965      23
    1923    1944   -1932   -1947      23    2226    2232   -2247   -2265      23
    2214    2247   -2232   -2253      23    2211    2247   -2226   -2250      23
    2232    2199   -2214   -2235      23    2226    2199   -2211   -2229      23
    2148    2181   -2163   -2187      23    2145    2181   -2160   -2184      23
    2136    2142   -2151   -2169      23    2133    2163   -2148   -2166      23
    2127    2151   -2142   -2157      23    2115    2136   -2124   -2139      23
    2418    2424   -2439   -2457      23    2406    2439   -2424   -2445      23
    2403    2439   -2418   -2442      23    2424    2391   -2406   -2427      23
    2418    2391   -2403   -2421      23    2340    2373   -2355   -2379      23
    2337    2373   -2352   -2376      23    2328    2334   -2343   -2361      23
    2325    2355   -2340   -2358      23    2319    2343   -2334   -2349      23
    2307    2328   -2316   -2331      23    2610    2616   -2631   -2649      23
    2598    2631   -2616   -2637      23    2595    2631   -2610   -2634      23
    2616    2583   -2598   -2619      23    2610    2583   -2595   -2613      23
    2532    2565   -2547   -2571      23    2529    2565   -2544   -2568      23
    2520    2526   -2535   -2553      23    2517    2547   -2532   -2550      23
    2511    2535   -2526   -2541      23    2499    2520   -2508   -2523      23
    2802    2808   -2823   -2841      23    2790    2823   -2808   -2829      23
    2787    2823   -2802   -2826      23    2808    2775   -2790   -2811      23
    2802    2775   -2787   -2805      23    2724    2757   -2739   -2763      23
    2721    2757   -2736   -2760      23    2712    2718   -2727   -2745      23
    2709    2739   -2724   -2742      23    2703    2727   -2718   -2733      23
    2691    2712   -2700   -2715      23    2994    3000   -3015   -3033      23
    2982    3015   -3000   -3021      23    2979    3015   -2994   -3018      23
    3000    2967   -2982   -3003      23    2994    2967   -2979   -2997      23
    2916    2949   -2931   -2955      23    2913    2949   -2928   -2952      23
    2904    2910   -2919   -2937      23    2901    2931   -2916   -2934      23
    2895    2919   -2910   -2925      23    2883    2904   -2892   -2907      23
    3186    3192   -3207   -3225      23    3174    3207   -3192   -3213      23
    3171    3207   -3186   -3210      23    3192    3159   -3174   -3195      23
    3186    3159   -3171   -3189      23    3108    3141   -3123   -3147      23
    3105    3141   -3120   -3144      23    3096    3102   -3111   -3129      23
    3093    3123   -3108   -3126      23    3087    3111   -3102   -3117      23
    3075    3096   -3084   -3099      23    3378    3384   -3399   -3417      23
    3366    3399   -3384   -3405      23    3363    3399   -3378   -3402      23
    3384    3351   -3366   -3387      23    3378    3351   -3363   -3381      23
    3300    3333   -3315   -3339      23    3297    3333   -3312   -3336      23
    3288    3294   -3303   -3321      23    3285    3315   -3300   -3318      23
    3279    3303   -3294   -3309      23    3267    3288   -3276   -3291      23
    3570    3576   -3591   -3609      23    3558    3591   -3576   -3597      23
    3555    3591   -3570   -3594      23    3576    3543   -3558   -3579      23
    3570    3543   -3555   -3573      23    3492    3525   -3507   -3531      23
    3489    3525   -3504   -3528      23    3480    3486   -3495   -3513      23
    3477    3507   -3492   -3510      23    3471    3495   -3486   -3501      23
    3459    3480   -3468   -3483      23    3762    3768   -3783   -3801      23
    3750    3783   -3768   -3789      23    3747    3783   -3762   -3786      23
    3768    3735   -3750   -3771      23    3762    3735   -3747   -3765      23
    3684    3717   -3699   -3723      23    3681    3717   -3696   -3720      23
    3672    3678   -3687   -3705      23    3669    3699   -3684   -3702      23
    3663    3687   -3678   -3693      23    3651    3672   -3660   -3675      23
    3954    3960   -3975   -3993      23    3942    3975   -3960   -3981      23
    3939    3975   -3954   -3978      23    3960    3927   -3942   -3963      23
    3954    3927   -3939   -3957      23    3876    3909   -3891   -3915      23
    3873    3909   -3888   -3912      23    3864    3870   -3879   -3897      23
    3861    3891   -3876   -3894      23    3855    3879   -3870   -3885      23
    3843    3864   -3852   -3867      23    4146    4152   -4167   -4185      23
    4134    4167   -4152   -4173      23    4131    4167   -4146   -4170      23
    4152    4119   -4134   -4155      23    4146    4119   -4131   -4149      23
    4068    4101   -4083   -4107      23    4065    4101   -4080   -4104      23
    4056    4062   -4071   -4089      23    4053    4083   -4068   -4086      23
    4047    4071   -4062   -4077      23    4035    4056   -4044   -4059      23
    4338    4344   -4359   -4377      23    4326    4359   -4344   -4365      23
    4323    4359   -4338   -4362      23    4344    4311   -4326   -4347      23
    4338    4311   -4323   -4341      23    4260    4293   -4275   -4299      23
    4257    4293   -4272   -4296      23    4248    4254   -4263   -4281      23
    4245    4275   -4260   -4278      23    4239    4263   -4254   -4269      23
    4227    4248   -4236   -4251      23    4530    4536   -4551   -4569      23
    4518    4551   -4536   -4557      23    4515    4551   -4530   -4554      23
    4536    4503   -4518   -4539      23    4530    4503   -4515   -4533      23
    4452    4485   -4467   -4491      23    4449    4485   -4464   -4488      23
    4440    4446   -4455   -4473      23    4437    4467   -4452   -4470      23
    4431    4455   -4446   -4461      23    4419    4440   -4428   -4443      23
    4722    4728   -4743   -4761      23    4710    4743   -4728   -4749      23
    4707    4743   -4722   -4746      23    4728    4695   -4710   -4731      23
    4722    4695   -4707   -4725      23    4644    4677   -4659   -4683      23
    4641    4677   -4656   -4680      23    4632    4638   -4647   -4665      23
    4629    4659   -4644   -4662      23    4623    4647   -4638   -4653      23
    4611    4632   -4620   -4635      23    4914    4920   -4935   -4953      23
    4902    4935   -4920   -4941      23    4899    4935   -4914   -4938      23
    4920    4887   -4902   -4923      23    4914    4887   -4899   -4917      23
    4836    4869   -4851   -4875      23    4833    4869   -4848   -4872      23
    4824    4830   -4839   -4857      23    4821    4851   -4836   -4854      23
    4815    4839   -4830   -4845      23    4803    4824   -4812   -4827      23
    5106    5112   -5127   -5145      23    5094    5127   -5112   -5133      23
    5091    5127   -5106   -5130      23    5112    5079   -5094   -5115      23
    5106    5079   -5091   -5109      23    5028    5061   -5043   -5067      23
    5025    5061   -5040   -5064      23    5016    5022   -5031   -5049      23
    5013    5043   -5028   -5046      23    5007    5031   -5022   -5037      23
    4995    5016   -5004   -5019      23    5298    5304   -5319   -5337      23
    5286    5319   -5304   -5325      23    5283    5319   -5298   -5322      23
    5304    5271   -5286   -5307      23    5298    5271   -5283   -5301      23
    5220    5253   -5235   -5259      23    5217    5253   -5232   -5256      23
    5208    5214   -5223   -5241      23    5205    5235   -5220   -5238      23
    5199    5223   -5214   -5229      23    5187    5208   -5196   -5211      23
    5490    5496   -5511   -5529      23    5478    5511   -5496   -5517      23
    5475    5511   -5490   -5514      23    5496    5463   -5478   -5499      23
    5490    5463   -5475   -5493      23    5412    5445   -5427   -5451      23
    5409    5445   -5424   -5448      23    5400    5406   -5415   -5433      23
    5397    5427   -5412   -5430      23    5391    5415   -5406   -5421      23
    5379    5400   -5388   -5403      23    5682    5688   -5703   -5721      23
    5670    5703   -5688   -5709      23    5667    5703   -5682   -5706      23
    5688    5655   -5670   -5691      23    5682    5655   -5667   -5685      23
    5604    5637   -5619   -5643      23    5601    5637   -5616   -5640      23
    5592    5598   -5607   -5625      23    5589    5619   -5604   -5622      23
    5583    5607   -5598   -5613      23    5571    5592   -5580   -5595      23
    5874    5880   -5895   -5913      23    5862    5895   -5880   -5901      23
    5859    5895   -5874   -5898      23    5880    5847   -5862   -5883      23
    5874    5847   -5859   -5877      23    5796    5829   -5811   -5835      23
    5793    5829   -5808   -5832      23    5784    5790   -5799   -5817      23
    5781    5811   -5796   -5814      23    5775    5799   -5790   -5805      23
    5763    5784   -5772   -5787      23    6066    6072   -6087   -6105      23
    6054    6087   -6072   -6093      23    6051    6087   -6066   -6090      23
    6072    6039   -6054   -6075      23    6066    6039   -6051   -6069      23
    5988    6021   -6003   -6027      23    5985    6021   -6000   -6024      23
    5976    5982   -5991   -6009      23    5973    6003   -5988   -6006      23
    5967    5991   -5982   -5997      23    5955    5976   -5964   -5979      23
    6258    6264   -6279   -6297      23    6246    6279   -6264   -6285      23
    6243    6279   -6258   -6282      23    6264    6231   -6246   -6267      23
    6258    6231   -6243   -6261      23    6180    6213   -6195   -6219      23
    6177    6213   -6192   -6216      23    6168    6174   -6183   -6201      23
    6165    6195   -6180   -6198      23    6159    6183   -6174   -6189      23
    6147    6168   -6156   -6171      23    6450    6456   -6471   -6489      23
    6438    6471   -6456   -6477      23    6435    6471   -6450   -6474      23
    6456    6423   -6438   -6459      23    6450    6423   -6435   -6453      23
    6372    6405   -6387   -6411      23    6369    6405   -6384   -6408      23
    6360    6366   -6375   -6393      23    6357    6387   -6372   -6390      23
    6351    6375   -6366   -6381      23    6339    6360   -6348   -6363      23
    6642    6648   -6663   -6681      23    6630    6663   -6648   -6669      23
    6627    6663   -6642   -6666      23    6648    6615   -6630   -6651      23
    6642    6615   -6627   -6645      23    6564    6597   -6579   -6603      23
    6561    6597   -6576   -6600      23    6552    6558   -6567   -6585      23
    6549    6579   -6564   -6582      23    6543    6567   -6558   -6573      23
    6531    6552   -6540   -6555      23    6834    6840   -6855   -6873      23
    6822    6855   -6840   -6861      23    6819    6855   -6834   -6858      23
    6840    6807   -6822   -6843      23    6834    6807   -6819   -6837      23
    6756    6789   -6771   -6795      23    6753    6789   -6768   -6792      23
    6744    6750   -6759   -6777      23    6741    6771   -6756   -6774      23
    6735    6759   -6750   -6765      23    6723    6744   -6732   -6747      23
    7026    7032   -7047   -7065      23    7014    7047   -7032   -7053      23
    7011    7047   -7026   -7050      23    7032    6999   -7014   -7035      23
    7026    6999   -7011   -7029      23    6948    6981   -6963   -6987      23
    6945    6981   -6960   -6984      23    6936    6942   -6951   -6969      23
    6933    6963   -6948   -6966      23    6927    6951   -6942   -6957      23
    6915    6936   -6924   -6939      23    7218    7224   -7239   -7257      23
    7206    7239   -7224   -7245      23    7203    7239   -7218   -7242      23
    7224    7191   -7206   -7227      23    7218    7191   -7203   -7221      23
    7140    7173   -7155   -7179      23    7137    7173   -7152   -7176      23
    7128    7134   -7143   -7161      23    7125    7155   -7140   -7158      23
    7119    7143   -7134   -7149      23    7107    7128   -7116   -7131      23
    7410    7416   -7431   -7449      23    7398    7431   -7416   -7437      23
    7395    7431   -7410   -7434      23    7416    7383   -7398   -7419      23
    7410    7383   -7395   -7413      23    7332    7365   -7347   -7371      23
    7329    7365   -7344   -7368      23    7320    7326   -7335   -7353      23
    7317    7347   -7332   -7350      23    7311    7335   -7326   -7341      23
    7299    7320   -7308   -7323      23    7602    7608   -7623   -7641      23
    7590    7623   -7608   -7629      23    7587    7623   -7602   -7626      23
    7608    7575   -7590   -7611      23    7602    7575   -7587   -7605      23
    7524    7557   -7539   -7563      23    7521    7557   -7536   -7560      23
    7512    7518   -7527   -7545      23    7509    7539   -7524   -7542      23
    7503    7527   -7518   -7533      23    7491    7512   -7500   -7515      23
    7794    7800   -7815   -7833      23    7782    7815   -7800   -7821      23
    7779    7815   -7794   -7818      23    7800    7767   -7782   -7803      23
    7794    7767   -7779   -7797      23    7716    7749   -7731   -7755      23
    7713    7749   -7728   -7752      23    7704    7710   -7719   -7737      23
    7701    7731   -7716   -7734      23    7695    7719   -7710   -7725      23
    7683    7704   -7692   -7707      23    7986    7992   -8007   -8025      23
    7974    8007   -7992   -8013      23    7971    8007   -7986   -8010      23
    7992    7959   -7974   -7995      23    7986    7959   -7971   -7989      23
    7908    7941   -7923   -7947      23    7905    7941   -7920   -7944      23
    7896    7902   -7911   -7929      23    7893    7923   -7908   -7926      23
    7887    7911   -7902   -7917      23    7875    7896   -7884   -7899      23
    8178    8184   -8199   -8217      23    8166    8199   -8184   -8205      23
    8163    8199   -8178   -8202      23    8184    8151   -8166   -8187      23
    8178    8151   -8163   -8181      23    8100    8133   -8115   -8139      23
    8097    8133   -8112   -8136      23    8088    8094   -8103   -8121      23
    8085    8115   -8100   -8118      23    8079    8103   -8094   -8109      23
    8067    8088   -8076   -8091      23    8370    8376   -8391   -8409      23
    8358    8391   -8376   -8397      23    8355    8391   -8370   -8394      23
    8376    8343   -8358   -8379      23    8370    8343   -8355   -8373      23
    8292    8325   -8307   -8331      23    8289    8325   -8304   -8328      23
    8280    8286   -8295   -8313      23    8277    8307   -8292   -8310      23
    8271    8295   -8286   -8301      23    8259    8280   -8268   -8283      23
    8562    8568   -8583   -8601      23    8550    8583   -8568   -8589      23
    8547    8583   -8562   -8586      23    8568    8535   -8550   -8571      23
    8562    8535   -8547   -8565      23    8484    8517   -8499   -8523      23
    8481    8517   -8496   -8520      23    8472    8478   -8487   -8505      23
    8469    8499   -8484   -8502      23    8463    8487   -8478   -8493      23
    8451    8472   -8460   -8475      23    8754    8760   -8775   -8793      23
    8742    8775   -8760   -8781      23    8739    8775   -8754   -8778      23
    8760    8727   -8742   -8763      23    8754    8727   -8739   -8757      23
    8676    8709   -8691   -8715      23    8673    8709   -8688   -8712      23
    8664    8670   -8679   -8697      23    8661    8691   -8676   -8694      23
    8655    8679   -8670   -8685      23    8643    8664   -8652   -8667      23
    8946    8952   -8967   -8985      23    8934    8967   -8952   -8973      23
    8931    8967   -8946   -8970      23    8952    8919   -8934   -8955      23
    8946    8919   -8931   -8949      23    8868    8901   -8883   -8907      23
    8865    8901   -8880   -8904      23    8856    8862   -8871   -8889      23
    8853    8883   -8868   -8886      23    8847    8871   -8862   -8877      23
    8835    8856   -8844   -8859      23    9138    9144   -9159   -9177      23
    9126    9159   -9144   -9165      23    9123    9159   -9138   -9162      23
    9144    9111   -9126   -9147      23    9138    9111   -9123   -9141      23
    9060    9093   -9075   -9099      23    9057    9093   -9072   -9096      23
    9048    9054   -9063   -9081      23    9045    9075   -9060   -9078      23
    9039    9063   -9054   -9069      23    9027    9048   -9036   -9051      23
    9330    9336   -9351   -9369      23    9318    9351   -9336   -9357      23
    9315    9351   -9330   -9354      23    9336    9303   -9318   -9339      23
    9330    9303   -9315   -9333      23    9252    9285   -9267   -9291      23
    9249    9285   -9264   -9288      23    9240    9246   -9255   -9273      23
    9237    9267   -9252   -9270      23    9231    9255   -9246   -9261      23
    9219    9240   -9228   -9243      23    9522    9528   -9543   -9561      23
    9510    9543   -9528   -9549      23    9507    9543   -9522   -9546      23
    9528    9495   -9510   -9531      23    9522    9495   -9507   -9525      23
    9444    9477   -9459   -9483      23    9441    9477   -9456   -9480      23
    9432    9438   -9447   -9465      23    9429    9459   -9444   -9462      23
    9423    9447   -9438   -9453      23    9411    9432   -9420   -9435      23
    9714    9720   -9735   -9753      23    9702    9735   -9720   -9741      23
    9699    9735   -9714   -9738      23    9720    9687   -9702   -9723      23
    9714    9687   -9699   -9717      23    9636    9669   -9651   -9675      23
    9633    9669   -9648   -9672      23    9624    9630   -9639   -9657      23
    9621    9651   -9636   -9654      23    9615    9639   -9630   -9645      23
    9603    9624   -9612   -9627      23    9906    9912   -9927   -9945      23
    9894    9927   -9912   -9933      23    9891    9927   -9906   -9930      23
    9912    9879   -9894   -9915      23    9906    9879   -9891   -9909      23
    9828    9861   -9843   -9867      23    9825    9861   -9840   -9864      23
    9816    9822   -9831   -9849      23    9813    9843   -9828   -9846      23
    9807    9831   -9822   -9837      23    9795    9816   -9804   -9819      23
   10098   10104  -10119  -10137      23   10086   10119  -10104  -10125      23
   10083   10119  -10098  -10122      23   10104   10071  -10086  -10107      23
   10098   10071  -10083  -10101      23   10020   10053  -10035  -10059      23
   10017   10053  -10032  -10056      23   10008   10014  -10023  -10041      23
   10005   10035  -10020  -10038      23    9999   10023  -10014  -10029      23
    9987   10008   -9996  -10011      23   10290   10296  -10311  -10329      23
   10278   10311  -10296  -10317      23   10275   10311  -10290  -10314      23
   10296   10263  -10278  -10299      23   10290   10263  -10275  -10293      23
   10212   10245  -10227  -10251      23   10209   10245  -10224  -10248      23
   10200   10206  -10215  -10233      23   10197   10227  -10212  -10230      23
   10191   10215  -10206  -10221      23   10179   10200  -10188  -10203      23
   10482   10488  -10503  -10521      23   10470   10503  -10488  -10509      23
   10467   10503  -10482  -10506      23   10488   10455  -10470  -10491      23
   10482   10455  -10467  -10485      23   10404   10437  -10419  -10443      23
   10401   10437  -10416  -10440      23   10392   10398  -10407  -10425      23
   10389   10419  -10404  -10422      23   10383   10407  -10398  -10413      23
   10371   10392  -10380  -10395      23   10674   10680  -10695  -10713      23
   10662   10695  -10680  -10701      23   10659   10695  -10674  -10698      23
   10680   10647  -10662  -10683      23   10674   10647  -10659  -10677      23
   10596   10629  -10611  -10635      23   10593   10629  -10608  -10632      23
   10584   10590  -10599  -10617      23   10581   10611  -10596  -10614      23
   10575   10599  -10590  -10605      23   10563   10584  -10572  -10587      23
   10866   10872  -10887  -10905      23   10854   10887  -10872  -10893      23
   10851   10887  -10866  -10890      23   10872   10839  -10854  -10875      23
   10866   10839  -10851  -10869      23   10788   10821  -10803  -10827      23
   10785   10821  -10800  -10824      23   10776   10782  -10791  -10809      23
   10773   10803  -10788  -10806      23   10767   10791  -10782  -10797      23
   10755   10776  -10764  -10779      23   11058   11064  -11079  -11097      23
   11046   11079  -11064  -11085      23   11043   11079  -11058  -11082      23
   11064   11031  -11046  -11067      23   11058   11031  -11043  -11061      23
   10980   11013  -10995  -11019      23   10977   11013  -10992  -11016      23
   10968   10974  -10983  -11001      23   10965   10995  -10980  -10998      23
   10959   10983  -10974  -10989      23   10947   10968  -10956  -10971      23
   11250   11256  -11271  -11289      23   11238   11271  -11256  -11277      23
   11235   11271  -11250  -11274      23   11256   11223  -11238  -11259      23
   11250   11223  -11235  -11253      23   11172   11205  -11187  -11211      23
   11169   11205  -11184  -11208      23   11160   11166  -11175  -11193      23
   11157   11187  -11172  -11190      23   11151   11175  -11166  -11181      23
   11139   11160  -11148  -11163      23   11442   11448  -11463  -11481      23
   11430   11463  -11448  -11469      23   11427   11463  -11442  -11466      23
   11448   11415  -11430  -11451      23   11442   11415  -11427  -11445      23
   11364   11397  -11379  -11403      23   11361   11397  -11376  -11400      23
   11352   11358  -11367  -11385      23   11349   11379  -11364  -11382      23
   11343   11367  -11358  -11373      23   11331   11352  -11340  -11355      23
   11634   11640  -11655  -11673      23   11622   11655  -11640  -11661      23
   11619   11655  -11634  -11658      23   11640   11607  -11622  -11643      23
   11634   11607  -11619  -11637      23   11556   11589  -11571  -11595      23
   11553   11589  -11568  -11592      23   11544   11550  -11559  -11577      23
   11541   11571  -11556  -11574      23   11535   11559  -11550  -11565      23
   11523   11544  -11532  -11547      23   11826   11832  -11847  -11865      23
   11814   11847  -11832  -11853      23   11811   11847  -11826  -11850      23
   11832   11799  -11814  -11835      23   11826   11799  -11811  -11829      23
   11748   11781  -11763  -11787      23   11745   11781  -11760  -11784      23
   11736   11742  -11751  -11769      23   11733   11763  -11748  -11766      23
   11727   11751  -11742  -11757      23   11715   11736  -11724  -11739      23
   12018   12024  -12039  -12057      23   12006   12039  -12024  -12045      23
   12003   12039  -12018  -12042      23   12024   11991  -12006  -12027      23
   12018   11991  -12003  -12021      23   11940   11973  -11955  -11979      23
   11937   11973  -11952  -11976      23   11928   11934  -11943  -11961      23
   11925   11955  -11940  -11958      23   11919   11943  -11934  -11949      23
   11907   11928  -11916  -11931      23   12210   12216  -12231  -12249      23
   12198   12231  -12216  -12237      23   12195   12231  -12210  -12234      23
   12216   12183  -12198  -12219      23   12210   12183  -12195  -12213      23
   12132   12165  -12147  -12171      23   12129   12165  -12144  -12168      23
   12120   12126  -12135  -12153      23   12117   12147  -12132  -12150      23
   12111   12135  -12126  -12141      23   12099   12120  -12108  -12123      23
   12402   12408  -12423  -12441      23   12390   12423  -12408  -12429      23
   12387   12423  -12402  -12426      23   12408   12375  -12390  -12411      23
   12402   12375  -12387  -12405      23   12324   12357  -12339  -12363      23
   12321   12357  -12336  -12360      23   12312   12318  -12327  -12345      23
   12309   12339  -12324  -12342      23   12303   12327  -12318  -12333      23
   12291   12312  -12300  -12315      23   12594   12600  -12615  -12633      23
   12582   12615  -12600  -12621      23   12579   12615  -12594  -12618      23
   12600   12567  -12582  -12603      23   12594   12567  -12579  -12597      23
   12516   12549  -12531  -12555      23   12513   12549  -12528  -12552      23
   12504   12510  -12519  -12537      23   12501   12531  -12516  -12534      23
   12495   12519  -12510  -12525      23   12483   12504  -12492  -12507      23
   12786   12792  -12807  -12825      23   12774   12807  -12792  -12813      23
   12771   12807  -12786  -12810      23   12792   12759  -12774  -12795      23
   12786   12759  -12771  -12789      23   12708   12741  -12723  -12747      23
   12705   12741  -12720  -12744      23   12696   12702  -12711  -12729      23
   12693   12723  -12708  -12726      23   12687   12711  -12702  -12717      23
   12675   12696  -12684  -12699      23   12978   12984  -12999  -13017      23
   12966   12999  -12984  -13005      23   12963   12999  -12978  -13002      23
   12984   12951  -12966  -12987      23   12978   12951  -12963  -12981      23
   12900   12933  -12915  -12939      23   12897   12933  -12912  -12936      23
   12888   12894  -12903  -12921      23   12885   12915  -12900  -12918      23
   12879   12903  -12894  -12909      23   12867   12888  -12876  -12891      23
   13170   13176  -13191  -13209      23   13158   13191  -13176  -13197      23
   13155   13191  -13170  -13194      23   13176   13143  -13158  -13179      23
   13170   13143  -13155  -13173      23   13092   13125  -13107  -13131      23
   13089   13125  -13104  -13128      23   13080   13086  -13095  -13113      23
   13077   13107  -13092  -13110      23   13071   13095  -13086  -13101      23
   13059   13080  -13068  -13083      23   13362   13368  -13383  -13401      23
   13350   13383  -13368  -13389      23   13347   13383  -13362  -13386      23
   13368   13335  -13350  -13371      23   13362   13335  -13347  -13365      23
   13284   13317  -13299  -13323      23   13281   13317  -13296  -13320      23
   13272   13278  -13287  -13305      23   13269   13299  -13284  -13302      23
   13263   13287  -13278  -13293      23   13251   13272  -13260  -13275      23
   13554   13560  -13575  -13593      23   13542   13575  -13560  -13581      23
   13539   13575  -13554  -13578      23   13560   13527  -13542  -13563      23
   13554   13527  -13539  -13557      23   13476   13509  -13491  -13515      23
   13473   13509  -13488  -13512      23   13464   13470  -13479  -13497      23
   13461   13491  -13476  -13494      23   13455   13479  -13470  -13485      23
   13443   13464  -13452  -13467      23   13746   13752  -13767  -13785      23
   13734   13767  -13752  -13773      23   13731   13767  -13746  -13770      23
   13752   13719  -13734  -13755      23   13746   13719  -13731  -13749      23
   13668   13701  -13683  -13707      23   13665   13701  -13680  -13704      23
   13656   13662  -13671  -13689      23   13653   13683  -13668  -13686      23
   13647   13671  -13662  -13677      23   13635   13656  -13644  -13659      23
   13938   13944  -13959  -13977      23   13926   13959  -13944  -13965      23
   13923   13959  -13938  -13962      23   13944   13911  -13926  -13947      23
   13938   13911  -13923  -13941      23   13860   13893  -13875  -13899      23
   13857   13893  -13872  -13896      23   13848   13854  -13863  -13881      23
   13845   13875  -13860  -13878      23   13839   13863  -13854  -13869      23
   13827   13848  -13836  -13851      23   14130   14136  -14151  -14169      23
   14118   14151  -14136  -14157      23   14115   14151  -14130  -14154      23
   14136   14103  -14118  -14139      23   14130   14103  -14115  -14133      23
   14052   14085  -14067  -14091      23   14049   14085  -14064  -14088      23
   14040   14046  -14055  -14073      23   14037   14067  -14052  -14070      23
   14031   14055  -14046  -14061      23   14019   14040  -14028  -14043      23
   14322   14328  -14343  -14361      23   14310   14343  -14328  -14349      23
   14307   14343  -14322  -14346      23   14328   14295  -14310  -14331      23
   14322   14295  -14307  -14325      23   14244   14277  -14259  -14283      23
   14241   14277  -14256  -14280      23   14232   14238  -14247  -14265      23
   14229   14259  -14244  -14262      23   14223   14247  -14238  -14253      23
   14211   14232  -14220  -14235      23   14514   14520  -14535  -14553      23
   14502   14535  -14520  -14541      23   14499   14535  -14514  -14538      23
   14520   14487  -14502  -14523      23   14514   14487  -14499  -14517      23
   14436   14469  -14451  -14475      23   14433   14469  -14448  -14472      23
   14424   14430  -14439  -14457      23   14421   14451  -14436  -14454      23
   14415   14439  -14430  -14445      23   14403   14424  -14412  -14427      23
   14706   14712  -14727  -14745      23   14694   14727  -14712  -14733      23
   14691   14727  -14706  -14730      23   14712   14679  -14694  -14715      23
   14706   14679  -14691  -14709      23   14628   14661  -14643  -14667      23
   14625   14661  -14640  -14664      23   14616   14622  -14631  -14649      23
   14613   14643  -14628  -14646      23   14607   14631  -14622  -14637      23
   14595   14616  -14604  -14619      23   14898   14904  -14919  -14937      23
   14886   14919  -14904  -14925      23   14883   14919  -14898  -14922      23
   14904   14871  -14886  -14907      23   14898   14871  -14883  -14901      23
   14820   14853  -14835  -14859      23   14817   14853  -14832  -14856      23
   14808   14814  -14823  -14841      23   14805   14835  -14820  -14838      23
   14799   14823  -14814  -14829      23   14787   14808  -14796  -14811      23
   15090   15096  -15111  -15129      23   15078   15111  -15096  -15117      23
   15075   15111  -15090  -15114      23   15096   15063  -15078  -15099      23
   15090   15063  -15075  -15093      23   15012   15045  -15027  -15051      23
   15009   15045  -15024  -15048      23   15000   15006  -15015  -15033      23
   14997   15027  -15012  -15030      23   14991   15015  -15006  -15021      23
   14979   15000  -14988  -15003      23   15282   15288  -15303  -15321      23
   15270   15303  -15288  -15309      23   15267   15303  -15282  -15306      23
   15288   15255  -15270  -15291      23   15282   15255  -15267  -15285      23
   15204   15237  -15219  -15243      23   15201   15237  -15216  -15240      23
   15192   15198  -15207  -15225      23   15189   15219  -15204  -15222      23
   15183   15207  -15198  -15213      23   15171   15192  -15180  -15195      23
   15474   15480  -15495  -15513      23   15462   15495  -15480  -15501      23
   15459   15495  -15474  -15498      23   15480   15447  -15462  -15483      23
   15474   15447  -15459  -15477      23   15396   15429  -15411  -15435      23
   15393   15429  -15408  -15432      23   15384   15390  -15399  -15417      23
   15381   15411  -15396  -15414      23   15375   15399  -15390  -15405      23
   15363   15384  -15372  -15387      23   15666   15672  -15687  -15705      23
   15654   15687  -15672  -15693      23   15651   15687  -15666  -15690      23
   15672   15639  -15654  -15675      23   15666   15639  -15651  -15669      23
   15588   15621  -15603  -15627      23   15585   15621  -15600  -15624      23
   15576   15582  -15591  -15609      23   15573   15603  -15588  -15606      23
   15567   15591  -15582  -15597      23   15555   15576  -15564  -15579      23
   15858   15864  -15879  -15897      23   15846   15879  -15864  -15885      23
   15843   15879  -15858  -15882      23   15864   15831  -15846  -15867      23
   15858   15831  -15843  -15861      23   15780   15813  -15795  -15819      23
   15777   15813  -15792  -15816      23   15768   15774  -15783  -15801      23
   15765   15795  -15780  -15798      23   15759   15783  -15774  -15789      23
   15747   15768  -15756  -15771      23   16050   16056  -16071  -16089      23
   16038   16071  -16056  -16077      23   16035   16071  -16050  -16074      23
   16056   16023  -16038  -16059      23   16050   16023  -16035  -16053      23
   15972   16005  -15987  -16011      23   15969   16005  -15984  -16008      23
   15960   15966  -15975  -15993      23   15957   15987  -15972  -15990      23
   15951   15975  -15966  -15981      23   15939   15960  -15948  -15963      23
   16242   16248  -16263  -16281      23   16230   16263  -16248  -16269      23
   16227   16263  -16242  -16266      23   16248   16215  -16230  -16251      23
   16242   16215  -16227  -16245      23   16164   16197  -16179  -16203      23
   16161   16197  -16176  -16200      23   16152   16158  -16167  -16185      23
   16149   16179  -16164  -16182      23   16143   16167  -16158  -16173      23
   16131   16152  -16140  -16155      23   16434   16440  -16455  -16473      23
   16422   16455  -16440  -16461      23   16419   16455  -16434  -16458      23
   16440   16407  -16422  -16443      23   16434   16407  -16419  -16437      23
   16356   16389  -16371  -16395      23   16353   16389  -16368  -16392      23
   16344   16350  -16359  -16377      23   16341   16371  -16356  -16374      23
   16335   16359  -16350  -16365      23   16323   16344  -16332  -16347      23
   16626   16632  -16647  -16665      23   16614   16647  -16632  -16653      23
   16611   16647  -16626  -16650      23   16632   16599  -16614  -16635      23
   16626   16599  -16611  -16629      23   16548   16581  -16563  -16587      23
   16545   16581  -16560  -16584      23   16536   16542  -16551  -16569      23
   16533   16563  -16548  -16566      23   16527   16551  -16542  -16557      23
   16515   16536  -16524  -16539      23   16818   16824  -16839  -16857      23
   16806   16839  -16824  -16845      23   16803   16839  -16818  -16842      23
   16824   16791  -16806  -16827      23   16818   16791  -16803  -16821      23
   16740   16773  -16755  -16779      23   16737   16773  -16752  -16776      23
   16728   16734  -16743  -16761      23   16725   16755  -16740  -16758      23
   16719   16743  -16734  -16749      23   16707   16728  -16716  -16731      23
   17010   17016  -17031  -17049      23   16998   17031  -17016  -17037      23
   16995   17031  -17010  -17034      23   17016   16983  -16998  -17019      23
   17010   16983  -16995  -17013      23   16932   16965  -16947  -16971      23
   16929   16965  -16944  -16968      23   16920   16926  -16935  -16953      23
   16917   16947  -16932  -16950      23   16911   16935  -16926  -16941      23
   16899   16920  -16908  -16923      23   17202   17208  -17223  -17241      23
   17190   17223  -17208  -17229      23   17187   17223  -17202  -17226      23
   17208   17175  -17190  -17211      23   17202   17175  -17187  -17205      23
   17124   17157  -17139  -17163      23   17121   17157  -17136  -17160      23
   17112   17118  -17127  -17145      23   17109   17139  -17124  -17142      23
   17103   17127  -17118  -17133      23   17091   17112  -17100  -17115      23
   17394   17400  -17415  -17433      23   17382   17415  -17400  -17421      23
   17379   17415  -17394  -17418      23   17400   17367  -17382  -17403      23
   17394   17367  -17379  -17397      23   17316   17349  -17331  -17355      23
   17313   17349  -17328  -17352      23   17304   17310  -17319  -17337      23
   17301   17331  -17316  -17334      23   17295   17319  -17310  -17325      23
   17283   17304  -17292  -17307      23   17586   17592  -17607  -17625      23
   17574   17607  -17592  -17613      23   17571   17607  -17586  -17610      23
   17592   17559  -17574  -17595      23   17586   17559  -17571  -17589      23
   17508   17541  -17523  -17547      23   17505   17541  -17520  -17544      23
   17496   17502  -17511  -17529      23   17493   17523  -17508  -17526      23
   17487   17511  -17502  -17517      23   17475   17496  -17484  -17499      23
   17778   17784  -17799  -17817      23   17766   17799  -17784  -17805      23
   17763   17799  -17778  -17802      23   17784   17751  -17766  -17787      23
   17778   17751  -17763  -17781      23   17700   17733  -17715  -17739      23
   17697   17733  -17712  -17736      23   17688   17694  -17703  -17721      23
   17685   17715  -17700  -17718      23   17679   17703  -17694  -17709      23
   17667   17688  -17676  -17691      23   17970   17976  -17991  -18009      23
   17958   17991  -17976  -17997      23   17955   17991  -17970  -17994      23
   17976   17943  -17958  -17979      23   17970   17943  -17955  -17973      23
   17892   17925  -17907  -17931      23   17889   17925  -17904  -17928      23
   17880   17886  -17895  -17913      23   17877   17907  -17892  -17910      23
   17871   17895  -17886  -17901      23   17859   17880  -17868  -17883      23
   18162   18168  -18183  -18201      23   18150   18183  -18168  -18189      23
   18147   18183  -18162  -18186      23   18168   18135  -18150  -18171      23
   18162   18135  -18147  -18165      23   18084   18117  -18099  -18123      23
   18081   18117  -18096  -18120      23   18072   18078  -18087  -18105      23
   18069   18099  -18084  -18102      23   18063   18087  -18078  -18093      23
   18051   18072  -18060  -18075      23   18354   18360  -18375  -18393      23
   18342   18375  -18360  -18381      23   18339   18375  -18354  -18378      23
   18360   18327  -18342  -18363      23   18354   18327  -18339  -18357      23
   18276   18309  -18291  -18315      23   18273   18309  -18288  -18312      23
   18264   18270  -18279  -18297      23   18261   18291  -18276  -18294      23
   18255   18279  -18270  -18285      23   18243   18264  -18252  -18267      23
   18546   18552  -18567  -18585      23   18534   18567  -18552  -18573      23
   18531   18567  -18546  -18570      23   18552   18519  -18534  -18555      23
   18546   18519  -18531  -18549      23   18468   18501  -18483  -18507      23
   18465   18501  -18480  -18504      23   18456   18462  -18471  -18489      23
   18453   18483  -18468  -18486      23   18447   18471  -18462  -18477      23
   18435   18456  -18444  -18459      23   18738   18744  -18759  -18777      23
   18726   18759  -18744  -18765      23   18723   18759  -18738  -18762      23
   18744   18711  -18726  -18747      23   18738   18711  -18723  -18741      23
   18660   18693  -18675  -18699      23   18657   18693  -18672  -18696      23
   18648   18654  -18663  -18681      23   18645   18675  -18660  -18678      23
   18639   18663  -18654  -18669      23   18627   18648  -18636  -18651      23
   18930   18936  -18951  -18969      23   18918   18951  -18936  -18957      23
   18915   18951  -18930  -18954      23   18936   18903  -18918  -18939      23
   18930   18903  -18915  -18933      23   18852   18885  -18867  -18891      23
   18849   18885  -18864  -18888      23   18840   18846  -18855  -18873      23
   18837   18867  -18852  -18870      23   18831   18855  -18846  -18861      23
   18819   18840  -18828  -18843      23   19122   19128  -19143  -19161      23
   19110   19143  -19128  -19149      23   19107   19143  -19122  -19146      23
   19128   19095  -19110  -19131      23   19122   19095  -19107  -19125      23
   19044   19077  -19059  -19083      23   19041   19077  -19056  -19080      23
   19032   19038  -19047  -19065      23   19029   19059  -19044  -19062      23
   19023   19047  -19038  -19053      23   19011   19032  -19020  -19035      23
   19314   19320  -19335  -19353      23   19302   19335  -19320  -19341      23
   19299   19335  -19314  -19338      23   19320   19287  -19302  -19323      23
   19314   19287  -19299  -19317      23   19236   19269  -19251  -19275      23
   19233   19269  -19248  -19272      23   19224   19230  -19239  -19257      23
   19221   19251  -19236  -19254      23   19215   19239  -19230  -19245      23
   19203   19224  -19212  -19227      23   19506   19512  -19527  -19545      23
   19494   19527  -19512  -19533      23   19491   19527  -19506  -19530      23
   19512   19479  -19494  -19515      23   19506   19479  -19491  -19509      23
   19428   19461  -19443  -19467      23   19425   19461  -19440  -19464      23
   19416   19422  -19431  -19449      23   19413   19443  -19428  -19446      23
   19407   19431  -19422  -19437      23   19395   19416  -19404  -19419      23
   19698   19704  -19719  -19737      23   19686   19719  -19704  -19725      23
   19683   19719  -19698  -19722      23   19704   19671  -19686  -19707      23
   19698   19671  -19683  -19701      23   19620   19653  -19635  -19659      23
   19617   19653  -19632  -19656      23   19608   19614  -19623  -19641      23
   19605   19635  -19620  -19638      23   19599   19623  -19614  -19629      23
   19587   19608  -19596  -19611      23   19890   19896  -19911  -19929      23
   19878   19911  -19896  -19917      23   19875   19911  -19890  -19914      23
   19896   19863  -19878  -19899      23   19890   19863  -19875  -19893      23
   19812   19845  -19827  -19851      23   19809   19845  -19824  -19848      23
   19800   19806  -19815  -19833      23   19797   19827  -19812  -19830      23
   19791   19815  -19806  -19821      23   19779   19800  -19788  -19803      23
   20082   20088  -20103  -20121      23   20070   20103  -20088  -20109      23
   20067   20103  -20082  -20106      23   20088   20055  -20070  -20091      23
   20082   20055  -20067  -20085      23   20004   20037  -20019  -20043      23
   20001   20037  -20016  -20040      23   19992   19998  -20007  -20025      23
   19989   20019  -20004  -20022      23   19983   20007  -19998  -20013      23
   19971   19992  -19980  -19995      23   20274   20280  -20295  -20313      23
   20262   20295  -20280  -20301      23   20259   20295  -20274  -20298      23
   20280   20247  -20262  -20283      23   20274   20247  -20259  -20277      23
   20196   20229  -20211  -20235      23   20193   20229  -20208  -20232      23
   20184   20190  -20199  -20217      23   20181   20211  -20196  -20214      23
   20175   20199  -20190  -20205      23   20163   20184  -20172  -20187      23
   20466   20472  -20487  -20505      23   20454   20487  -20472  -20493      23
   20451   20487  -20466  -20490      23   20472   20439  -20454  -20475      23
   20466   20439  -20451  -20469      23   20388   20421  -20403  -20427      23
   20385   20421  -20400  -20424      23   20376   20382  -20391  -20409      23
   20373   20403  -20388  -20406      23   20367   20391  -20382  -20397      23
   20355   20376  -20364  -20379      23   20658   20664  -20679  -20697      23
   20646   20679  -20664  -20685      23   20643   20679  -20658  -20682      23
   20664   20631  -20646  -20667      23   20658   20631  -20643  -20661      23
   20580   20613  -20595  -20619      23   20577   20613  -20592  -20616      23
   20568   20574  -20583  -20601      23   20565   20595  -20580  -20598      23
   20559   20583  -20574  -20589      23   20547   20568  -20556  -20571      23
   20850   20856  -20871  -20889      23   20838   20871  -20856  -20877      23
   20835   20871  -20850  -20874      23   20856   20823  -20838  -20859      23
   20850   20823  -20835  -20853      23   20772   20805  -20787  -20811      23
   20769   20805  -20784  -20808      23   20760   20766  -20775  -20793      23
   20757   20787  -20772  -20790      23   20751   20775  -20766  -20781      23
   20739   20760  -20748  -20763      23   21042   21048  -21063  -21081      23
   21030   21063  -21048  -21069      23   21027   21063  -21042  -21066      23
   21048   21015  -21030  -21051      23   21042   21015  -21027  -21045      23
   20964   20997  -20979  -21003      23   20961   20997  -20976  -21000      23
   20952   20958  -20967  -20985      23   20949   20979  -20964  -20982      23
   20943   20967  -20958  -20973      23   20931   20952  -20940  -20955      23
   21234   21240  -21255  -21273      23   21222   21255  -21240  -21261      23
   21219   21255  -21234  -21258      23   21240   21207  -21222  -21243      23
   21234   21207  -21219  -21237      23   21156   21189  -21171  -21195      23
   21153   21189  -21168  -21192      23   21144   21150  -21159  -21177      23
   21141   21171  -21156  -21174      23   21135   21159  -21150  -21165      23
   21123   21144  -21132  -21147      23   21426   21432  -21447  -21465      23
   21414   21447  -21432  -21453      23   21411   21447  -21426  -21450      23
   21432   21399  -21414  -21435      23   21426   21399  -21411  -21429      23
   21348   21381  -21363  -21387      23   21345   21381  -21360  -21384      23
   21336   21342  -21351  -21369      23   21333   21363  -21348  -21366      23
   21327   21351  -21342  -21357      23   21315   21336  -21324  -21339      23
   21618   21624  -21639  -21657      23   21606   21639  -21624  -21645      23
   21603   21639  -21618  -21642      23   21624   21591  -21606  -21627      23
   21618   21591  -21603  -21621      23   21540   21573  -21555  -21579      23
   21537   21573  -21552  -21576      23   21528   21534  -21543  -21561      23
   21525   21555  -21540  -21558      23   21519   21543  -21534  -21549      23
   21507   21528  -21516  -21531      23   21810   21816  -21831  -21849      23
   21798   21831  -21816  -21837      23   21795   21831  -21810  -21834      23
   21816   21783  -21798  -21819      23   21810   21783  -21795  -21813      23
   21732   21765  -21747  -21771      23   21729   21765  -21744  -21768      23
   21720   21726  -21735  -21753      23   21717   21747  -21732  -21750      23
   21711   21735  -21726  -21741      23   21699   21720  -21708  -21723      23
   22002   22008  -22023  -22041      23   21990   22023  -22008  -22029      23
   21987   22023  -22002  -22026      23   22008   21975  -21990  -22011      23
   22002   21975  -21987  -22005      23   21924   21957  -21939  -21963      23
   21921   21957  -21936  -21960      23   21912   21918  -21927  -21945      23
   21909   21939  -21924  -21942      23   21903   21927  -21918  -21933      23
   21891   21912  -21900  -21915      23   22194   22200  -22215  -22233      23
   22182   22215  -22200  -22221      23   22179   22215  -22194  -22218      23
   22200   22167  -22182  -22203      23   22194   22167  -22179  -22197      23
   22116   22149  -22131  -22155      23   22113   22149  -22128  -22152      23
   22104   22110  -22119  -22137      23   22101   22131  -22116  -22134      23
   22095   22119  -22110  -22125      23   22083   22104  -22092  -22107      23
   22386   22392  -22407  -22425      23   22374   22407  -22392  -22413      23
   22371   22407  -22386  -22410      23   22392   22359  -22374  -22395      23
   22386   22359  -22371  -22389      23   22308   22341  -22323  -22347      23
   22305   22341  -22320  -22344      23   22296   22302  -22311  -22329      23
   22293   22323  -22308  -22326      23   22287   22311  -22302  -22317      23
   22275   22296  -22284  -22299      23   22578   22584  -22599  -22617      23
   22566   22599  -22584  -22605      23   22563   22599  -22578  -22602      23
   22584   22551  -22566  -22587      23   22578   22551  -22563  -22581      23
   22500   22533  -22515  -22539      23   22497   22533  -22512  -22536      23
   22488   22494  -22503  -22521      23   22485   22515  -22500  -22518      23
   22479   22503  -22494  -22509      23   22467   22488  -22476  -22491      23
   22770   22776  -22791  -22809      23   22758   22791  -22776  -22797      23
   22755   22791  -22770  -22794      23   22776   22743  -22758  -22779      23
   22770   22743  -22755  -22773      23   22692   22725  -22707  -22731      23
   22689   22725  -22704  -22728      23   22680   22686  -22695  -22713      23
   22677   22707  -22692  -22710      23   22671   22695  -22686  -22701      23
   22659   22680  -22668  -22683      23   22962   22968  -22983  -23001      23
   22950   22983  -22968  -22989      23   22947   22983  -22962  -22986      23
   22968   22935  -22950  -22971      23   22962   22935  -22947  -22965      23
   22884   22917  -22899  -22923      23   22881   22917  -22896  -22920      23
   22872   22878  -22887  -22905      23   22869   22899  -22884  -22902      23
   22863   22887  -22878  -22893      23   22851   22872  -22860  -22875      23
   23154   23160  -23175  -23193      23   23142   23175  -23160  -23181      23
   23139   23175  -23154  -23178      23   23160   23127  -23142  -23163      23
   23154   23127  -23139  -23157      23   23076   23109  -23091  -23115      23
   23073   23109  -23088  -23112      23   23064   23070  -23079  -23097      23
   23061   23091  -23076  -23094      23   23055   23079  -23070  -23085      23
   23043   23064  -23052  -23067      23   23346   23352  -23367  -23385      23
   23334   23367  -23352  -23373      23   23331   23367  -23346  -23370      23
   23352   23319  -23334  -23355      23   23346   23319  -23331  -23349      23
   23268   23301  -23283  -23307      23   23265   23301  -23280  -23304      23
   23256   23262  -23271  -23289      23   23253   23283  -23268  -23286      23
   23247   23271  -23262  -23277      23   23235   23256  -23244  -23259      23
   23538   23544  -23559  -23577      23   23526   23559  -23544  -23565      23
   23523   23559  -23538  -23562      23   23544   23511  -23526  -23547      23
   23538   23511  -23523  -23541      23   23460   23493  -23475  -23499      23
   23457   23493  -23472  -23496      23   23448   23454  -23463  -23481      23
   23445   23475  -23460  -23478      23   23439   23463  -23454  -23469      23
   23427   23448  -23436  -23451      23   23730   23736  -23751  -23769      23
   23718   23751  -23736  -23757      23   23715   23751  -23730  -23754      23
   23736   23703  -23718  -23739      23   23730   23703  -23715  -23733      23
   23652   23685  -23667  -23691      23   23649   23685  -23664  -23688      23
   23640   23646  -23655  -23673      23   23637   23667  -23652  -23670      23
   23631   23655  -23646  -23661      23   23619   23640  -23628  -23643      23
   23922   23928  -23943  -23961      23   23910   23943  -23928  -23949      23
   23907   23943  -23922  -23946      23   23928   23895  -23910  -23931      23
   23922   23895  -23907  -23925      23   23844   23877  -23859  -23883      23
   23841   23877  -23856  -23880      23   23832   23838  -23847  -23865      23
   23829   23859  -23844  -23862      23   23823   23847  -23838  -23853      23
   23811   23832  -23820  -23835      23   24114   24120  -24135  -24153      23
   24102   24135  -24120  -24141      23   24099   24135  -24114  -24138      23
   24120   24087  -24102  -24123      23   24114   24087  -24099  -24117      23
   24036   24069  -24051  -24075      23   24033   24069  -24048  -24072      23
   24024   24030  -24039  -24057      23   24021   24051  -24036  -24054      23
   24015   24039  -24030  -24045      23   24003   24024  -24012  -24027      23
   24306   24312  -24327  -24345      23   24294   24327  -24312  -24333      23
   24291   24327  -24306  -24330      23   24312   24279  -24294  -24315      23
   24306   24279  -24291  -24309      23   24228   24261  -24243  -24267      23
   24225   24261  -24240  -24264      23   24216   24222  -24231  -24249      23
   24213   24243  -24228  -24246      23   24207   24231  -24222  -24237      23
   24195   24216  -24204  -24219      23   24498   24504  -24519  -24537      23
   24486   24519  -24504  -24525      23   24483   24519  -24498  -24522      23
   24504   24471  -24486  -24507      23   24498   24471  -24483  -24501      23
   24420   24453  -24435  -24459      23   24417   24453  -24432  -24456      23
   24408   24414  -24423  -24441      23   24405   24435  -24420  -24438      23
   24399   24423  -24414  -24429      23   24387   24408  -24396  -24411      23
   24690   24696  -24711  -24729      23   24678   24711  -24696  -24717      23
   24675   24711  -24690  -24714      23   24696   24663  -24678  -24699      23
   24690   24663  -24675  -24693      23   24612   24645  -24627  -24651      23
   24609   24645  -24624  -24648      23   24600   24606  -24615  -24633      23
   24597   24627  -24612  -24630      23   24591   24615  -24606  -24621      23
   24579   24600  -24588  -24603      23   24882   24888  -24903  -24921      23
   24870   24903  -24888  -24909      23   24867   24903  -24882  -24906      23
   24888   24855  -24870  -24891      23   24882   24855  -24867  -24885      23
   24804   24837  -24819  -24843      23   24801   24837  -24816  -24840      23
   24792   24798  -24807  -24825      23   24789   24819  -24804  -24822      23
   24783   24807  -24798  -24813      23   24771   24792  -24780  -24795      23
   25074   25080  -25095  -25113      23   25062   25095  -25080  -25101      23
   25059   25095  -25074  -25098      23   25080   25047  -25062  -25083      23
   25074   25047  -25059  -25077      23   24996   25029  -25011  -25035      23
   24993   25029  -25008  -25032      23   24984   24990  -24999  -25017      23
   24981   25011  -24996  -25014      23   24975   24999  -24990  -25005      23
   24963   24984  -24972  -24987      23   25266   25272  -25287  -25305      23
   25254   25287  -25272  -25293      23   25251   25287  -25266  -25290      23
   25272   25239  -25254  -25275      23   25266   25239  -25251  -25269      23
   25188   25221  -25203  -25227      23   25185   25221  -25200  -25224      23
   25176   25182  -25191  -25209      23   25173   25203  -25188  -25206      23
   25167   25191  -25182  -25197      23   25155   25176  -25164  -25179      23
   25458   25464  -25479  -25497      23   25446   25479  -25464  -25485      23
   25443   25479  -25458  -25482      23   25464   25431  -25446  -25467      23
   25458   25431  -25443  -25461      23   25380   25413  -25395  -25419      23
   25377   25413  -25392  -25416      23   25368   25374  -25383  -25401      23
   25365   25395  -25380  -25398      23   25359   25383  -25374  -25389      23
   25347   25368  -25356  -25371      23   25650   25656  -25671  -25689      23
   25638   25671  -25656  -25677      23   25635   25671  -25650  -25674      23
   25656   25623  -25638  -25659      23   25650   25623  -25635  -25653      23
   25572   25605  -25587  -25611      23   25569   25605  -25584  -25608      23
   25560   25566  -25575  -25593      23   25557   25587  -25572  -25590      23
   25551   25575  -25566  -25581      23   25539   25560  -25548  -25563      23
   25842   25848  -25863  -25881      23   25830   25863  -25848  -25869      23
   25827   25863  -25842  -25866      23   25848   25815  -25830  -25851      23
   25842   25815  -25827  -25845      23   25764   25797  -25779  -25803      23
   25761   25797  -25776  -25800      23   25752   25758  -25767  -25785      23
   25749   25779  -25764  -25782      23   25743   25767  -25758  -25773      23
   25731   25752  -25740  -25755      23   26034   26040  -26055  -26073      23
   26022   26055  -26040  -26061      23   26019   26055  -26034  -26058      23
   26040   26007  -26022  -26043      23   26034   26007  -26019  -26037      23
   25956   25989  -25971  -25995      23   25953   25989  -25968  -25992      23
   25944   25950  -25959  -25977      23   25941   25971  -25956  -25974      23
   25935   25959  -25950  -25965      23   25923   25944  -25932  -25947      23
   26226   26232  -26247  -26265      23   26214   26247  -26232  -26253      23
   26211   26247  -26226  -26250      23   26232   26199  -26214  -26235      23
   26226   26199  -26211  -26229      23   26148   26181  -26163  -26187      23
   26145   26181  -26160  -26184      23   26136   26142  -26151  -26169      23
   26133   26163  -26148  -26166      23   26127   26151  -26142  -26157      23
   26115   26136  -26124  -26139      23   26418   26424  -26439  -26457      23
   26406   26439  -26424  -26445      23   26403   26439  -26418  -26442      23
   26424   26391  -26406  -26427      23   26418   26391  -26403  -26421      23
   26340   26373  -26355  -26379      23   26337   26373  -26352  -26376      23
   26328   26334  -26343  -26361      23   26325   26355  -26340  -26358      23
   26319   26343  -26334  -26349      23   26307   26328  -26316  -26331      23
   26610   26616  -26631  -26649      23   26598   26631  -26616  -26637      23
   26595   26631  -26610  -26634      23   26616   26583  -26598  -26619      23
   26610   26583  -26595  -26613      23   26532   26565  -26547  -26571      23
   26529   26565  -26544  -26568      23   26520   26526  -26535  -26553      23
   26517   26547  -26532  -26550      23   26511   26535  -26526  -26541      23
   26499   26520  -26508  -26523      23   26802   26808  -26823  -26841      23
   26790   26823  -26808  -26829      23   26787   26823  -26802  -26826      23
   26808   26775  -26790  -26811      23   26802   26775  -26787  -26805      23
   26724   26757  -26739  -26763      23   26721   26757  -26736  -26760      23
   26712   26718  -26727  -26745      23   26709   26739  -26724  -26742      23
   26703   26727  -26718  -26733      23   26691   26712  -26700  -26715      23
   26994   27000  -27015  -27033      23   26982   27015  -27000  -27021      23
   26979   27015  -26994  -27018      23   27000   26967  -26982  -27003      23
   26994   26967  -26979  -26997      23   26916   26949  -26931  -26955      23
   26913   26949  -26928  -26952      23   26904   26910  -26919  -26937      23
   26901   26931  -26916  -26934      23   26895   26919  -26910  -26925      23
   26883   26904  -26892  -26907      23   27186   27192  -27207  -27225      23
   27174   27207  -27192  -27213      23   27171   27207  -27186  -27210      23
   27192   27159  -27174  -27195      23   27186   27159  -27171  -27189      23
   27108   27141  -27123  -27147      23   27105   27141  -27120  -27144      23
   27096   27102  -27111  -27129      23   27093   27123  -27108  -27126      23
   27087   27111  -27102  -27117      23   27075   27096  -27084  -27099      23
   27378   27384  -27399  -27417      23   27366   27399  -27384  -27405      23
   27363   27399  -27378  -27402      23   27384   27351  -27366  -27387      23
   27378   27351  -27363  -27381      23   27300   27333  -27315  -27339      23
   27297   27333  -27312  -27336      23   27288   27294  -27303  -27321      23
   27285   27315  -27300  -27318      23   27279   27303  -27294  -27309      23
   27267   27288  -27276  -27291      23   27570   27576  -27591  -27609      23
   27558   27591  -27576  -27597      23   27555   27591  -27570  -27594      23
   27576   27543  -27558  -27579      23   27570   27543  -27555  -27573      23
   27492   27525  -27507  -27531      23   27489   27525  -27504  -27528      23
   27480   27486  -27495  -27513      23   27477   27507  -27492  -27510      23
   27471   27495  -27486  -27501      23   27459   27480  -27468  -27483      23
   27762   27768  -27783  -27801      23   27750   27783  -27768  -27789      23
   27747   27783  -27762  -27786      23   27768   27735  -27750  -27771      23
   27762   27735  -27747  -27765      23   27684   27717  -27699  -27723      23
   27681   27717  -27696  -27720      23   27672   27678  -27687  -27705      23
   27669   27699  -27684  -27702      23   27663   27687  -27678  -27693      23
   27651   27672  -27660  -27675      23   27954   27960  -27975  -27993      23
   27942   27975  -27960  -27981      23   27939   27975  -27954  -27978      23
   27960   27927  -27942  -27963      23   27954   27927  -27939  -27957      23
   27876   27909  -27891  -27915      23   27873   27909  -27888  -27912      23
   27864   27870  -27879  -27897      23   27861   27891  -27876  -27894      23
   27855   27879  -27870  -27885      23   27843   27864  -27852  -27867      23
   28146   28152  -28167  -28185      23   28134   28167  -28152  -28173      23
   28131   28167  -28146  -28170      23   28152   28119  -28134  -28155      23
   28146   28119  -28131  -28149      23   28068   28101  -28083  -28107      23
   28065   28101  -28080  -28104      23   28056   28062  -28071  -28089      23
   28053   28083  -28068  -28086      23   28047   28071  -28062  -28077      23
   28035   28056  -28044  -28059      23   28338   28344  -28359  -28377      23
   28326   28359  -28344  -28365      23   28323   28359  -28338  -28362      23
   28344   28311  -28326  -28347      23   28338   28311  -28323  -28341      23
   28260   28293  -28275  -28299      23   28257   28293  -28272  -28296      23
   28248   28254  -28263  -28281      23   28245   28275  -28260  -28278      23
   28239   28263  -28254  -28269      23   28227   28248  -28236  -28251      23
   28530   28536  -28551  -28569      23   28518   28551  -28536  -28557      23
   28515   28551  -28530  -28554      23   28536   28503  -28518  -28539      23
   28530   28503  -28515  -28533      23   28452   28485  -28467  -28491      23
   28449   28485  -28464  -28488      23   28440   28446  -28455  -28473      23
   28437   28467  -28452  -28470      23   28431   28455  -28446  -28461      23
   28419   28440  -28428  -28443      23   28722   28728  -28743  -28761      23
   28710   28743  -28728  -28749      23   28707   28743  -28722  -28746      23
   28728   28695  -28710  -28731      23   28722   28695  -28707  -28725      23
   28644   28677  -28659  -28683      23   28641   28677  -28656  -28680      23
   28632   28638  -28647  -28665      23   28629   28659  -28644  -28662      23
   28623   28647  -28638  -28653      23   28611   28632  -28620  -28635      23
   28914   28920  -28935  -28953      23   28902   28935  -28920  -28941      23
   28899   28935  -28914  -28938      23   28920   28887  -28902  -28923      23
   28914   28887  -28899  -28917      23   28836   28869  -28851  -28875      23
   28833   28869  -28848  -28872      23   28824   28830  -28839  -28857      23
   28821   28851  -28836  -28854      23   28815   28839  -28830  -28845      23
   28803   28824  -28812  -28827      23   29106   29112  -29127  -29145      23
   29094   29127  -29112  -29133      23   29091   29127  -29106  -29130      23
   29112   29079  -29094  -29115      23   29106   29079  -29091  -29109      23
   29028   29061  -29043  -29067      23   29025   29061  -29040  -29064      23
   29016   29022  -29031  -29049      23   29013   29043  -29028  -29046      23
   29007   29031  -29022  -29037      23   28995   29016  -29004  -29019      23
   29298   29304  -29319  -29337      23   29286   29319  -29304  -29325      23
   29283   29319  -29298  -29322      23   29304   29271  -29286  -29307      23
   29298   29271  -29283  -29301      23   29220   29253  -29235  -29259      23
   29217   29253  -29232  -29256      23   29208   29214  -29223  -29241      23
   29205   29235  -29220  -29238      23   29199   29223  -29214  -29229      23
   29187   29208  -29196  -29211      23   29490   29496  -29511  -29529      23
   29478   29511  -29496  -29517      23   29475   29511  -29490  -29514      23
   29496   29463  -29478  -29499      23   29490   29463  -29475  -29493      23
   29412   29445  -29427  -29451      23   29409   29445  -29424  -29448      23
   29400   29406  -29415  -29433      23   29397   29427  -29412  -29430      23
   29391   29415  -29406  -29421      23   29379   29400  -29388  -29403      23
   29682   29688  -29703  -29721      23   29670   29703  -29688  -29709      23
   29667   29703  -29682  -29706      23   29688   29655  -29670  -29691      23
   29682   29655  -29667  -29685      23   29604   29637  -29619  -29643      23
   29601   29637  -29616  -29640      23   29592   29598  -29607  -29625      23
   29589   29619  -29604  -29622      23   29583   29607  -29598  -29613      23
   29571   29592  -29580  -29595      23   29874   29880  -29895  -29913      23
   29862   29895  -29880  -29901      23   29859   29895  -29874  -29898      23
   29880   29847  -29862  -29883      23   29874   29847  -29859  -29877      23
   29796   29829  -29811  -29835      23   29793   29829  -29808  -29832      23
   29784   29790  -29799  -29817      23   29781   29811  -29796  -29814      23
   29775   29799  -29790  -29805      23   29763   29784  -29772  -29787      23
   30066   30072  -30087  -30105      23   30054   30087  -30072  -30093      23
   30051   30087  -30066  -30090      23   30072   30039  -30054  -30075      23
   30066   30039  -30051  -30069      23   29988   30021  -30003  -30027      23
   29985   30021  -30000  -30024      23   29976   29982  -29991  -30009      23
   29973   30003  -29988  -30006      23   29967   29991  -29982  -29997      23
   29955   29976  -29964  -29979      23   30258   30264  -30279  -30297      23
   30246   30279  -30264  -30285      23   30243   30279  -30258  -30282      23
   30264   30231  -30246  -30267      23   30258   30231  -30243  -30261      23
   30180   30213  -30195  -30219      23   30177   30213  -30192  -30216      23
   30168   30174  -30183  -30201      23   30165   30195  -30180  -30198      23
   30159   30183  -30174  -30189      23   30147   30168  -30156  -30171      23
   30450   30456  -30471  -30489      23   30438   30471  -30456  -30477      23
   30435   30471  -30450  -30474      23   30456   30423  -30438  -30459      23
   30450   30423  -30435  -30453      23   30372   30405  -30387  -30411      23
   30369   30405  -30384  -30408      23   30360   30366  -30375  -30393      23
   30357   30387  -30372  -30390      23   30351   30375  -30366  -30381      23
   30339   30360  -30348  -30363      23   30642   30648  -30663  -30681      23
   30630   30663  -30648  -30669      23   30627   30663  -30642  -30666      23
   30648   30615  -30630  -30651      23   30642   30615  -30627  -30645      23
   30564   30597  -30579  -30603      23   30561   30597  -30576  -30600      23
   30552   30558  -30567  -30585      23   30549   30579  -30564  -30582      23
   30543   30567  -30558  -30573      23   30531   30552  -30540  -30555      23
   30834   30840  -30855  -30873      23   30822   30855  -30840  -30861      23
   30819   30855  -30834  -30858      23   30840   30807  -30822  -30843      23
   30834   30807  -30819  -30837      23   30756   30789  -30771  -30795      23
   30753   30789  -30768  -30792      23   30744   30750  -30759  -30777      23
   30741   30771  -30756  -30774      23   30735   30759  -30750  -30765      23
   30723   30744  -30732  -30747      23   31026   31032  -31047  -31065      23
   31014   31047  -31032  -31053      23   31011   31047  -31026  -31050      23
   31032   30999  -31014  -31035      23   31026   30999  -31011  -31029      23
   30948   30981  -30963  -30987      23   30945   30981  -30960  -30984      23
   30936   30942  -30951  -30969      23   30933   30963  -30948  -30966      23
   30927   30951  -30942  -30957      23   30915   30936  -30924  -30939      23
   31218   31224  -31239  -31257      23   31206   31239  -31224  -31245      23
   31203   31239  -31218  -31242      23   31224   31191  -31206  -31227      23
   31218   31191  -31203  -31221      23   31140   31173  -31155  -31179      23
   31137   31173  -31152  -31176      23   31128   31134  -31143  -31161      23
   31125   31155  -31140  -31158      23   31119   31143  -31134  -31149      23
   31107   31128  -31116  -31131      23   31410   31416  -31431  -31449      23
   31398   31431  -31416  -31437      23   31395   31431  -31410  -31434      23
   31416   31383  -31398  -31419      23   31410   31383  -31395  -31413      23
   31332   31365  -31347  -31371      23   31329   31365  -31344  -31368      23
   31320   31326  -31335  -31353      23   31317   31347  -31332  -31350      23
   31311   31335  -31326  -31341      23   31299   31320  -31308  -31323      23
   31602   31608  -31623  -31641      23   31590   31623  -31608  -31629      23
   31587   31623  -31602  -31626      23   31608   31575  -31590  -31611      23
   31602   31575  -31587  -31605      23   31524   31557  -31539  -31563      23
   31521   31557  -31536  -31560      23   31512   31518  -31527  -31545      23
   31509   31539  -31524  -31542      23   31503   31527  -31518  -31533      23
   31491   31512  -31500  -31515      23   31794   31800  -31815  -31833      23
   31782   31815  -31800  -31821      23   31779   31815  -31794  -31818      23
   31800   31767  -31782  -31803      23   31794   31767  -31779  -31797      23
   31716   31749  -31731  -31755      23   31713   31749  -31728  -31752      23
   31704   31710  -31719  -31737      23   31701   31731  -31716  -31734      23
   31695   31719  -31710  -31725      23   31683   31704  -31692  -31707      23
   31986   31992  -32007  -32025      23   31974   32007  -31992  -32013      23
   31971   32007  -31986  -32010      23   31992   31959  -31974  -31995      23
   31986   31959  -31971  -31989      23   31908   31941  -31923  -31947      23
   31905   31941  -31920  -31944      23   31896   31902  -31911  -31929      23
   31893   31923  -31908  -31926      23   31887   31911  -31902  -31917      23
   31875   31896  -31884  -31899      23   32178   32184  -32199  -32217      23
   32166   32199  -32184  -32205      23   32163   32199  -32178  -32202      23
   32184   32151  -32166  -32187      23   32178   32151  -32163  -32181      23
   32100   32133  -32115  -32139      23   32097   32133  -32112  -32136      23
   32088   32094  -32103  -32121      23   32085   32115  -32100  -32118      23
   32079   32103  -32094  -32109      23   32067   32088  -32076  -32091      23
   32370   32376  -32391  -32409      23   32358   32391  -32376  -32397      23
   32355   32391  -32370  -32394      23   32376   32343  -32358  -32379      23
   32370   32343  -32355  -32373      23   32292   32325  -32307  -32331      23
   32289   32325  -32304  -32328      23   32280   32286  -32295  -32313      23
   32277   32307  -32292  -32310      23   32271   32295  -32286  -32301      23
   32259   32280  -32268  -32283      23   32562   32568  -32583  -32601      23
   32550   32583  -32568  -32589      23   32547   32583  -32562  -32586      23
   32568   32535  -32550  -32571      23   32562   32535  -32547  -32565      23
   32484   32517  -32499  -32523      23   32481   32517  -32496  -32520      23
   32472   32478  -32487  -32505      23   32469   32499  -32484  -32502      23
   32463   32487  -32478  -32493      23   32451   32472  -32460  -32475      23
   32754   32760  -32775  -32793      23   32742   32775  -32760  -32781      23
   32739   32775  -32754  -32778      23   32760   32727  -32742  -32763      23
   32754   32727  -32739  -32757      23   32676   32709  -32691  -32715      23
   32673   32709  -32688  -32712      23   32664   32670  -32679  -32697      23
   32661   32691  -32676  -32694      23   32655   32679  -32670  -32685      23
   32643   32664  -32652  -32667      23   32946   32952  -32967  -32985      23
   32934   32967  -32952  -32973      23   32931   32967  -32946  -32970      23
   32952   32919  -32934  -32955      23   32946   32919  -32931  -32949      23
   32868   32901  -32883  -32907      23   32865   32901  -32880  -32904      23
   32856   32862  -32871  -32889      23   32853   32883  -32868  -32886      23
   32847   32871  -32862  -32877      23   32835   32856  -32844  -32859      23
   33138   33144  -33159  -33177      23   33126   33159  -33144  -33165      23
   33123   33159  -33138  -33162      23   33144   33111  -33126  -33147      23
   33138   33111  -33123  -33141      23   33060   33093  -33075  -33099      23
   33057   33093  -33072  -33096      23   33048   33054  -33063  -33081      23
   33045   33075  -33060  -33078      23   33039   33063  -33054  -33069      23
   33027   33048  -33036  -33051      23   33330   33336  -33351  -33369      23
   33318   33351  -33336  -33357      23   33315   33351  -33330  -33354      23
   33336   33303  -33318  -33339      23   33330   33303  -33315  -33333      23
   33252   33285  -33267  -33291      23   33249   33285  -33264  -33288      23
   33240   33246  -33255  -33273      23   33237   33267  -33252  -33270      23
   33231   33255  -33246  -33261      23   33219   33240  -33228  -33243      23
   33522   33528  -33543  -33561      23   33510   33543  -33528  -33549      23
   33507   33543  -33522  -33546      23   33528   33495  -33510  -33531      23
   33522   33495  -33507  -33525      23   33444   33477  -33459  -33483      23
   33441   33477  -33456  -33480      23   33432   33438  -33447  -33465      23
   33429   33459  -33444  -33462      23   33423   33447  -33438  -33453      23
   33411   33432  -33420  -33435      23   33714   33720  -33735  -33753      23
   33702   33735  -33720  -33741      23   33699   33735  -33714  -33738      23
   33720   33687  -33702  -33723      23   33714   33687  -33699  -33717      23
   33636   33669  -33651  -33675      23   33633   33669  -33648  -33672      23
   33624   33630  -33639  -33657      23   33621   33651  -33636  -33654      23
   33615   33639  -33630  -33645      23   33603   33624  -33612  -33627      23
   33906   33912  -33927  -33945      23   33894   33927  -33912  -33933      23
   33891   33927  -33906  -33930      23   33912   33879  -33894  -33915      23
   33906   33879  -33891  -33909      23   33828   33861  -33843  -33867      23
   33825   33861  -33840  -33864      23   33816   33822  -33831  -33849      23
   33813   33843  -33828  -33846      23   33807   33831  -33822  -33837      23
   33795   33816  -33804  -33819      23   34098   34104  -34119  -34137      23
   34086   34119  -34104  -34125      23   34083   34119  -34098  -34122      23
   34104   34071  -34086  -34107      23   34098   34071  -34083  -34101      23
   34020   34053  -34035  -34059      23   34017   34053  -34032  -34056      23
   34008   34014  -34023  -34041      23   34005   34035  -34020  -34038      23
   33999   34023  -34014  -34029      23   33987   34008  -33996  -34011      23
   34290   34296  -34311  -34329      23   34278   34311  -34296  -34317      23
   34275   34311  -34290  -34314      23   34296   34263  -34278  -34299      23
   34290   34263  -34275  -34293      23   34212   34245  -34227  -34251      23
   34209   34245  -34224  -34248      23   34200   34206  -34215  -34233      23
   34197   34227  -34212  -34230      23   34191   34215  -34206  -34221      23
   34179   34200  -34188  -34203      23   34482   34488  -34503  -34521      23
   34470   34503  -34488  -34509      23   34467   34503  -34482  -34506      23
   34488   34455  -34470  -34491      23   34482   34455  -34467  -34485      23
   34404   34437  -34419  -34443      23   34401   34437  -34416  -34440      23
   34392   34398  -34407  -34425      23   34389   34419  -34404  -34422      23
   34383   34407  -34398  -34413      23   34371   34392  -34380  -34395      23
   34674   34680  -34695  -34713      23   34662   34695  -34680  -34701      23
   34659   34695  -34674  -34698      23   34680   34647  -34662  -34683      23
   34674   34647  -34659  -34677      23   34596   34629  -34611  -34635      23
   34593   34629  -34608  -34632      23   34584   34590  -34599  -34617      23
   34581   34611  -34596  -34614      23   34575   34599  -34590  -34605      23
   34563   34584  -34572  -34587      23   34866   34872  -34887  -34905      23
   34854   34887  -34872  -34893      23   34851   34887  -34866  -34890      23
   34872   34839  -34854  -34875      23   34866   34839  -34851  -34869      23
   34788   34821  -34803  -34827      23   34785   34821  -34800  -34824      23
   34776   34782  -34791  -34809      23   34773   34803  -34788  -34806      23
   34767   34791  -34782  -34797      23   34755   34776  -34764  -34779      23
   35058   35064  -35079  -35097      23   35046   35079  -35064  -35085      23
   35043   35079  -35058  -35082      23   35064   35031  -35046  -35067      23
   35058   35031  -35043  -35061      23   34980   35013  -34995  -35019      23
   34977   35013  -34992  -35016      23   34968   34974  -34983  -35001      23
   34965   34995  -34980  -34998      23   34959   34983  -34974  -34989      23
   34947   34968  -34956  -34971      23   35250   35256  -35271  -35289      23
   35238   35271  -35256  -35277      23   35235   35271  -35250  -35274      23
   35256   35223  -35238  -35259      23   35250   35223  -35235  -35253      23
   35172   35205  -35187  -35211      23   35169   35205  -35184  -35208      23
   35160   35166  -35175  -35193      23   35157   35187  -35172  -35190      23
   35151   35175  -35166  -35181      23   35139   35160  -35148  -35163      23
   35442   35448  -35463  -35481      23   35430   35463  -35448  -35469      23
   35427   35463  -35442  -35466      23   35448   35415  -35430  -35451      23
   35442   35415  -35427  -35445      23   35364   35397  -35379  -35403      23
   35361   35397  -35376  -35400      23   35352   35358  -35367  -35385      23
   35349   35379  -35364  -35382      23   35343   35367  -35358  -35373      23
   35331   35352  -35340  -35355      23   35634   35640  -35655  -35673      23
   35622   35655  -35640  -35661      23   35619   35655  -35634  -35658      23
   35640   35607  -35622  -35643      23   35634   35607  -35619  -35637      23
   35556   35589  -35571  -35595      23   35553   35589  -35568  -35592      23
   35544   35550  -35559  -35577      23   35541   35571  -35556  -35574      23
   35535   35559  -35550  -35565      23   35523   35544  -35532  -35547      23
   35826   35832  -35847  -35865      23   35814   35847  -35832  -35853      23
   35811   35847  -35826  -35850      23   35832   35799  -35814  -35835      23
   35826   35799  -35811  -35829      23   35748   35781  -35763  -35787      23
   35745   35781  -35760  -35784      23   35736   35742  -35751  -35769      23
   35733   35763  -35748  -35766      23   35727   35751  -35742  -35757      23
   35715   35736  -35724  -35739      23   36018   36024  -36039  -36057      23
   36006   36039  -36024  -36045      23   36003   36039  -36018  -36042      23
   36024   35991  -36006  -36027      23   36018   35991  -36003  -36021      23
   35940   35973  -35955  -35979      23   35937   35973  -35952  -35976      23
   35928   35934  -35943  -35961      23   35925   35955  -35940  -35958      23
   35919   35943  -35934  -35949      23   35907   35928  -35916  -35931      23
   36210   36216  -36231  -36249      23   36198   36231  -36216  -36237      23
   36195   36231  -36210  -36234      23   36216   36183  -36198  -36219      23
   36210   36183  -36195  -36213      23   36132   36165  -36147  -36171      23
   36129   36165  -36144  -36168      23   36120   36126  -36135  -36153      23
   36117   36147  -36132  -36150      23   36111   36135  -36126  -36141      23
   36099   36120  -36108  -36123      23   36402   36408  -36423  -36441      23
   36390   36423  -36408  -36429      23   36387   36423  -36402  -36426      23
   36408   36375  -36390  -36411      23   36402   36375  -36387  -36405      23
   36324   36357  -36339  -36363      23   36321   36357  -36336  -36360      23
   36312   36318  -36327  -36345      23   36309   36339  -36324  -36342      23
   36303   36327  -36318  -36333      23   36291   36312  -36300  -36315      23
   36594   36600  -36615  -36633      23   36582   36615  -36600  -36621      23
   36579   36615  -36594  -36618      23   36600   36567  -36582  -36603      23
   36594   36567  -36579  -36597      23   36516   36549  -36531  -36555      23
   36513   36549  -36528  -36552      23   36504   36510  -36519  -36537      23
   36501   36531  -36516  -36534      23   36495   36519  -36510  -36525      23
   36483   36504  -36492  -36507      23   36786   36792  -36807  -36825      23
   36774   36807  -36792  -36813      23   36771   36807  -36786  -36810      23
   36792   36759  -36774  -36795      23   36786   36759  -36771  -36789      23
   36708   36741  -36723  -36747      23   36705   36741  -36720  -36744      23
   36696   36702  -36711  -36729      23   36693   36723  -36708  -36726      23
   36687   36711  -36702  -36717      23   36675   36696  -36684  -36699      23
   36978   36984  -36999  -37017      23   36966   36999  -36984  -37005      23
   36963   36999  -36978  -37002      23   36984   36951  -36966  -36987      23
   36978   36951  -36963  -36981      23   36900   36933  -36915  -36939      23
   36897   36933  -36912  -36936      23   36888   36894  -36903  -36921      23
   36885   36915  -36900  -36918      23   36879   36903  -36894  -36909      23
   36867   36888  -36876  -36891      23   37170   37176  -37191  -37209      23
   37158   37191  -37176  -37197      23   37155   37191  -37170  -37194      23
   37176   37143  -37158  -37179      23   37170   37143  -37155  -37173      23
   37092   37125  -37107  -37131      23   37089   37125  -37104  -37128      23
   37080   37086  -37095  -37113      23   37077   37107  -37092  -37110      23
   37071   37095  -37086  -37101      23   37059   37080  -37068  -37083      23
   37362   37368  -37383  -37401      23   37350   37383  -37368  -37389      23
   37347   37383  -37362  -37386      23   37368   37335  -37350  -37371      23
   37362   37335  -37347  -37365      23   37284   37317  -37299  -37323      23
   37281   37317  -37296  -37320      23   37272   37278  -37287  -37305      23
   37269   37299  -37284  -37302      23   37263   37287  -37278  -37293      23
   37251   37272  -37260  -37275      23   37554   37560  -37575  -37593      23
   37542   37575  -37560  -37581      23   37539   37575  -37554  -37578      23
   37560   37527  -37542  -37563      23   37554   37527  -37539  -37557      23
   37476   37509  -37491  -37515      23   37473   37509  -37488  -37512      23
   37464   37470  -37479  -37497      23   37461   37491  -37476  -37494      23
   37455   37479  -37470  -37485      23   37443   37464  -37452  -37467      23
   37746   37752  -37767  -37785      23   37734   37767  -37752  -37773      23
   37731   37767  -37746  -37770      23   37752   37719  -37734  -37755      23
   37746   37719  -37731  -37749      23   37668   37701  -37683  -37707      23
   37665   37701  -37680  -37704      23   37656   37662  -37671  -37689      23
   37653   37683  -37668  -37686      23   37647   37671  -37662  -37677      23
   37635   37656  -37644  -37659      23   37938   37944  -37959  -37977      23
   37926   37959  -37944  -37965      23   37923   37959  -37938  -37962      23
   37944   37911  -37926  -37947      23   37938   37911  -37923  -37941      23
   37860   37893  -37875  -37899      23   37857   37893  -37872  -37896      23
   37848   37854  -37863  -37881      23   37845   37875  -37860  -37878      23
   37839   37863  -37854  -37869      23   37827   37848  -37836  -37851      23
   38130   38136  -38151  -38169      23   38118   38151  -38136  -38157      23
   38115   38151  -38130  -38154      23   38136   38103  -38118  -38139      23
   38130   38103  -38115  -38133      23   38052   38085  -38067  -38091      23
   38049   38085  -38064  -38088      23   38040   38046  -38055  -38073      23
   38037   38067  -38052  -38070      23   38031   38055  -38046  -38061      23
   38019   38040  -38028  -38043      23   38322   38328  -38343  -38361      23
   38310   38343  -38328  -38349      23   38307   38343  -38322  -38346      23
   38328   38295  -38310  -38331      23   38322   38295  -38307  -38325      23
   38244   38277  -38259  -38283      23   38241   38277  -38256  -38280      23
   38232   38238  -38247  -38265      23   38229   38259  -38244  -38262      23
   38223   38247  -38238  -38253      23   38211   38232  -38220  -38235      23
   38514   38520  -38535  -38553      23   38502   38535  -38520  -38541      23
   38499   38535  -38514  -38538      23   38520   38487  -38502  -38523      23
   38514   38487  -38499  -38517      23   38436   38469  -38451  -38475      23
   38433   38469  -38448  -38472      23   38424   38430  -38439  -38457      23
   38421   38451  -38436  -38454      23   38415   38439  -38430  -38445      23
   38403   38424  -38412  -38427      23   38706   38712  -38727  -38745      23
   38694   38727  -38712  -38733      23   38691   38727  -38706  -38730      23
   38712   38679  -38694  -38715      23   38706   38679  -38691  -38709      23
   38628   38661  -38643  -38667      23   38625   38661  -38640  -38664      23
   38616   38622  -38631  -38649      23   38613   38643  -38628  -38646      23
   38607   38631  -38622  -38637      23   38595   38616  -38604  -38619      23
   38898   38904  -38919  -38937      23   38886   38919  -38904  -38925      23
   38883   38919  -38898  -38922      23   38904   38871  -38886  -38907      23
   38898   38871  -38883  -38901      23   38820   38853  -38835  -38859      23
   38817   38853  -38832  -38856      23   38808   38814  -38823  -38841      23
   38805   38835  -38820  -38838      23   38799   38823  -38814  -38829      23
   38787   38808  -38796  -38811      23   39090   39096  -39111  -39129      23
   39078   39111  -39096  -39117      23   39075   39111  -39090  -39114      23
   39096   39063  -39078  -39099      23   39090   39063  -39075  -39093      23
   39012   39045  -39027  -39051      23   39009   39045  -39024  -39048      23
   39000   39006  -39015  -39033      23   38997   39027  -39012  -39030      23
   38991   39015  -39006  -39021      23   38979   39000  -38988  -39003      23
   39282   39288  -39303  -39321      23   39270   39303  -39288  -39309      23
   39267   39303  -39282  -39306      23   39288   39255  -39270  -39291      23
   39282   39255  -39267  -39285      23   39204   39237  -39219  -39243      23
   39201   39237  -39216  -39240      23   39192   39198  -39207  -39225      23
   39189   39219  -39204  -39222      23   39183   39207  -39198  -39213      23
   39171   39192  -39180  -39195      23   39474   39480  -39495  -39513      23
   39462   39495  -39480  -39501      23   39459   39495  -39474  -39498      23
   39480   39447  -39462  -39483      23   39474   39447  -39459  -39477      23
   39396   39429  -39411  -39435      23   39393   39429  -39408  -39432      23
   39384   39390  -39399  -39417      23   39381   39411  -39396  -39414      23
   39375   39399  -39390  -39405      23   39363   39384  -39372  -39387      23
   39666   39672  -39687  -39705      23   39654   39687  -39672  -39693      23
   39651   39687  -39666  -39690      23   39672   39639  -39654  -39675      23
   39666   39639  -39651  -39669      23   39588   39621  -39603  -39627      23
   39585   39621  -39600  -39624      23   39576   39582  -39591  -39609      23
   39573   39603  -39588  -39606      23   39567   39591  -39582  -39597      23
   39555   39576  -39564  -39579      23   39858   39864  -39879  -39897      23
   39846   39879  -39864  -39885      23   39843   39879  -39858  -39882      23
   39864   39831  -39846  -39867      23   39858   39831  -39843  -39861      23
   39780   39813  -39795  -39819      23   39777   39813  -39792  -39816      23
   39768   39774  -39783  -39801      23   39765   39795  -39780  -39798      23
   39759   39783  -39774  -39789      23   39747   39768  -39756  -39771      23
   40050   40056  -40071  -40089      23   40038   40071  -40056  -40077      23
   40035   40071  -40050  -40074      23   40056   40023  -40038  -40059      23
   40050   40023  -40035  -40053      23   39972   40005  -39987  -40011      23
   39969   40005  -39984  -40008      23   39960   39966  -39975  -39993      23
   39957   39987  -39972  -39990      23   39951   39975  -39966  -39981      23
   39939   39960  -39948  -39963      23   40242   40248  -40263  -40281      23
   40230   40263  -40248  -40269      23   40227   40263  -40242  -40266      23
   40248   40215  -40230  -40251      23   40242   40215  -40227  -40245      23
   40164   40197  -40179  -40203      23   40161   40197  -40176  -40200      23
   40152   40158  -40167  -40185      23   40149   40179  -40164  -40182      23
   40143   40167  -40158  -40173      23   40131   40152  -40140  -40155      23
   40434   40440  -40455  -40473      23   40422   40455  -40440  -40461      23
   40419   40455  -40434  -40458      23   40440   40407  -40422  -40443      23
   40434   40407  -40419  -40437      23   40356   40389  -40371  -40395      23
   40353   40389  -40368  -40392      23   40344   40350  -40359  -40377      23
   40341   40371  -40356  -40374      23   40335   40359  -40350  -40365      23
   40323   40344  -40332  -40347      23   40626   40632  -40647  -40665      23
   40614   40647  -40632  -40653      23   40611   40647  -40626  -40650      23
   40632   40599  -40614  -40635      23   40626   40599  -40611  -40629      23
   40548   40581  -40563  -40587      23   40545   40581  -40560  -40584      23
   40536   40542  -40551  -40569      23   40533   40563  -40548  -40566      23
   40527   40551  -40542  -40557      23   40515   40536  -40524  -40539      23
   40818   40824  -40839  -40857      23   40806   40839  -40824  -40845      23
   40803   40839  -40818  -40842      23   40824   40791  -40806  -40827      23
   40818   40791  -40803  -40821      23   40740   40773  -40755  -40779      23
   40737   40773  -40752  -40776      23   40728   40734  -40743  -40761      23
   40725   40755  -40740  -40758      23   40719   40743  -40734  -40749      23
   40707   40728  -40716  -40731      23   41010   41016  -41031  -41049      23
   40998   41031  -41016  -41037      23   40995   41031  -41010  -41034      23
   41016   40983  -40998  -41019      23   41010   40983  -40995  -41013      23
   40932   40965  -40947  -40971      23   40929   40965  -40944  -40968      23
   40920   40926  -40935  -40953      23   40917   40947  -40932  -40950      23
   40911   40935  -40926  -40941      23   40899   40920  -40908  -40923      23
   41202   41208  -41223  -41241      23   41190   41223  -41208  -41229      23
   41187   41223  -41202  -41226      23   41208   41175  -41190  -41211      23
   41202   41175  -41187  -41205      23   41124   41157  -41139  -41163      23
   41121   41157  -41136  -41160      23   41112   41118  -41127  -41145      23
   41109   41139  -41124  -41142      23   41103   41127  -41118  -41133      23
   41091   41112  -41100  -41115      23   41394   41400  -41415  -41433      23
   41382   41415  -41400  -41421      23   41379   41415  -41394  -41418      23
   41400   41367  -41382  -41403      23   41394   41367  -41379  -41397      23
   41316   41349  -41331  -41355      23   41313   41349  -41328  -41352      23
   41304   41310  -41319  -41337      23   41301   41331  -41316  -41334      23
   41295   41319  -41310  -41325      23   41283   41304  -41292  -41307      23
   41586   41592  -41607  -41625      23   41574   41607  -41592  -41613      23
   41571   41607  -41586  -41610      23   41592   41559  -41574  -41595      23
   41586   41559  -41571  -41589      23   41508   41541  -41523  -41547      23
   41505   41541  -41520  -41544      23   41496   41502  -41511  -41529      23
   41493   41523  -41508  -41526      23   41487   41511  -41502  -41517      23
   41475   41496  -41484  -41499      23   41778   41784  -41799  -41817      23
   41766   41799  -41784  -41805      23   41763   41799  -41778  -41802      23
   41784   41751  -41766  -41787      23   41778   41751  -41763  -41781      23
   41700   41733  -41715  -41739      23   41697   41733  -41712  -41736      23
   41688   41694  -41703  -41721      23   41685   41715  -41700  -41718      23
   41679   41703  -41694  -41709      23   41667   41688  -41676  -41691      23
   41970   41976  -41991  -42009      23   41958   41991  -41976  -41997      23
   41955   41991  -41970  -41994      23   41976   41943  -41958  -41979      23
   41970   41943  -41955  -41973      23   41892   41925  -41907  -41931      23
   41889   41925  -41904  -41928      23   41880   41886  -41895  -41913      23
   41877   41907  -41892  -41910      23   41871   41895  -41886  -41901      23
   41859   41880  -41868  -41883      23   42162   42168  -42183  -42201      23
   42150   42183  -42168  -42189      23   42147   42183  -42162  -42186      23
   42168   42135  -42150  -42171      23   42162   42135  -42147  -42165      23
   42084   42117  -42099  -42123      23   42081   42117  -42096  -42120      23
   42072   42078  -42087  -42105      23   42069   42099  -42084  -42102      23
   42063   42087  -42078  -42093      23   42051   42072  -42060  -42075      23
   42354   42360  -42375  -42393      23   42342   42375  -42360  -42381      23
   42339   42375  -42354  -42378      23   42360   42327  -42342  -42363      23
   42354   42327  -42339  -42357      23   42276   42309  -42291  -42315      23
   42273   42309  -42288  -42312      23   42264   42270  -42279  -42297      23
   42261   42291  -42276  -42294      23   42255   42279  -42270  -42285      23
   42243   42264  -42252  -42267      23   42546   42552  -42567  -42585      23
   42534   42567  -42552  -42573      23   42531   42567  -42546  -42570      23
   42552   42519  -42534  -42555      23   42546   42519  -42531  -42549      23
   42468   42501  -42483  -42507      23   42465   42501  -42480  -42504      23
   42456   42462  -42471  -42489      23   42453   42483  -42468  -42486      23
   42447   42471  -42462  -42477      23   42435   42456  -42444  -42459      23
   42738   42744  -42759  -42777      23   42726   42759  -42744  -42765      23
   42723   42759  -42738  -42762      23   42744   42711  -42726  -42747      23
   42738   42711  -42723  -42741      23   42660   42693  -42675  -42699      23
   42657   42693  -42672  -42696      23   42648   42654  -42663  -42681      23
   42645   42675  -42660  -42678      23   42639   42663  -42654  -42669      23
   42627   42648  -42636  -42651      23   42930   42936  -42951  -42969      23
   42918   42951  -42936  -42957      23   42915   42951  -42930  -42954      23
   42936   42903  -42918  -42939      23   42930   42903  -42915  -42933      23
   42852   42885  -42867  -42891      23   42849   42885  -42864  -42888      23
   42840   42846  -42855  -42873      23   42837   42867  -42852  -42870      23
   42831   42855  -42846  -42861      23   42819   42840  -42828  -42843      23
   43122   43128  -43143  -43161      23   43110   43143  -43128  -43149      23
   43107   43143  -43122  -43146      23   43128   43095  -43110  -43131      23
   43122   43095  -43107  -43125      23   43044   43077  -43059  -43083      23
   43041   43077  -43056  -43080      23   43032   43038  -43047  -43065      23
   43029   43059  -43044  -43062      23   43023   43047  -43038  -43053      23
   43011   43032  -43020  -43035      23   43314   43320  -43335  -43353      23
   43302   43335  -43320  -43341      23   43299   43335  -43314  -43338      23
   43320   43287  -43302  -43323      23   43314   43287  -43299  -43317      23
   43236   43269  -43251  -43275      23   43233   43269  -43248  -43272      23
   43224   43230  -43239  -43257      23   43221   43251  -43236  -43254      23
   43215   43239  -43230  -43245      23   43203   43224  -43212  -43227      23
   43506   43512  -43527  -43545      23   43494   43527  -43512  -43533      23
   43491   43527  -43506  -43530      23   43512   43479  -43494  -43515      23
   43506   43479  -43491  -43509      23   43428   43461  -43443  -43467      23
   43425   43461  -43440  -43464      23   43416   43422  -43431  -43449      23
   43413   43443  -43428  -43446      23   43407   43431  -43422  -43437      23
   43395   43416  -43404  -43419      23   43698   43704  -43719  -43737      23
   43686   43719  -43704  -43725      23   43683   43719  -43698  -43722      23
   43704   43671  -43686  -43707      23   43698   43671  -43683  -43701      23
   43620   43653  -43635  -43659      23   43617   43653  -43632  -43656      23
   43608   43614  -43623  -43641      23   43605   43635  -43620  -43638      23
   43599   43623  -43614  -43629      23   43587   43608  -43596  -43611      23
   43890   43896  -43911  -43929      23   43878   43911  -43896  -43917      23
   43875   43911  -43890  -43914      23   43896   43863  -43878  -43899      23
   43890   43863  -43875  -43893      23   43812   43845  -43827  -43851      23
   43809   43845  -43824  -43848      23   43800   43806  -43815  -43833      23
   43797   43827  -43812  -43830      23   43791   43815  -43806  -43821      23
   43779   43800  -43788  -43803      23   44082   44088  -44103  -44121      23
   44070   44103  -44088  -44109      23   44067   44103  -44082  -44106      23
   44088   44055  -44070  -44091      23   44082   44055  -44067  -44085      23
   44004   44037  -44019  -44043      23   44001   44037  -44016  -44040      23
   43992   43998  -44007  -44025      23   43989   44019  -44004  -44022      23
   43983   44007  -43998  -44013      23   43971   43992  -43980  -43995      23
   44274   44280  -44295  -44313      23   44262   44295  -44280  -44301      23
   44259   44295  -44274  -44298      23   44280   44247  -44262  -44283      23
   44274   44247  -44259  -44277      23   44196   44229  -44211  -44235      23
   44193   44229  -44208  -44232      23   44184   44190  -44199  -44217      23
   44181   44211  -44196  -44214      23   44175   44199  -44190  -44205      23
   44163   44184  -44172  -44187      23   44466   44472  -44487  -44505      23
   44454   44487  -44472  -44493      23   44451   44487  -44466  -44490      23
   44472   44439  -44454  -44475      23   44466   44439  -44451  -44469      23
   44388   44421  -44403  -44427      23   44385   44421  -44400  -44424      23
   44376   44382  -44391  -44409      23   44373   44403  -44388  -44406      23
   44367   44391  -44382  -44397      23   44355   44376  -44364  -44379      23
   44658   44664  -44679  -44697      23   44646   44679  -44664  -44685      23
   44643   44679  -44658  -44682      23   44664   44631  -44646  -44667      23
   44658   44631  -44643  -44661      23   44580   44613  -44595  -44619      23
   44577   44613  -44592  -44616      23   44568   44574  -44583  -44601      23
   44565   44595  -44580  -44598      23   44559   44583  -44574  -44589      23
   44547   44568  -44556  -44571      23   44850   44856  -44871  -44889      23
   44838   44871  -44856  -44877      23   44835   44871  -44850  -44874      23
   44856   44823  -44838  -44859      23   44850   44823  -44835  -44853      23
   44772   44805  -44787  -44811      23   44769   44805  -44784  -44808      23
   44760   44766  -44775  -44793      23   44757   44787  -44772  -44790      23
   44751   44775  -44766  -44781      23   44739   44760  -44748  -44763      23
   45042   45048  -45063  -45081      23   45030   45063  -45048  -45069      23
   45027   45063  -45042  -45066      23   45048   45015  -45030  -45051      23
   45042   45015  -45027  -45045      23   44964   44997  -44979  -45003      23
   44961   44997  -44976  -45000      23   44952   44958  -44967  -44985      23
   44949   44979  -44964  -44982      23   44943   44967  -44958  -44973      23
   44931   44952  -44940  -44955      23   45234   45240  -45255  -45273      23
   45222   45255  -45240  -45261      23   45219   45255  -45234  -45258      23
   45240   45207  -45222  -45243      23   45234   45207  -45219  -45237      23
   45156   45189  -45171  -45195      23   45153   45189  -45168  -45192      23
   45144   45150  -45159  -45177      23   45141   45171  -45156  -45174      23
   45135   45159  -45150  -45165      23   45123   45144  -45132  -45147      23
   45426   45432  -45447  -45465      23   45414   45447  -45432  -45453      23
   45411   45447  -45426  -45450      23   45432   45399  -45414  -45435      23
   45426   45399  -45411  -45429      23   45348   45381  -45363  -45387      23
   45345   45381  -45360  -45384      23   45336   45342  -45351  -45369      23
   45333   45363  -45348  -45366      23   45327   45351  -45342  -45357      23
   45315   45336  -45324  -45339      23   45618   45624  -45639  -45657      23
   45606   45639  -45624  -45645      23   45603   45639  -45618  -45642      23
   45624   45591  -45606  -45627      23   45618   45591  -45603  -45621      23
   45540   45573  -45555  -45579      23   45537   45573  -45552  -45576      23
   45528   45534  -45543  -45561      23   45525   45555  -45540  -45558      23
   45519   45543  -45534  -45549      23   45507   45528  -45516  -45531      23
   45810   45816  -45831  -45849      23   45798   45831  -45816  -45837      23
   45795   45831  -45810  -45834      23   45816   45783  -45798  -45819      23
   45810   45783  -45795  -45813      23   45732   45765  -45747  -45771      23
   45729   45765  -45744  -45768      23   45720   45726  -45735  -45753      23
   45717   45747  -45732  -45750      23   45711   45735  -45726  -45741      23
   45699   45720  -45708  -45723      23   46002   46008  -46023  -46041      23
   45990   46023  -46008  -46029      23   45987   46023  -46002  -46026      23
   46008   45975  -45990  -46011      23   46002   45975  -45987  -46005      23
   45924   45957  -45939  -45963      23   45921   45957  -45936  -45960      23
   45912   45918  -45927  -45945      23   45909   45939  -45924  -45942      23
   45903   45927  -45918  -45933      23   45891   45912  -45900  -45915      23
   46194   46200  -46215  -46233      23   46182   46215  -46200  -46221      23
   46179   46215  -46194  -46218      23   46200   46167  -46182  -46203      23
   46194   46167  -46179  -46197      23   46116   46149  -46131  -46155      23
   46113   46149  -46128  -46152      23   46104   46110  -46119  -46137      23
   46101   46131  -46116  -46134      23   46095   46119  -46110  -46125      23
   46083   46104  -46092  -46107      23   46386   46392  -46407  -46425      23
   46374   46407  -46392  -46413      23   46371   46407  -46386  -46410      23
   46392   46359  -46374  -46395      23   46386   46359  -46371  -46389      23
   46308   46341  -46323  -46347      23   46305   46341  -46320  -46344      23
   46296   46302  -46311  -46329      23   46293   46323  -46308  -46326      23
   46287   46311  -46302  -46317      23   46275   46296  -46284  -46299      23
   46578   46584  -46599  -46617      23   46566   46599  -46584  -46605      23
   46563   46599  -46578  -46602      23   46584   46551  -46566  -46587      23
   46578   46551  -46563  -46581      23   46500   46533  -46515  -46539      23
   46497   46533  -46512  -46536      23   46488   46494  -46503  -46521      23
   46485   46515  -46500  -46518      23   46479   46503  -46494  -46509      23
   46467   46488  -46476  -46491      23   46770   46776  -46791  -46809      23
   46758   46791  -46776  -46797      23   46755   46791  -46770  -46794      23
   46776   46743  -46758  -46779      23   46770   46743  -46755  -46773      23
   46692   46725  -46707  -46731      23   46689   46725  -46704  -46728      23
   46680   46686  -46695  -46713      23   46677   46707  -46692  -46710      23
   46671   46695  -46686  -46701      23   46659   46680  -46668  -46683      23
   46962   46968  -46983  -47001      23   46950   46983  -46968  -46989      23
   46947   46983  -46962  -46986      23   46968   46935  -46950  -46971      23
   46962   46935  -46947  -46965      23   46884   46917  -46899  -46923      23
   46881   46917  -46896  -46920      23   46872   46878  -46887  -46905      23
   46869   46899  -46884  -46902      23   46863   46887  -46878  -46893      23
   46851   46872  -46860  -46875      23   47154   47160  -47175  -47193      23
   47142   47175  -47160  -47181      23   47139   47175  -47154  -47178      23
   47160   47127  -47142  -47163      23   47154   47127  -47139  -47157      23
   47076   47109  -47091  -47115      23   47073   47109  -47088  -47112      23
   47064   47070  -47079  -47097      23   47061   47091  -47076  -47094      23
   47055   47079  -47070  -47085      23   47043   47064  -47052  -47067      23
   47346   47352  -47367  -47385      23   47334   47367  -47352  -47373      23
   47331   47367  -47346  -47370      23   47352   47319  -47334  -47355      23
   47346   47319  -47331  -47349      23   47268   47301  -47283  -47307      23
   47265   47301  -47280  -47304      23   47256   47262  -47271  -47289      23
   47253   47283  -47268  -47286      23   47247   47271  -47262  -47277      23
   47235   47256  -47244  -47259      23   47538   47544  -47559  -47577      23
   47526   47559  -47544  -47565      23   47523   47559  -47538  -47562      23
   47544   47511  -47526  -47547      23   47538   47511  -47523  -47541      23
   47460   47493  -47475  -47499      23   47457   47493  -47472  -47496      23
   47448   47454  -47463  -47481      23   47445   47475  -47460  -47478      23
   47439   47463  -47454  -47469      23   47427   47448  -47436  -47451      23
   47730   47736  -47751  -47769      23   47718   47751  -47736  -47757      23
   47715   47751  -47730  -47754      23   47736   47703  -47718  -47739      23
   47730   47703  -47715  -47733      23   47652   47685  -47667  -47691      23
   47649   47685  -47664  -47688      23   47640   47646  -47655  -47673      23
   47637   47667  -47652  -47670      23   47631   47655  -47646  -47661      23
   47619   47640  -47628  -47643      23   47922   47928  -47943  -47961      23
   47910   47943  -47928  -47949      23   47907   47943  -47922  -47946      23
   47928   47895  -47910  -47931      23   47922   47895  -47907  -47925      23
   47844   47877  -47859  -47883      23   47841   47877  -47856  -47880      23
   47832   47838  -47847  -47865      23   47829   47859  -47844  -47862      23
   47823   47847  -47838  -47853      23   47811   47832  -47820  -47835      23
   48114   48120  -48135  -48153      23   48102   48135  -48120  -48141      23
   48099   48135  -48114  -48138      23   48120   48087  -48102  -48123      23
   48114   48087  -48099  -48117      23   48036   48069  -48051  -48075      23
   48033   48069  -48048  -48072      23   48024   48030  -48039  -48057      23
   48021   48051  -48036  -48054      23   48015   48039  -48030  -48045      23
   48003   48024  -48012  -48027      23   48306   48312  -48327  -48345      23
   48294   48327  -48312  -48333      23   48291   48327  -48306  -48330      23
   48312   48279  -48294  -48315      23   48306   48279  -48291  -48309      23
   48228   48261  -48243  -48267      23   48225   48261  -48240  -48264      23
   48216   48222  -48231  -48249      23   48213   48243  -48228  -48246      23
   48207   48231  -48222  -48237      23   48195   48216  -48204  -48219      23
   48498   48504  -48519  -48537      23   48486   48519  -48504  -48525      23
   48483   48519  -48498  -48522      23   48504   48471  -48486  -48507      23
   48498   48471  -48483  -48501      23   48420   48453  -48435  -48459      23
   48417   48453  -48432  -48456      23   48408   48414  -48423  -48441      23
   48405   48435  -48420  -48438      23   48399   48423  -48414  -48429      23
   48387   48408  -48396  -48411      23   48690   48696  -48711  -48729      23
   48678   48711  -48696  -48717      23   48675   48711  -48690  -48714      23
   48696   48663  -48678  -48699      23   48690   48663  -48675  -48693      23
   48612   48645  -48627  -48651      23   48609   48645  -48624  -48648      23
   48600   48606  -48615  -48633      23   48597   48627  -48612  -48630      23
   48591   48615  -48606  -48621      23   48579   48600  -48588  -48603      23
   48882   48888  -48903  -48921      23   48870   48903  -48888  -48909      23
   48867   48903  -48882  -48906      23   48888   48855  -48870  -48891      23
   48882   48855  -48867  -48885      23   48804   48837  -48819  -48843      23
   48801   48837  -48816  -48840      23   48792   48798  -48807  -48825      23
   48789   48819  -48804  -48822      23   48783   48807  -48798  -48813      23
   48771   48792  -48780  -48795      23   49074   49080  -49095  -49113      23
   49062   49095  -49080  -49101      23   49059   49095  -49074  -49098      23
   49080   49047  -49062  -49083      23   49074   49047  -49059  -49077      23
   48996   49029  -49011  -49035      23   48993   49029  -49008  -49032      23
   48984   48990  -48999  -49017      23   48981   49011  -48996  -49014      23
   48975   48999  -48990  -49005      23   48963   48984  -48972  -48987      23
   49266   49272  -49287  -49305      23   49254   49287  -49272  -49293      23
   49251   49287  -49266  -49290      23   49272   49239  -49254  -49275      23
   49266   49239  -49251  -49269      23   49188   49221  -49203  -49227      23
   49185   49221  -49200  -49224      23   49176   49182  -49191  -49209      23
   49173   49203  -49188  -49206      23   49167   49191  -49182  -49197      23
   49155   49176  -49164  -49179      23   49458   49464  -49479  -49497      23
   49446   49479  -49464  -49485      23   49443   49479  -49458  -49482      23
   49464   49431  -49446  -49467      23   49458   49431  -49443  -49461      23
   49380   49413  -49395  -49419      23   49377   49413  -49392  -49416      23
   49368   49374  -49383  -49401      23   49365   49395  -49380  -49398      23
   49359   49383  -49374  -49389      23   49347   49368  -49356  -49371      23
   49650   49656  -49671  -49689      23   49638   49671  -49656  -49677      23
   49635   49671  -49650  -49674      23   49656   49623  -49638  -49659      23
   49650   49623  -49635  -49653      23   49572   49605  -49587  -49611      23
   49569   49605  -49584  -49608      23   49560   49566  -49575  -49593      23
   49557   49587  -49572  -49590      23   49551   49575  -49566  -49581      23
   49539   49560  -49548  -49563      23   49842   49848  -49863  -49881      23
   49830   49863  -49848  -49869      23   49827   49863  -49842  -49866      23
   49848   49815  -49830  -49851      23   49842   49815  -49827  -49845      23
   49764   49797  -49779  -49803      23   49761   49797  -49776  -49800      23
   49752   49758  -49767  -49785      23   49749   49779  -49764  -49782      23
   49743   49767  -49758  -49773      23   49731   49752  -49740  -49755      23
   50034   50040  -50055  -50073      23   50022   50055  -50040  -50061      23
   50019   50055  -50034  -50058      23   50040   50007  -50022  -50043      23
   50034   50007  -50019  -50037      23   49956   49989  -49971  -49995      23
   49953   49989  -49968  -49992      23   49944   49950  -49959  -49977      23
   49941   49971  -49956  -49974      23   49935   49959  -49950  -49965      23
   49923   49944  -49932  -49947      23   50226   50232  -50247  -50265      23
   50214   50247  -50232  -50253      23   50211   50247  -50226  -50250      23
   50232   50199  -50214  -50235      23   50226   50199  -50211  -50229      23
   50148   50181  -50163  -50187      23   50145   50181  -50160  -50184      23
   50136   50142  -50151  -50169      23   50133   50163  -50148  -50166      23
   50127   50151  -50142  -50157      23   50115   50136  -50124  -50139      23
   50418   50424  -50439  -50457      23   50406   50439  -50424  -50445      23
   50403   50439  -50418  -50442      23   50424   50391  -50406  -50427      23
   50418   50391  -50403  -50421      23   50340   50373  -50355  -50379      23
   50337   50373  -50352  -50376      23   50328   50334  -50343  -50361      23
   50325   50355  -50340  -50358      23   50319   50343  -50334  -50349      23
   50307   50328  -50316  -50331      23   50610   50616  -50631  -50649      23
   50598   50631  -50616  -50637      23   50595   50631  -50610  -50634      23
   50616   50583  -50598  -50619      23   50610   50583  -50595  -50613      23
   50532   50565  -50547  -50571      23   50529   50565  -50544  -50568      23
   50520   50526  -50535  -50553      23   50517   50547  -50532  -50550      23
   50511   50535  -50526  -50541      23   50499   50520  -50508  -50523      23
   50802   50808  -50823  -50841      23   50790   50823  -50808  -50829      23
   50787   50823  -50802  -50826      23   50808   50775  -50790  -50811      23
   50802   50775  -50787  -50805      23   50724   50757  -50739  -50763      23
   50721   50757  -50736  -50760      23   50712   50718  -50727  -50745      23
   50709   50739  -50724  -50742      23   50703   50727  -50718  -50733      23
   50691   50712  -50700  -50715      23   50994   51000  -51015  -51033      23
   50982   51015  -51000  -51021      23   50979   51015  -50994  -51018      23
   51000   50967  -50982  -51003      23   50994   50967  -50979  -50997      23
   50916   50949  -50931  -50955      23   50913   50949  -50928  -50952      23
   50904   50910  -50919  -50937      23   50901   50931  -50916  -50934      23
   50895   50919  -50910  -50925      23   50883   50904  -50892  -50907      23
   51186   51192  -51207  -51225      23   51174   51207  -51192  -51213      23
   51171   51207  -51186  -51210      23   51192   51159  -51174  -51195      23
   51186   51159  -51171  -51189      23   51108   51141  -51123  -51147      23
   51105   51141  -51120  -51144      23   51096   51102  -51111  -51129      23
   51093   51123  -51108  -51126      23   51087   51111  -51102  -51117      23
   51075   51096  -51084  -51099      23   51378   51384  -51399  -51417      23
   51366   51399  -51384  -51405      23   51363   51399  -51378  -51402      23
   51384   51351  -51366  -51387      23   51378   51351  -51363  -51381      23
   51300   51333  -51315  -51339      23   51297   51333  -51312  -51336      23
   51288   51294  -51303  -51321      23   51285   51315  -51300  -51318      23
   51279   51303  -51294  -51309      23   51267   51288  -51276  -51291      23
   51570   51576  -51591  -51609      23   51558   51591  -51576  -51597      23
   51555   51591  -51570  -51594      23   51576   51543  -51558  -51579      23
   51570   51543  -51555  -51573      23   51492   51525  -51507  -51531      23
   51489   51525  -51504  -51528      23   51480   51486  -51495  -51513      23
   51477   51507  -51492  -51510      23   51471   51495  -51486  -51501      23
   51459   51480  -51468  -51483      23   51762   51768  -51783  -51801      23
   51750   51783  -51768  -51789      23   51747   51783  -51762  -51786      23
   51768   51735  -51750  -51771      23   51762   51735  -51747  -51765      23
   51684   51717  -51699  -51723      23   51681   51717  -51696  -51720      23
   51672   51678  -51687  -51705      23   51669   51699  -51684  -51702      23
   51663   51687  -51678  -51693      23   51651   51672  -51660  -51675      23
   51954   51960  -51975  -51993      23   51942   51975  -51960  -51981      23
   51939   51975  -51954  -51978      23   51960   51927  -51942  -51963      23
   51954   51927  -51939  -51957      23   51876   51909  -51891  -51915      23
   51873   51909  -51888  -51912      23   51864   51870  -51879  -51897      23
   51861   51891  -51876  -51894      23   51855   51879  -51870  -51885      23
   51843   51864  -51852  -51867      23   52146   52152  -52167  -52185      23
   52134   52167  -52152  -52173      23   52131   52167  -52146  -52170      23
   52152   52119  -52134  -52155      23   52146   52119  -52131  -52149      23
   52068   52101  -52083  -52107      23   52065   52101  -52080  -52104      23
   52056   52062  -52071  -52089      23   52053   52083  -52068  -52086      23
   52047   52071  -52062  -52077      23   52035   52056  -52044  -52059      23
   52338   52344  -52359  -52377      23   52326   52359  -52344  -52365      23
   52323   52359  -52338  -52362      23   52344   52311  -52326  -52347      23
   52338   52311  -52323  -52341      23   52260   52293  -52275  -52299      23
   52257   52293  -52272  -52296      23   52248   52254  -52263  -52281      23
   52245   52275  -52260  -52278      23   52239   52263  -52254  -52269      23
   52227   52248  -52236  -52251      23   52530   52536  -52551  -52569      23
   52518   52551  -52536  -52557      23   52515   52551  -52530  -52554      23
   52536   52503  -52518  -52539      23   52530   52503  -52515  -52533      23
   52452   52485  -52467  -52491      23   52449   52485  -52464  -52488      23
   52440   52446  -52455  -52473      23   52437   52467  -52452  -52470      23
   52431   52455  -52446  -52461      23   52419   52440  -52428  -52443      23
   52722   52728  -52743  -52761      23   52710   52743  -52728  -52749      23
   52707   52743  -52722  -52746      23   52728   52695  -52710  -52731      23
   52722   52695  -52707  -52725      23   52644   52677  -52659  -52683      23
   52641   52677  -52656  -52680      23   52632   52638  -52647  -52665      23
   52629   52659  -52644  -52662      23   52623   52647  -52638  -52653      23
   52611   52632  -52620  -52635      23   52914   52920  -52935  -52953      23
   52902   52935  -52920  -52941      23   52899   52935  -52914  -52938      23
   52920   52887  -52902  -52923      23   52914   52887  -52899  -52917      23
   52836   52869  -52851  -52875      23   52833   52869  -52848  -52872      23
   52824   52830  -52839  -52857      23   52821   52851  -52836  -52854      23
   52815   52839  -52830  -52845      23   52803   52824  -52812  -52827      23
   53106   53112  -53127  -53145      23   53094   53127  -53112  -53133      23
   53091   53127  -53106  -53130      23   53112   53079  -53094  -53115      23
   53106   53079  -53091  -53109      23   53028   53061  -53043  -53067      23
   53025   53061  -53040  -53064      23   53016   53022  -53031  -53049      23
   53013   53043  -53028  -53046      23   53007   53031  -53022  -53037      23
   52995   53016  -53004  -53019      23   53298   53304  -53319  -53337      23
   53286   53319  -53304  -53325      23   53283   53319  -53298  -53322      23
   53304   53271  -53286  -53307      23   53298   53271  -53283  -53301      23
   53220   53253  -53235  -53259      23   53217   53253  -53232  -53256      23
   53208   53214  -53223  -53241      23   53205   53235  -53220  -53238      23
   53199   53223  -53214  -53229      23   53187   53208  -53196  -53211      23
   53490   53496  -53511  -53529      23   53478   53511  -53496  -53517      23
   53475   53511  -53490  -53514      23   53496   53463  -53478  -53499      23
   53490   53463  -53475  -53493      23   53412   53445  -53427  -53451      23
   53409   53445  -53424  -53448      23   53400   53406  -53415  -53433      23
   53397   53427  -53412  -53430      23   53391   53415  -53406  -53421      23
   53379   53400  -53388  -53403      23   53682   53688  -53703  -53721      23
   53670   53703  -53688  -53709      23   53667   53703  -53682  -53706      23
   53688   53655  -53670  -53691      23   53682   53655  -53667  -53685      23
   53604   53637  -53619  -53643      23   53601   53637  -53616  -53640      23
   53592   53598  -53607  -53625      23   53589   53619  -53604  -53622      23
   53583   53607  -53598  -53613      23   53571   53592  -53580  -53595      23
   53874   53880  -53895  -53913      23   53862   53895  -53880  -53901      23
   53859   53895  -53874  -53898      23   53880   53847  -53862  -53883      23
   53874   53847  -53859  -53877      23   53796   53829  -53811  -53835      23
   53793   53829  -53808  -53832      23   53784   53790  -53799  -53817      23
   53781   53811  -53796  -53814      23   53775   53799  -53790  -53805      23
   53763   53784  -53772  -53787      23   54066   54072  -54087  -54105      23
   54054   54087  -54072  -54093      23   54051   54087  -54066  -54090      23
   54072   54039  -54054  -54075      23   54066   54039  -54051  -54069      23
   53988   54021  -54003  -54027      23   53985   54021  -54000  -54024      23
   53976   53982  -53991  -54009      23   53973   54003  -53988  -54006      23
   53967   53991  -53982  -53997      23   53955   53976  -53964  -53979      23
   54258   54264  -54279  -54297      23   54246   54279  -54264  -54285      23
   54243   54279  -54258  -54282      23   54264   54231  -54246  -54267      23
   54258   54231  -54243  -54261      23   54180   54213  -54195  -54219      23
   54177   54213  -54192  -54216      23   54168   54174  -54183  -54201      23
   54165   54195  -54180  -54198      23   54159   54183  -54174  -54189      23
   54147   54168  -54156  -54171      23   54450   54456  -54471  -54489      23
   54438   54471  -54456  -54477      23   54435   54471  -54450  -54474      23
   54456   54423  -54438  -54459      23   54450   54423  -54435  -54453      23
   54372   54405  -54387  -54411      23   54369   54405  -54384  -54408      23
   54360   54366  -54375  -54393      23   54357   54387  -54372  -54390      23
   54351   54375  -54366  -54381      23   54339   54360  -54348  -54363      23
   54642   54648  -54663  -54681      23   54630   54663  -54648  -54669      23
   54627   54663  -54642  -54666      23   54648   54615  -54630  -54651      23
   54642   54615  -54627  -54645      23   54564   54597  -54579  -54603      23
   54561   54597  -54576  -54600      23   54552   54558  -54567  -54585      23
   54549   54579  -54564  -54582      23   54543   54567  -54558  -54573      23
   54531   54552  -54540  -54555      23   54834   54840  -54855  -54873      23
   54822   54855  -54840  -54861      23   54819   54855  -54834  -54858      23
   54840   54807  -54822  -54843      23   54834   54807  -54819  -54837      23
   54756   54789  -54771  -54795      23   54753   54789  -54768  -54792      23
   54744   54750  -54759  -54777      23   54741   54771  -54756  -54774      23
   54735   54759  -54750  -54765      23   54723   54744  -54732  -54747      23
   55026   55032  -55047  -55065      23   55014   55047  -55032  -55053      23
   55011   55047  -55026  -55050      23   55032   54999  -55014  -55035      23
   55026   54999  -55011  -55029      23   54948   54981  -54963  -54987      23
   54945   54981  -54960  -54984      23   54936   54942  -54951  -54969      23
   54933   54963  -54948  -54966      23   54927   54951  -54942  -54957      23
   54915   54936  -54924  -54939      23   55218   55224  -55239  -55257      23
   55206   55239  -55224  -55245      23   55203   55239  -55218  -55242      23
   55224   55191  -55206  -55227      23   55218   55191  -55203  -55221      23
   55140   55173  -55155  -55179      23   55137   55173  -55152  -55176      23
   55128   55134  -55143  -55161      23   55125   55155  -55140  -55158      23
   55119   55143  -55134  -55149      23   55107   55128  -55116  -55131      23
%FLAG DIHEDRALS_WITHOUT_HYDROGEN                                                
%FORMAT(10I8)                                                                   
     144     162     165     177       3     126     144     162     165       3
     105     126     144     162       3     102      87      99     114       4
     102     120    -135     114       4      99      87     102     120       4
      99     114    -135     120       4      90     105     126     144       3
      87      99     114     135       4      87     102    -120     135       4
      78      90     105     126       3      69      87      99     114       4
      69      87     102     120       4      60      78      90     105       3
      51      69      87      99       5      51      69      87     102       5
      48      69      87      99       5      48      69      87     102       5
      42      60      78      90       3      39      24      42      60       6
      36      21      33      48       4      36      51     -69      48       4
      36      51      69      87       4      33      21      36      51       4
      33      48     -69      51       4      33      48      69      87       4
      30      39      24      42       4      24      42      60      78       8
      21      33      48      69       4      21      36     -51      69       4
      18       6      -9      21       9      18       6      15      30      10
      18      33      21      36       4      18      33      48      69       4
      15       3      12      24       4      15       6       9      21      11
      15       6      18      33      12      15      30     -39      24       4
      12       3      15      30       4      12      24     -39      30       4
      12      24      42      60       6       9       0       3      12      13
       9       0      -3      12      14       9       0      -3      12      15
       9       0      -3      15      13       9       0      -3      15      14
       9       0      -3      15      15       9       0      -6      15      16
       9       0      -6      18      16       9       6      15      30      17
       9       6     -18      33      12       9      21     -33      18       4
       9      21      33      48       4       9      21      36      51       4
       6       0       3      12      18       6       0      -3      15      18
       6       0      -9      21      19       6       9     -21      33      20
       6       9      21      36      20       6      15      -3      12       4
       6      15      30      39       4       6      18     -33      21      21
       6      18      33      48      21       3       0      -6       9      16
       3       0      -6      15      16       3       0       6      18      16
       3       0      -9       6      19       3       0       9      21      19
       3      12      24      39       4       3      12      24      42       4
       3      15      -6       9      17       3      15      -6      18      10
       3      15     -30      39       4       0       3      12      24       4
       0       3     -15       6       4       0       3      15      30       4
       0       6      -9      21       9       0       6     -15       3      10
       0       6     -15      30      10       0       6      18      33      12
       0       9      -6      15       9       0       9      -6      18       9
       0       9     -21      33      22       0       9      21      36      22
     336     354     357     369       3     318     336     354     357       3
     297     318     336     354       3     294     279     291     306       4
     294     312    -327     306       4     291     279     294     312       4
     291     306    -327     312       4     282     297     318     336       3
     279     291     306     327       4     279     294    -312     327       4
     270     282     297     318       3     261     279     291     306       4
     261     279     294     312       4     252     270     282     297       3
     243     261     279     291       5     243     261     279     294       5
     240     261     279     291       5     240     261     279     294       5
     234     252     270     282       3     231     216     234     252       6
     228     213     225     240       4     228     243    -261     240       4
     228     243     261     279       4     225     213     228     243       4
     225     240    -261     243       4     225     240     261     279       4
     222     231     216     234       4     216     234     252     270       8
     213     225     240     261       4     213     228    -243     261       4
     210     198    -201     213       9     210     198     207     222      10
     210     225     213     228       4     210     225     240     261       4
     207     195     204     216       4     207     198     201     213      11
     207     198     210     225      12     207     222    -231     216       4
     204     195     207     222       4     204     216    -231     222       4
     204     216     234     252       6     201     192     195     204      13
     201     192    -195     204      14     201     192    -195     204      15
     201     192    -195     207      13     201     192    -195     207      14
     201     192    -195     207      15     201     192    -198     207      16
     201     192    -198     210      16     201     198     207     222      17
     201     198    -210     225      12     201     213    -225     210       4
     201     213     225     240       4     201     213     228     243       4
     198     192     195     204      18     198     192    -195     207      18
     198     192    -201     213      19     198     201    -213     225      20
     198     201     213     228      20     198     207    -195     204       4
     198     207     222     231       4     198     210    -225     213      21
     198     210     225     240      21     195     192    -198     201      16
     195     192    -198     207      16     195     192     198     210      16
     195     192    -201     198      19     195     192     201     213      19
     195     204     216     231       4     195     204     216     234       4
     195     207    -198     201      17     195     207    -198     210      10
     195     207    -222     231       4     192     195     204     216       4
     192     195    -207     198       4     192     195     207     222       4
     192     198    -201     213       9     192     198    -207     195      10
     192     198    -207     222      10     192     198     210     225      12
     192     201    -198     207       9     192     201    -198     210       9
     192     201    -213     225      22     192     201     213     228      22
     528     546     549     561       3     510     528     546     549       3
     489     510     528     546       3     486     471     483     498       4
     486     504    -519     498       4     483     471     486     504       4
     483     498    -519     504       4     474     489     510     528       3
     471     483     498     519       4     471     486    -504     519       4
     462     474     489     510       3     453     471     483     498       4
     453     471     486     504       4     444     462     474     489       3
     435     453     471     483       5     435     453     471     486       5
     432     453     471     483       5     432     453     471     486       5
     426     444     462     474       3     423     408     426     444       6
     420     405     417     432       4     420     435    -453     432       4
     420     435     453     471       4     417     405     420     435       4
     417     432    -453     435       4     417     432     453     471       4
     414     423     408     426       4     408     426     444     462       8
     405     417     432     453       4     405     420    -435     453       4
     402     390    -393     405       9     402     390     399     414      10
     402     417     405     420       4     402     417     432     453       4
     399     387     396     408       4     399     390     393     405      11
     399     390     402     417      12     399     414    -423     408       4
     396     387     399     414       4     396     408    -423     414       4
     396     408     426     444       6     393     384     387     396      13
     393     384    -387     396      14     393     384    -387     396      15
     393     384    -387     399      13     393     384    -387     399      14
     393     384    -387     399      15     393     384    -390     399      16
     393     384    -390     402      16     393     390     399     414      17
     393     390    -402     417      12     393     405    -417     402       4
     393     405     417     432       4     393     405     420     435       4
     390     384     387     396      18     390     384    -387     399      18
     390     384    -393     405      19     390     393    -405     417      20
     390     393     405     420      20     390     399    -387     396       4
     390     399     414     423       4     390     402    -417     405      21
     390     402     417     432      21     387     384    -390     393      16
     387     384    -390     399      16     387     384     390     402      16
     387     384    -393     390      19     387     384     393     405      19
     387     396     408     423       4     387     396     408     426       4
     387     399    -390     393      17     387     399    -390     402      10
     387     399    -414     423       4     384     387     396     408       4
     384     387    -399     390       4     384     387     399     414       4
     384     390    -393     405       9     384     390    -399     387      10
     384     390    -399     414      10     384     390     402     417      12
     384     393    -390     399       9     384     393    -390     402       9
     384     393    -405     417      22     384     393     405     420      22
     720     738     741     753       3     702     720     738     741       3
     681     702     720     738       3     678     663     675     690       4
     678     696    -711     690       4     675     663     678     696       4
     675     690    -711     696       4     666     681     702     720       3
     663     675     690     711       4     663     678    -696     711       4
     654     666     681     702       3     645     663     675     690       4
     645     663     678     696       4     636     654     666     681       3
     627     645     663     675       5     627     645     663     678       5
     624     645     663     675       5     624     645     663     678       5
     618     636     654     666       3     615     600     618     636       6
     612     597     609     624       4     612     627    -645     624       4
     612     627     645     663       4     609     597     612     627       4
     609     624    -645     627       4     609     624     645     663       4
     606     615     600     618       4     600     618     636     654       8
     597     609     624     645       4     597     612    -627     645       4
     594     582    -585     597       9     594     582     591     606      10
     594     609     597     612       4     594     609     624     645       4
     591     579     588     600       4     591     582     585     597      11
     591     582     594     609      12     591     606    -615     600       4
     588     579     591     606       4     588     600    -615     606       4
     588     600     618     636       6     585     576     579     588      13
     585     576    -579     588      14     585     576    -579     588      15
     585     576    -579     591      13     585     576    -579     591      14
     585     576    -579     591      15     585     576    -582     591      16
     585     576    -582     594      16     585     582     591     606      17
     585     582    -594     609      12     585     597    -609     594       4
     585     597     609     624       4     585     597     612     627       4
     582     576     579     588      18     582     576    -579     591      18
     582     576    -585     597      19     582     585    -597     609      20
     582     585     597     612      20     582     591    -579     588       4
     582     591     606     615       4     582     594    -609     597      21
     582     594     609     624      21     579     576    -582     585      16
     579     576    -582     591      16     579     576     582     594      16
     579     576    -585     582      19     579     576     585     597      19
     579     588     600     615       4     579     588     600     618       4
     579     591    -582     585      17     579     591    -582     594      10
     579     591    -606     615       4     576     579     588     600       4
     576     579    -591     582       4     576     579     591     606       4
     576     582    -585     597       9     576     582    -591     579      10
     576     582    -591     606      10     576     582     594     609      12
     576     585    -582     591       9     576     585    -582     594       9
     576     585    -597     609      22     576     585     597     612      22
     912     930     933     945       3     894     912     930     933       3
     873     894     912     930       3     870     855     867     882       4
     870     888    -903     882       4     867     855     870     888       4
     867     882    -903     888       4     858     873     894     912       3
     855     867     882     903       4     855     870    -888     903       4
     846     858     873     894       3     837     855     867     882       4
     837     855     870     888       4     828     846     858     873       3
     819     837     855     867       5     819     837     855     870       5
     816     837     855     867       5     816     837     855     870       5
     810     828     846     858       3     807     792     810     828       6
     804     789     801     816       4     804     819    -837     816       4
     804     819     837     855       4     801     789     804     819       4
     801     816    -837     819       4     801     816     837     855       4
     798     807     792     810       4     792     810     828     846       8
     789     801     816     837       4     789     804    -819     837       4
     786     774    -777     789       9     786     774     783     798      10
     786     801     789     804       4     786     801     816     837       4
     783     771     780     792       4     783     774     777     789      11
     783     774     786     801      12     783     798    -807     792       4
     780     771     783     798       4     780     792    -807     798       4
     780     792     810     828       6     777     768     771     780      13
     777     768    -771     780      14     777     768    -771     780      15
     777     768    -771     783      13     777     768    -771     783      14
     777     768    -771     783      15     777     768    -774     783      16
     777     768    -774     786      16     777     774     783     798      17
     777     774    -786     801      12     777     789    -801     786       4
     777     789     801     816       4     777     789     804     819       4
     774     768     771     780      18     774     768    -771     783      18
     774     768    -777     789      19     774     777    -789     801      20
     774     777     789     804      20     774     783    -771     780       4
     774     783     798     807       4     774     786    -801     789      21
     774     786     801     816      21     771     768    -774     777      16
     771     768    -774     783      16     771     768     774     786      16
     771     768    -777     774      19     771     768     777     789      19
     771     780     792     807       4     771     780     792     810       4
     771     783    -774     777      17     771     783    -774     786      10
     771     783    -798     807       4     768     771     780     792       4
     768     771    -783     774       4     768     771     783     798       4
     768     774    -777     789       9     768     774    -783     771      10
     768     774    -783     798      10     768     774     786     801      12
     768     777    -774     783       9     768     777    -774     786       9
     768     777    -789     801      22     768     777     789     804      22
    1104    1122    1125    1137       3    1086    1104    1122    1125       3
    1065    1086    1104    1122       3    1062    1047    1059    1074       4
    1062    1080   -1095    1074       4    1059    1047    1062    1080       4
    1059    1074   -1095    1080       4    1050    1065    1086    1104       3
    1047    1059    1074    1095       4    1047    1062   -1080    1095       4
    1038    1050    1065    1086       3    1029    1047    1059    1074       4
    1029    1047    1062    1080       4    1020    1038    1050    1065       3
    1011    1029    1047    1059       5    1011    1029    1047    1062       5
    1008    1029    1047    1059       5    1008    1029    1047    1062       5
    1002    1020    1038    1050       3     999     984    1002    1020       6
     996     981     993    1008       4     996    1011   -1029    1008       4
     996    1011    1029    1047       4     993     981     996    1011       4
     993    1008   -1029    1011       4     993    1008    1029    1047       4
     990     999     984    1002       4     984    1002    1020    1038       8
     981     993    1008    1029       4     981     996   -1011    1029       4
     978     966    -969     981       9     978     966     975     990      10
     978     993     981     996       4     978     993    1008    1029       4
     975     963     972     984       4     975     966     969     981      11
     975     966     978     993      12     975     990    -999     984       4
     972     963     975     990       4     972     984    -999     990       4
     972     984    1002    1020       6     969     960     963     972      13
     969     960    -963     972      14     969     960    -963     972      15
     969     960    -963     975      13     969     960    -963     975      14
     969     960    -963     975      15     969     960    -966     975      16
     969     960    -966     978      16     969     966     975     990      17
     969     966    -978     993      12     969     981    -993     978       4
     969     981     993    1008       4     969     981     996    1011       4
     966     960     963     972      18     966     960    -963     975      18
     966     960    -969     981      19     966     969    -981     993      20
     966     969     981     996      20     966     975    -963     972       4
     966     975     990     999       4     966     978    -993     981      21
     966     978     993    1008      21     963     960    -966     969      16
     963     960    -966     975      16     963     960     966     978      16
     963     960    -969     966      19     963     960     969     981      19
     963     972     984     999       4     963     972     984    1002       4
     963     975    -966     969      17     963     975    -966     978      10
     963     975    -990     999       4     960     963     972     984       4
     960     963    -975     966       4     960     963     975     990       4
     960     966    -969     981       9     960     966    -975     963      10
     960     966    -975     990      10     960     966     978     993      12
     960     969    -966     975       9     960     969    -966     978       9
     960     969    -981     993      22     960     969     981     996      22
    1296    1314    1317    1329       3    1278    1296    1314    1317       3
    1257    1278    1296    1314       3    1254    1239    1251    1266       4
    1254    1272   -1287    1266       4    1251    1239    1254    1272       4
    1251    1266   -1287    1272       4    1242    1257    1278    1296       3
    1239    1251    1266    1287       4    1239    1254   -1272    1287       4
    1230    1242    1257    1278       3    1221    1239    1251    1266       4
    1221    1239    1254    1272       4    1212    1230    1242    1257       3
    1203    1221    1239    1251       5    1203    1221    1239    1254       5
    1200    1221    1239    1251       5    1200    1221    1239    1254       5
    1194    1212    1230    1242       3    1191    1176    1194    1212       6
    1188    1173    1185    1200       4    1188    1203   -1221    1200       4
    1188    1203    1221    1239       4    1185    1173    1188    1203       4
    1185    1200   -1221    1203       4    1185    1200    1221    1239       4
    1182    1191    1176    1194       4    1176    1194    1212    1230       8
    1173    1185    1200    1221       4    1173    1188   -1203    1221       4
    1170    1158   -1161    1173       9    1170    1158    1167    1182      10
    1170    1185    1173    1188       4    1170    1185    1200    1221       4
    1167    1155    1164    1176       4    1167    1158    1161    1173      11
    1167    1158    1170    1185      12    1167    1182   -1191    1176       4
    1164    1155    1167    1182       4    1164    1176   -1191    1182       4
    1164    1176    1194    1212       6    1161    1152    1155    1164      13
    1161    1152   -1155    1164      14    1161    1152   -1155    1164      15
    1161    1152   -1155    1167      13    1161    1152   -1155    1167      14
    1161    1152   -1155    1167      15    1161    1152   -1158    1167      16
    1161    1152   -1158    1170      16    1161    1158    1167    1182      17
    1161    1158   -1170    1185      12    1161    1173   -1185    1170       4
    1161    1173    1185    1200       4    1161    1173    1188    1203       4
    1158    1152    1155    1164      18    1158    1152   -1155    1167      18
    1158    1152   -1161    1173      19    1158    1161   -1173    1185      20
    1158    1161    1173    1188      20    1158    1167   -1155    1164       4
    1158    1167    1182    1191       4    1158    1170   -1185    1173      21
    1158    1170    1185    1200      21    1155    1152   -1158    1161      16
    1155    1152   -1158    1167      16    1155    1152    1158    1170      16
    1155    1152   -1161    1158      19    1155    1152    1161    1173      19
    1155    1164    1176    1191       4    1155    1164    1176    1194       4
    1155    1167   -1158    1161      17    1155    1167   -1158    1170      10
    1155    1167   -1182    1191       4    1152    1155    1164    1176       4
    1152    1155   -1167    1158       4    1152    1155    1167    1182       4
    1152    1158   -1161    1173       9    1152    1158   -1167    1155      10
    1152    1158   -1167    1182      10    1152    1158    1170    1185      12
    1152    1161   -1158    1167       9    1152    1161   -1158    1170       9
    1152    1161   -1173    1185      22    1152    1161    1173    1188      22
    1488    1506    1509    1521       3    1470    1488    1506    1509       3
    1449    1470    1488    1506       3    1446    1431    1443    1458       4
    1446    1464   -1479    1458       4    1443    1431    1446    1464       4
    1443    1458   -1479    1464       4    1434    1449    1470    1488       3
    1431    1443    1458    1479       4    1431    1446   -1464    1479       4
    1422    1434    1449    1470       3    1413    1431    1443    1458       4
    1413    1431    1446    1464       4    1404    1422    1434    1449       3
    1395    1413    1431    1443       5    1395    1413    1431    1446       5
    1392    1413    1431    1443       5    1392    1413    1431    1446       5
    1386    1404    1422    1434       3    1383    1368    1386    1404       6
    1380    1365    1377    1392       4    1380    1395   -1413    1392       4
    1380    1395    1413    1431       4    1377    1365    1380    1395       4
    1377    1392   -1413    1395       4    1377    1392    1413    1431       4
    1374    1383    1368    1386       4    1368    1386    1404    1422       8
    1365    1377    1392    1413       4    1365    1380   -1395    1413       4
    1362    1350   -1353    1365       9    1362    1350    1359    1374      10
    1362    1377    1365    1380       4    1362    1377    1392    1413       4
    1359    1347    1356    1368       4    1359    1350    1353    1365      11
    1359    1350    1362    1377      12    1359    1374   -1383    1368       4
    1356    1347    1359    1374       4    1356    1368   -1383    1374       4
    1356    1368    1386    1404       6    1353    1344    1347    1356      13
    1353    1344   -1347    1356      14    1353    1344   -1347    1356      15
    1353    1344   -1347    1359      13    1353    1344   -1347    1359      14
    1353    1344   -1347    1359      15    1353    1344   -1350    1359      16
    1353    1344   -1350    1362      16    1353    1350    1359    1374      17
    1353    1350   -1362    1377      12    1353    1365   -1377    1362       4
    1353    1365    1377    1392       4    1353    1365    1380    1395       4
    1350    1344    1347    1356      18    1350    1344   -1347    1359      18
    1350    1344   -1353    1365      19    1350    1353   -1365    1377      20
    1350    1353    1365    1380      20    1350    1359   -1347    1356       4
    1350    1359    1374    1383       4    1350    1362   -1377    1365      21
    1350    1362    1377    1392      21    1347    1344   -1350    1353      16
    1347    1344   -1350    1359      16    1347    1344    1350    1362      16
    1347    1344   -1353    1350      19    1347    1344    1353    1365      19
    1347    1356    1368    1383       4    1347    1356    1368    1386       4
    1347    1359   -1350    1353      17    1347    1359   -1350    1362      10
    1347    1359   -1374    1383       4    1344    1347    1356    1368       4
    1344    1347   -1359    1350       4    1344    1347    1359    1374       4
    1344    1350   -1353    1365       9    1344    1350   -1359    1347      10
    1344    1350   -1359    1374      10    1344    1350    1362    1377      12
    1344    1353   -1350    1359       9    1344    1353   -1350    1362       9
    1344    1353   -1365    1377      22    1344    1353    1365    1380      22
    1680    1698    1701    1713       3    1662    1680    1698    1701       3
    1641    1662    1680    1698       3    1638    1623    1635    1650       4
    1638    1656   -1671    1650       4    1635    1623    1638    1656       4
    1635    1650   -1671    1656       4    1626    1641    1662    1680       3
    1623    1635    1650    1671       4    1623    1638   -1656    1671       4
    1614    1626    1641    1662       3    1605    1623    1635    1650       4
    1605    1623    1638    1656       4    1596    1614    1626    1641       3
    1587    1605    1623    1635       5    1587    1605    1623    1638       5
    1584    1605    1623    1635       5    1584    1605    1623    1638       5
    1578    1596    1614    1626       3    1575    1560    1578    1596       6
    1572    1557    1569    1584       4    1572    1587   -1605    1584       4
    1572    1587    1605    1623       4    1569    1557    1572    1587       4
    1569    1584   -1605    1587       4    1569    1584    1605    1623       4
    1566    1575    1560    1578       4    1560    1578    1596    1614       8
    1557    1569    1584    1605       4    1557    1572   -1587    1605       4
    1554    1542   -1545    1557       9    1554    1542    1551    1566      10
    1554    1569    1557    1572       4    1554    1569    1584    1605       4
    1551    1539    1548    1560       4    1551    1542    1545    1557      11
    1551    1542    1554    1569      12    1551    1566   -1575    1560       4
    1548    1539    1551    1566       4    1548    1560   -1575    1566       4
    1548    1560    1578    1596       6    1545    1536    1539    1548      13
    1545    1536   -1539    1548      14    1545    1536   -1539    1548      15
    1545    1536   -1539    1551      13    1545    1536   -1539    1551      14
    1545    1536   -1539    1551      15    1545    1536   -1542    1551      16
    1545    1536   -1542    1554      16    1545    1542    1551    1566      17
    1545    1542   -1554    1569      12    1545    1557   -1569    1554       4
    1545    1557    1569    1584       4    1545    1557    1572    1587       4
    1542    1536    1539    1548      18    1542    1536   -1539    1551      18
    1542    1536   -1545    1557      19    1542    1545   -1557    1569      20
    1542    1545    1557    1572      20    1542    1551   -1539    1548       4
    1542    1551    1566    1575       4    1542    1554   -1569    1557      21
    1542    1554    1569    1584      21    1539    1536   -1542    1545      16
    1539    1536   -1542    1551      16    1539    1536    1542    1554      16
    1539    1536   -1545    1542      19    1539    1536    1545    1557      19
    1539    1548    1560    1575       4    1539    1548    1560    1578       4
    1539    1551   -1542    1545      17    1539    1551   -1542    1554      10
    1539    1551   -1566    1575       4    1536    1539    1548    1560       4
    1536    1539   -1551    1542       4    1536    1539    1551    1566       4
    1536    1542   -1545    1557       9    1536    1542   -1551    1539      10
    1536    1542   -1551    1566      10    1536    1542    1554    1569      12
    1536    1545   -1542    1551       9    1536    1545   -1542    1554       9
    1536    1545   -1557    1569      22    1536    1545    1557    1572      22
    1872    1890    1893    1905       3    1854    1872    1890    1893       3
    1833    1854    1872    1890       3    1830    1815    1827    1842       4
    1830    1848   -1863    1842       4    1827    1815    1830    1848       4
    1827    1842   -1863    1848       4    1818    1833    1854    1872       3
    1815    1827    1842    1863       4    1815    1830   -1848    1863       4
    1806    1818    1833    1854       3    1797    1815    1827    1842       4
    1797    1815    1830    1848       4    1788    1806    1818    1833       3
    1779    1797    1815    1827       5    1779    1797    1815    1830       5
    1776    1797    1815    1827       5    1776    1797    1815    1830       5
    1770    1788    1806    1818       3    1767    1752    1770    1788       6
    1764    1749    1761    1776       4    1764    1779   -1797    1776       4
    1764    1779    1797    1815       4    1761    1749    1764    1779       4
    1761    1776   -1797    1779       4    1761    1776    1797    1815       4
    1758    1767    1752    1770       4    1752    1770    1788    1806       8
    1749    1761    1776    1797       4    1749    1764   -1779    1797       4
    1746    1734   -1737    1749       9    1746    1734    1743    1758      10
    1746    1761    1749    1764       4    1746    1761    1776    1797       4
    1743    1731    1740    1752       4    1743    1734    1737    1749      11
    1743    1734    1746    1761      12    1743    1758   -1767    1752       4
    1740    1731    1743    1758       4    1740    1752   -1767    1758       4
    1740    1752    1770    1788       6    1737    1728    1731    1740      13
    1737    1728   -1731    1740      14    1737    1728   -1731    1740      15
    1737    1728   -1731    1743      13    1737    1728   -1731    1743      14
    1737    1728   -1731    1743      15    1737    1728   -1734    1743      16
    1737    1728   -1734    1746      16    1737    1734    1743    1758      17
    1737    1734   -1746    1761      12    1737    1749   -1761    1746       4
    1737    1749    1761    1776       4    1737    1749    1764    1779       4
    1734    1728    1731    1740      18    1734    1728   -1731    1743      18
    1734    1728   -1737    1749      19    1734    1737   -1749    1761      20
    1734    1737    1749    1764      20    1734    1743   -1731    1740       4
    1734    1743    1758    1767       4    1734    1746   -1761    1749      21
    1734    1746    1761    1776      21    1731    1728   -1734    1737      16
    1731    1728   -1734    1743      16    1731    1728    1734    1746      16
    1731    1728   -1737    1734      19    1731    1728    1737    1749      19
    1731    1740    1752    1767       4    1731    1740    1752    1770       4
    1731    1743   -1734    1737      17    1731    1743   -1734    1746      10
    1731    1743   -1758    1767       4    1728    1731    1740    1752       4
    1728    1731   -1743    1734       4    1728    1731    1743    1758       4
    1728    1734   -1737    1749       9    1728    1734   -1743    1731      10
    1728    1734   -1743    1758      10    1728    1734    1746    1761      12
    1728    1737   -1734    1743       9    1728    1737   -1734    1746       9
    1728    1737   -1749    1761      22    1728    1737    1749    1764      22
    2064    2082    2085    2097       3    2046    2064    2082    2085       3
    2025    2046    2064    2082       3    2022    2007    2019    2034       4
    2022    2040   -2055    2034       4    2019    2007    2022    2040       4
    2019    2034   -2055    2040       4    2010    2025    2046    2064       3
    2007    2019    2034    2055       4    2007    2022   -2040    2055       4
    1998    2010    2025    2046       3    1989    2007    2019    2034       4
    1989    2007    2022    2040       4    1980    1998    2010    2025       3
    1971    1989    2007    2019       5    1971    1989    2007    2022       5
    1968    1989    2007    2019       5    1968    1989    2007    2022       5
    1962    1980    1998    2010       3    1959    1944    1962    1980       6
    1956    1941    1953    1968       4    1956    1971   -1989    1968       4
    1956    1971    1989    2007       4    1953    1941    1956    1971       4
    1953    1968   -1989    1971       4    1953    1968    1989    2007       4
    1950    1959    1944    1962       4    1944    1962    1980    1998       8
    1941    1953    1968    1989       4    1941    1956   -1971    1989       4
    1938    1926   -1929    1941       9    1938    1926    1935    1950      10
    1938    1953    1941    1956       4    1938    1953    1968    1989       4
    1935    1923    1932    1944       4    1935    1926    1929    1941      11
    1935    1926    1938    1953      12    1935    1950   -1959    1944       4
    1932    1923    1935    1950       4    1932    1944   -1959    1950       4
    1932    1944    1962    1980       6    1929    1920    1923    1932      13
    1929    1920   -1923    1932      14    1929    1920   -1923    1932      15
    1929    1920   -1923    1935      13    1929    1920   -1923    1935      14
    1929    1920   -1923    1935      15    1929    1920   -1926    1935      16
    1929    1920   -1926    1938      16    1929    1926    1935    1950      17
    1929    1926   -1938    1953      12    1929    1941   -1953    1938       4
    1929    1941    1953    1968       4    1929    1941    1956    1971       4
    1926    1920    1923    1932      18    1926    1920   -1923    1935      18
    1926    1920   -1929    1941      19    1926    1929   -1941    1953      20
    1926    1929    1941    1956      20    1926    1935   -1923    1932       4
    1926    1935    1950    1959       4    1926    1938   -1953    1941      21
    1926    1938    1953    1968      21    1923    1920   -1926    1929      16
    1923    1920   -1926    1935      16    1923    1920    1926    1938      16
    1923    1920   -1929    1926      19    1923    1920    1929    1941      19
    1923    1932    1944    1959       4    1923    1932    1944    1962       4
    1923    1935   -1926    1929      17    1923    1935   -1926    1938      10
    1923    1935   -1950    1959       4    1920    1923    1932    1944       4
    1920    1923   -1935    1926       4    1920    1923    1935    1950       4
    1920    1926   -1929    1941       9    1920    1926   -1935    1923      10
    1920    1926   -1935    1950      10    1920    1926    1938    1953      12
    1920    1929   -1926    1935       9    1920    1929   -1926    1938       9
    1920    1929   -1941    1953      22    1920    1929    1941    1956      22
    2256    2274    2277    2289       3    2238    2256    2274    2277       3
    2217    2238    2256    2274       3    2214    2199    2211    2226       4
    2214    2232   -2247    2226       4    2211    2199    2214    2232       4
    2211    2226   -2247    2232       4    2202    2217    2238    2256       3
    2199    2211    2226    2247       4    2199    2214   -2232    2247       4
    2190    2202    2217    2238       3    2181    2199    2211    2226       4
    2181    2199    2214    2232       4    2172    2190    2202    2217       3
    2163    2181    2199    2211       5    2163    2181    2199    2214       5
    2160    2181    2199    2211       5    2160    2181    2199    2214       5
    2154    2172    2190    2202       3    2151    2136    2154    2172       6
    2148    2133    2145    2160       4    2148    2163   -2181    2160       4
    2148    2163    2181    2199       4    2145    2133    2148    2163       4
    2145    2160   -2181    2163       4    2145    2160    2181    2199       4
    2142    2151    2136    2154       4    2136    2154    2172    2190       8
    2133    2145    2160    2181       4    2133    2148   -2163    2181       4
    2130    2118   -2121    2133       9    2130    2118    2127    2142      10
    2130    2145    2133    2148       4    2130    2145    2160    2181       4
    2127    2115    2124    2136       4    2127    2118    2121    2133      11
    2127    2118    2130    2145      12    2127    2142   -2151    2136       4
    2124    2115    2127    2142       4    2124    2136   -2151    2142       4
    2124    2136    2154    2172       6    2121    2112    2115    2124      13
    2121    2112   -2115    2124      14    2121    2112   -2115    2124      15
    2121    2112   -2115    2127      13    2121    2112   -2115    2127      14
    2121    2112   -2115    2127      15    2121    2112   -2118    2127      16
    2121    2112   -2118    2130      16    2121    2118    2127    2142      17
    2121    2118   -2130    2145      12    2121    2133   -2145    2130       4
    2121    2133    2145    2160       4    2121    2133    2148    2163       4
    2118    2112    2115    2124      18    2118    2112   -2115    2127      18
    2118    2112   -2121    2133      19    2118    2121   -2133    2145      20
    2118    2121    2133    2148      20    2118    2127   -2115    2124       4
    2118    2127    2142    2151       4    2118    2130   -2145    2133      21
    2118    2130    2145    2160      21    2115    2112   -2118    2121      16
    2115    2112   -2118    2127      16    2115    2112    2118    2130      16
    2115    2112   -2121    2118      19    2115    2112    2121    2133      19
    2115    2124    2136    2151       4    2115    2124    2136    2154       4
    2115    2127   -2118    2121      17    2115    2127   -2118    2130      10
    2115    2127   -2142    2151       4    2112    2115    2124    2136       4
    2112    2115   -2127    2118       4    2112    2115    2127    2142       4
    2112    2118   -2121    2133       9    2112    2118   -2127    2115      10
    2112    2118   -2127    2142      10    2112    2118    2130    2145      12
    2112    2121   -2118    2127       9    2112    2121   -2118    2130       9
    2112    2121   -2133    2145      22    2112    2121    2133    2148      22
    2448    2466    2469    2481       3    2430    2448    2466    2469       3
    2409    2430    2448    2466       3    2406    2391    2403    2418       4
    2406    2424   -2439    2418       4    2403    2391    2406    2424       4
    2403    2418   -2439    2424       4    2394    2409    2430    2448       3
    2391    2403    2418    2439       4    2391    2406   -2424    2439       4
    2382    2394    2409    2430       3    2373    2391    2403    2418       4
    2373    2391    2406    2424       4    2364    2382    2394    2409       3
    2355    2373    2391    2403       5    2355    2373    2391    2406       5
    2352    2373    2391    2403       5    2352    2373    2391    2406       5
    2346    2364    2382    2394       3    2343    2328    2346    2364       6
    2340    2325    2337    2352       4    2340    2355   -2373    2352       4
    2340    2355    2373    2391       4    2337    2325    2340    2355       4
    2337    2352   -2373    2355       4    2337    2352    2373    2391       4
    2334    2343    2328    2346       4    2328    2346    2364    2382       8
    2325    2337    2352    2373       4    2325    2340   -2355    2373       4
    2322    2310   -2313    2325       9    2322    2310    2319    2334      10
    2322    2337    2325    2340       4    2322    2337    2352    2373       4
    2319    2307    2316    2328       4    2319    2310    2313    2325      11
    2319    2310    2322    2337      12    2319    2334   -2343    2328       4
    2316    2307    2319    2334       4    2316    2328   -2343    2334       4
    2316    2328    2346    2364       6    2313    2304    2307    2316      13
    2313    2304   -2307    2316      14    2313    2304   -2307    2316      15
    2313    2304   -2307    2319      13    2313    2304   -2307    2319      14
    2313    2304   -2307    2319      15    2313    2304   -2310    2319      16
    2313    2304   -2310    2322      16    2313    2310    2319    2334      17
    2313    2310   -2322    2337      12    2313    2325   -2337    2322       4
    2313    2325    2337    2352       4    2313    2325    2340    2355       4
    2310    2304    2307    2316      18    2310    2304   -2307    2319      18
    2310    2304   -2313    2325      19    2310    2313   -2325    2337      20
    2310    2313    2325    2340      20    2310    2319   -2307    2316       4
    2310    2319    2334    2343       4    2310    2322   -2337    2325      21
    2310    2322    2337    2352      21    2307    2304   -2310    2313      16
    2307    2304   -2310    2319      16    2307    2304    2310    2322      16
    2307    2304   -2313    2310      19    2307    2304    2313    2325      19
    2307    2316    2328    2343       4    2307    2316    2328    2346       4
    2307    2319   -2310    2313      17    2307    2319   -2310    2322      10
    2307    2319   -2334    2343       4    2304    2307    2316    2328       4
    2304    2307   -2319    2310       4    2304    2307    2319    2334       4
    2304    2310   -2313    2325       9    2304    2310   -2319    2307      10
    2304    2310   -2319    2334      10    2304    2310    2322    2337      12
    2304    2313   -2310    2319       9    2304    2313   -2310    2322       9
    2304    2313   -2325    2337      22    2304    2313    2325    2340      22
    2640    2658    2661    2673       3    2622    2640    2658    2661       3
    2601    2622    2640    2658       3    2598    2583    2595    2610       4
    2598    2616   -2631    2610       4    2595    2583    2598    2616       4
    2595    2610   -2631    2616       4    2586    2601    2622    2640       3
    2583    2595    2610    2631       4    2583    2598   -2616    2631       4
    2574    2586    2601    2622       3    2565    2583    2595    2610       4
    2565    2583    2598    2616       4    2556    2574    2586    2601       3
    2547    2565    2583    2595       5    2547    2565    2583    2598       5
    2544    2565    2583    2595       5    2544    2565    2583    2598       5
    2538    2556    2574    2586       3    2535    2520    2538    2556       6
    2532    2517    2529    2544       4    2532    2547   -2565    2544       4
    2532    2547    2565    2583       4    2529    2517    2532    2547       4
    2529    2544   -2565    2547       4    2529    2544    2565    2583       4
    2526    2535    2520    2538       4    2520    2538    2556    2574       8
    2517    2529    2544    2565       4    2517    2532   -2547    2565       4
    2514    2502   -2505    2517       9    2514    2502    2511    2526      10
    2514    2529    2517    2532       4    2514    2529    2544    2565       4
    2511    2499    2508    2520       4    2511    2502    2505    2517      11
    2511    2502    2514    2529      12    2511    2526   -2535    2520       4
    2508    2499    2511    2526       4    2508    2520   -2535    2526       4
    2508    2520    2538    2556       6    2505    2496    2499    2508      13
    2505    2496   -2499    2508      14    2505    2496   -2499    2508      15
    2505    2496   -2499    2511      13    2505    2496   -2499    2511      14
    2505    2496   -2499    2511      15    2505    2496   -2502    2511      16
    2505    2496   -2502    2514      16    2505    2502    2511    2526      17
    2505    2502   -2514    2529      12    2505    2517   -2529    2514       4
    2505    2517    2529    2544       4    2505    2517    2532    2547       4
    2502    2496    2499    2508      18    2502    2496   -2499    2511      18
    2502    2496   -2505    2517      19    2502    2505   -2517    2529      20
    2502    2505    2517    2532      20    2502    2511   -2499    2508       4
    2502    2511    2526    2535       4    2502    2514   -2529    2517      21
    2502    2514    2529    2544      21    2499    2496   -2502    2505      16
    2499    2496   -2502    2511      16    2499    2496    2502    2514      16
    2499    2496   -2505    2502      19    2499    2496    2505    2517      19
    2499    2508    2520    2535       4    2499    2508    2520    2538       4
    2499    2511   -2502    2505      17    2499    2511   -2502    2514      10
    2499    2511   -2526    2535       4    2496    2499    2508    2520       4
    2496    2499   -2511    2502       4    2496    2499    2511    2526       4
    2496    2502   -2505    2517       9    2496    2502   -2511    2499      10
    2496    2502   -2511    2526      10    2496    2502    2514    2529      12
    2496    2505   -2502    2511       9    2496    2505   -2502    2514       9
    2496    2505   -2517    2529      22    2496    2505    2517    2532      22
    2832    2850    2853    2865       3    2814    2832    2850    2853       3
    2793    2814    2832    2850       3    2790    2775    2787    2802       4
    2790    2808   -2823    2802       4    2787    2775    2790    2808       4
    2787    2802   -2823    2808       4    2778    2793    2814    2832       3
    2775    2787    2802    2823       4    2775    2790   -2808    2823       4
    2766    2778    2793    2814       3    2757    2775    2787    2802       4
    2757    2775    2790    2808       4    2748    2766    2778    2793       3
    2739    2757    2775    2787       5    2739    2757    2775    2790       5
    2736    2757    2775    2787       5    2736    2757    2775    2790       5
    2730    2748    2766    2778       3    2727    2712    2730    2748       6
    2724    2709    2721    2736       4    2724    2739   -2757    2736       4
    2724    2739    2757    2775       4    2721    2709    2724    2739       4
    2721    2736   -2757    2739       4    2721    2736    2757    2775       4
    2718    2727    2712    2730       4    2712    2730    2748    2766       8
    2709    2721    2736    2757       4    2709    2724   -2739    2757       4
    2706    2694   -2697    2709       9    2706    2694    2703    2718      10
    2706    2721    2709    2724       4    2706    2721    2736    2757       4
    2703    2691    2700    2712       4    2703    2694    2697    2709      11
    2703    2694    2706    2721      12    2703    2718   -2727    2712       4
    2700    2691    2703    2718       4    2700    2712   -2727    2718       4
    2700    2712    2730    2748       6    2697    2688    2691    2700      13
    2697    2688   -2691    2700      14    2697    2688   -2691    2700      15
    2697    2688   -2691    2703      13    2697    2688   -2691    2703      14
    2697    2688   -2691    2703      15    2697    2688   -2694    2703      16
    2697    2688   -2694    2706      16    2697    2694    2703    2718      17
    2697    2694   -2706    2721      12    2697    2709   -2721    2706       4
    2697    2709    2721    2736       4    2697    2709    2724    2739       4
    2694    2688    2691    2700      18    2694    2688   -2691    2703      18
    2694    2688   -2697    2709      19    2694    2697   -2709    2721      20
    2694    2697    2709    2724      20    2694    2703   -2691    2700       4
    2694    2703    2718    2727       4    2694    2706   -2721    2709      21
    2694    2706    2721    2736      21    2691    2688   -2694    2697      16
    2691    2688   -2694    2703      16    2691    2688    2694    2706      16
    2691    2688   -2697    2694      19    2691    2688    2697    2709      19
    2691    2700    2712    2727       4    2691    2700    2712    2730       4
    2691    2703   -2694    2697      17    2691    2703   -2694    2706      10
    2691    2703   -2718    2727       4    2688    2691    2700    2712       4
    2688    2691   -2703    2694       4    2688    2691    2703    2718       4
    2688    2694   -2697    2709       9    2688    2694   -2703    2691      10
    2688    2694   -2703    2718      10    2688    2694    2706    2721      12
    2688    2697   -2694    2703       9    2688    2697   -2694    2706       9
    2688    2697   -2709    2721      22    2688    2697    2709    2724      22
    3024    3042    3045    3057       3    3006    3024    3042    3045       3
    2985    3006    3024    3042       3    2982    2967    2979    2994       4
    2982    3000   -3015    2994       4    2979    2967    2982    3000       4
    2979    2994   -3015    3000       4    2970    2985    3006    3024       3
    2967    2979    2994    3015       4    2967    2982   -3000    3015       4
    2958    2970    2985    3006       3    2949    2967    2979    2994       4
    2949    2967    2982    3000       4    2940    2958    2970    2985       3
    2931    2949    2967    2979       5    2931    2949    2967    2982       5
    2928    2949    2967    2979       5    2928    2949    2967    2982       5
    2922    2940    2958    2970       3    2919    2904    2922    2940       6
    2916    2901    2913    2928       4    2916    2931   -2949    2928       4
    2916    2931    2949    2967       4    2913    2901    2916    2931       4
    2913    2928   -2949    2931       4    2913    2928    2949    2967       4
    2910    2919    2904    2922       4    2904    2922    2940    2958       8
    2901    2913    2928    2949       4    2901    2916   -2931    2949       4
    2898    2886   -2889    2901       9    2898    2886    2895    2910      10
    2898    2913    2901    2916       4    2898    2913    2928    2949       4
    2895    2883    2892    2904       4    2895    2886    2889    2901      11
    2895    2886    2898    2913      12    2895    2910   -2919    2904       4
    2892    2883    2895    2910       4    2892    2904   -2919    2910       4
    2892    2904    2922    2940       6    2889    2880    2883    2892      13
    2889    2880   -2883    2892      14    2889    2880   -2883    2892      15
    2889    2880   -2883    2895      13    2889    2880   -2883    2895      14
    2889    2880   -2883    2895      15    2889    2880   -2886    2895      16
    2889    2880   -2886    2898      16    2889    2886    2895    2910      17
    2889    2886   -2898    2913      12    2889    2901   -2913    2898       4
    2889    2901    2913    2928       4    2889    2901    2916    2931       4
    2886    2880    2883    2892      18    2886    2880   -2883    2895      18
    2886    2880   -2889    2901      19    2886    2889   -2901    2913      20
    2886    2889    2901    2916      20    2886    2895   -2883    2892       4
    2886    2895    2910    2919       4    2886    2898   -2913    2901      21
    2886    2898    2913    2928      21    2883    2880   -2886    2889      16
    2883    2880   -2886    2895      16    2883    2880    2886    2898      16
    2883    2880   -2889    2886      19    2883    2880    2889    2901      19
    2883    2892    2904    2919       4    2883    2892    2904    2922       4
    2883    2895   -2886    2889      17    2883    2895   -2886    2898      10
    2883    2895   -2910    2919       4    2880    2883    2892    2904       4
    2880    2883   -2895    2886       4    2880    2883    2895    2910       4
    2880    2886   -2889    2901       9    2880    2886   -2895    2883      10
    2880    2886   -2895    2910      10    2880    2886    2898    2913      12
    2880    2889   -2886    2895       9    2880    2889   -2886    2898       9
    2880    2889   -2901    2913      22    2880    2889    2901    2916      22
    3216    3234    3237    3249       3    3198    3216    3234    3237       3
    3177    3198    3216    3234       3    3174    3159    3171    3186       4
    3174    3192   -3207    3186       4    3171    3159    3174    3192       4
    3171    3186   -3207    3192       4    3162    3177    3198    3216       3
    3159    3171    3186    3207       4    3159    3174   -3192    3207       4
    3150    3162    3177    3198       3    3141    3159    3171    3186       4
    3141    3159    3174    3192       4    3132    3150    3162    3177       3
    3123    3141    3159    3171       5    3123    3141    3159    3174       5
    3120    3141    3159    3171       5    3120    3141    3159    3174       5
    3114    3132    3150    3162       3    3111    3096    3114    3132       6
    3108    3093    3105    3120       4    3108    3123   -3141    3120       4
    3108    3123    3141    3159       4    3105    3093    3108    3123       4
    3105    3120   -3141    3123       4    3105    3120    3141    3159       4
    3102    3111    3096    3114       4    3096    3114    3132    3150       8
    3093    3105    3120    3141       4    3093    3108   -3123    3141       4
    3090    3078   -3081    3093       9    3090    3078    3087    3102      10
    3090    3105    3093    3108       4    3090    3105    3120    3141       4
    3087    3075    3084    3096       4    3087    3078    3081    3093      11
    3087    3078    3090    3105      12    3087    3102   -3111    3096       4
    3084    3075    3087    3102       4    3084    3096   -3111    3102       4
    3084    3096    3114    3132       6    3081    3072    3075    3084      13
    3081    3072   -3075    3084      14    3081    3072   -3075    3084      15
    3081    3072   -3075    3087      13    3081    3072   -3075    3087      14
    3081    3072   -3075    3087      15    3081    3072   -3078    3087      16
    3081    3072   -3078    3090      16    3081    3078    3087    3102      17
    3081    3078   -3090    3105      12    3081    3093   -3105    3090       4
    3081    3093    3105    3120       4    3081    3093    3108    3123       4
    3078    3072    3075    3084      18    3078    3072   -3075    3087      18
    3078    3072   -3081    3093      19    3078    3081   -3093    3105      20
    3078    3081    3093    3108      20    3078    3087   -3075    3084       4
    3078    3087    3102    3111       4    3078    3090   -3105    3093      21
    3078    3090    3105    3120      21    3075    3072   -3078    3081      16
    3075    3072   -3078    3087      16    3075    3072    3078    3090      16
    3075    3072   -3081    3078      19    3075    3072    3081    3093      19
    3075    3084    3096    3111       4    3075    3084    3096    3114       4
    3075    3087   -3078    3081      17    3075    3087   -3078    3090      10
    3075    3087   -3102    3111       4    3072    3075    3084    3096       4
    3072    3075   -3087    3078       4    3072    3075    3087    3102       4
    3072    3078   -3081    3093       9    3072    3078   -3087    3075      10
    3072    3078   -3087    3102      10    3072    3078    3090    3105      12
    3072    3081   -3078    3087       9    3072    3081   -3078    3090       9
    3072    3081   -3093    3105      22    3072    3081    3093    3108      22
    3408    3426    3429    3441       3    3390    3408    3426    3429       3
    3369    3390    3408    3426       3    3366    3351    3363    3378       4
    3366    3384   -3399    3378       4    3363    3351    3366    3384       4
    3363    3378   -3399    3384       4    3354    3369    3390    3408       3
    3351    3363    3378    3399       4    3351    3366   -3384    3399       4
    3342    3354    3369    3390       3    3333    3351    3363    3378       4
    3333    3351    3366    3384       4    3324    3342    3354    3369       3
    3315    3333    3351    3363       5    3315    3333    3351    3366       5
    3312    3333    3351    3363       5    3312    3333    3351    3366       5
    3306    3324    3342    3354       3    3303    3288    3306    3324       6
    3300    3285    3297    3312       4    3300    3315   -3333    3312       4
    3300    3315    3333    3351       4    3297    3285    3300    3315       4
    3297    3312   -3333    3315       4    3297    3312    3333    3351       4
    3294    3303    3288    3306       4    3288    3306    3324    3342       8
    3285    3297    3312    3333       4    3285    3300   -3315    3333       4
    3282    3270   -3273    3285       9    3282    3270    3279    3294      10
    3282    3297    3285    3300       4    3282    3297    3312    3333       4
    3279    3267    3276    3288       4    3279    3270    3273    3285      11
    3279    3270    3282    3297      12    3279    3294   -3303    3288       4
    3276    3267    3279    3294       4    3276    3288   -3303    3294       4
    3276    3288    3306    3324       6    3273    3264    3267    3276      13
    3273    3264   -3267    3276      14    3273    3264   -3267    3276      15
    3273    3264   -3267    3279      13    3273    3264   -3267    3279      14
    3273    3264   -3267    3279      15    3273    3264   -3270    3279      16
    3273    3264   -3270    3282      16    3273    3270    3279    3294      17
    3273    3270   -3282    3297      12    3273    3285   -3297    3282       4
    3273    3285    3297    3312       4    3273    3285    3300    3315       4
    3270    3264    3267    3276      18    3270    3264   -3267    3279      18
    3270    3264   -3273    3285      19    3270    3273   -3285    3297      20
    3270    3273    3285    3300      20    3270    3279   -3267    3276       4
    3270    3279    3294    3303       4    3270    3282   -3297    3285      21
    3270    3282    3297    3312      21    3267    3264   -3270    3273      16
    3267    3264   -3270    3279      16    3267    3264    3270    3282      16
    3267    3264   -3273    3270      19    3267    3264    3273    3285      19
    3267    3276    3288    3303       4    3267    3276    3288    3306       4
    3267    3279   -3270    3273      17    3267    3279   -3270    3282      10
    3267    3279   -3294    3303       4    3264    3267    3276    3288       4
    3264    3267   -3279    3270       4    3264    3267    3279    3294       4
    3264    3270   -3273    3285       9    3264    3270   -3279    3267      10
    3264    3270   -3279    3294      10    3264    3270    3282    3297      12
    3264    3273   -3270    3279       9    3264    3273   -3270    3282       9
    3264    3273   -3285    3297      22    3264    3273    3285    3300      22
    3600    3618    3621    3633       3    3582    3600    3618    3621       3
    3561    3582    3600    3618       3    3558    3543    3555    3570       4
    3558    3576   -3591    3570       4    3555    3543    3558    3576       4
    3555    3570   -3591    3576       4    3546    3561    3582    3600       3
    3543    3555    3570    3591       4    3543    3558   -3576    3591       4
    3534    3546    3561    3582       3    3525    3543    3555    3570       4
    3525    3543    3558    3576       4    3516    3534    3546    3561       3
    3507    3525    3543    3555       5    3507    3525    3543    3558       5
    3504    3525    3543    3555       5    3504    3525    3543    3558       5
    3498    3516    3534    3546       3    3495    3480    3498    3516       6
    3492    3477    3489    3504       4    3492    3507   -3525    3504       4
    3492    3507    3525    3543       4    3489    3477    3492    3507       4
    3489    3504   -3525    3507       4    3489    3504    3525    3543       4
    3486    3495    3480    3498       4    3480    3498    3516    3534       8
    3477    3489    3504    3525       4    3477    3492   -3507    3525       4
    3474    3462   -3465    3477       9    3474    3462    3471    3486      10
    3474    3489    3477    3492       4    3474    3489    3504    3525       4
    3471    3459    3468    3480       4    3471    3462    3465    3477      11
    3471    3462    3474    3489      12    3471    3486   -3495    3480       4
    3468    3459    3471    3486       4    3468    3480   -3495    3486       4
    3468    3480    3498    3516       6    3465    3456    3459    3468      13
    3465    3456   -3459    3468      14    3465    3456   -3459    3468      15
    3465    3456   -3459    3471      13    3465    3456   -3459    3471      14
    3465    3456   -3459    3471      15    3465    3456   -3462    3471      16
    3465    3456   -3462    3474      16    3465    3462    3471    3486      17
    3465    3462   -3474    3489      12    3465    3477   -3489    3474       4
    3465    3477    3489    3504       4    3465    3477    3492    3507       4
    3462    3456    3459    3468      18    3462    3456   -3459    3471      18
    3462    3456   -3465    3477      19    3462    3465   -3477    3489      20
    3462    3465    3477    3492      20    3462    3471   -3459    3468       4
    3462    3471    3486    3495       4    3462    3474   -3489    3477      21
    3462    3474    3489    3504      21    3459    3456   -3462    3465      16
    3459    3456   -3462    3471      16    3459    3456    3462    3474      16
    3459    3456   -3465    3462      19    3459    3456    3465    3477      19
    3459    3468    3480    3495       4    3459    3468    3480    3498       4
    3459    3471   -3462    3465      17    3459    3471   -3462    3474      10
    3459    3471   -3486    3495       4    3456    3459    3468    3480       4
    3456    3459   -3471    3462       4    3456    3459    3471    3486       4
    3456    3462   -3465    3477       9    3456    3462   -3471    3459      10
    3456    3462   -3471    3486      10    3456    3462    3474    3489      12
    3456    3465   -3462    3471       9    3456    3465   -3462    3474       9
    3456    3465   -3477    3489      22    3456    3465    3477    3492      22
    3792    3810    3813    3825       3    3774    3792    3810    3813       3
    3753    3774    3792    3810       3    3750    3735    3747    3762       4
    3750    3768   -3783    3762       4    3747    3735    3750    3768       4
    3747    3762   -3783    3768       4    3738    3753    3774    3792       3
    3735    3747    3762    3783       4    3735    3750   -3768    3783       4
    3726    3738    3753    3774       3    3717    3735    3747    3762       4
    3717    3735    3750    3768       4    3708    3726    3738    3753       3
    3699    3717    3735    3747       5    3699    3717    3735    3750       5
    3696    3717    3735    3747       5    3696    3717    3735    3750       5
    3690    3708    3726    3738       3    3687    3672    3690    3708       6
    3684    3669    3681    3696       4    3684    3699   -3717    3696       4
    3684    3699    3717    3735       4    3681    3669    3684    3699       4
    3681    3696   -3717    3699       4    3681    3696    3717    3735       4
    3678    3687    3672    3690       4    3672    3690    3708    3726       8
    3669    3681    3696    3717       4    3669    3684   -3699    3717       4
    3666    3654   -3657    3669       9    3666    3654    3663    3678      10
    3666    3681    3669    3684       4    3666    3681    3696    3717       4
    3663    3651    3660    3672       4    3663    3654    3657    3669      11
    3663    3654    3666    3681      12    3663    3678   -3687    3672       4
    3660    3651    3663    3678       4    3660    3672   -3687    3678       4
    3660    3672    3690    3708       6    3657    3648    3651    3660      13
    3657    3648   -3651    3660      14    3657    3648   -3651    3660      15
    3657    3648   -3651    3663      13    3657    3648   -3651    3663      14
    3657    3648   -3651    3663      15    3657    3648   -3654    3663      16
    3657    3648   -3654    3666      16    3657    3654    3663    3678      17
    3657    3654   -3666    3681      12    3657    3669   -3681    3666       4
    3657    3669    3681    3696       4    3657    3669    3684    3699       4
    3654    3648    3651    3660      18    3654    3648   -3651    3663      18
    3654    3648   -3657    3669      19    3654    3657   -3669    3681      20
    3654    3657    3669    3684      20    3654    3663   -3651    3660       4
    3654    3663    3678    3687       4    3654    3666   -3681    3669      21
    3654    3666    3681    3696      21    3651    3648   -3654    3657      16
    3651    3648   -3654    3663      16    3651    3648    3654    3666      16
    3651    3648   -3657    3654      19    3651    3648    3657    3669      19
    3651    3660    3672    3687       4    3651    3660    3672    3690       4
    3651    3663   -3654    3657      17    3651    3663   -3654    3666      10
    3651    3663   -3678    3687       4    3648    3651    3660    3672       4
    3648    3651   -3663    3654       4    3648    3651    3663    3678       4
    3648    3654   -3657    3669       9    3648    3654   -3663    3651      10
    3648    3654   -3663    3678      10    3648    3654    3666    3681      12
    3648    3657   -3654    3663       9    3648    3657   -3654    3666       9
    3648    3657   -3669    3681      22    3648    3657    3669    3684      22
    3984    4002    4005    4017       3    3966    3984    4002    4005       3
    3945    3966    3984    4002       3    3942    3927    3939    3954       4
    3942    3960   -3975    3954       4    3939    3927    3942    3960       4
    3939    3954   -3975    3960       4    3930    3945    3966    3984       3
    3927    3939    3954    3975       4    3927    3942   -3960    3975       4
    3918    3930    3945    3966       3    3909    3927    3939    3954       4
    3909    3927    3942    3960       4    3900    3918    3930    3945       3
    3891    3909    3927    3939       5    3891    3909    3927    3942       5
    3888    3909    3927    3939       5    3888    3909    3927    3942       5
    3882    3900    3918    3930       3    3879    3864    3882    3900       6
    3876    3861    3873    3888       4    3876    3891   -3909    3888       4
    3876    3891    3909    3927       4    3873    3861    3876    3891       4
    3873    3888   -3909    3891       4    3873    3888    3909    3927       4
    3870    3879    3864    3882       4    3864    3882    3900    3918       8
    3861    3873    3888    3909       4    3861    3876   -3891    3909       4
    3858    3846   -3849    3861       9    3858    3846    3855    3870      10
    3858    3873    3861    3876       4    3858    3873    3888    3909       4
    3855    3843    3852    3864       4    3855    3846    3849    3861      11
    3855    3846    3858    3873      12    3855    3870   -3879    3864       4
    3852    3843    3855    3870       4    3852    3864   -3879    3870       4
    3852    3864    3882    3900       6    3849    3840    3843    3852      13
    3849    3840   -3843    3852      14    3849    3840   -3843    3852      15
    3849    3840   -3843    3855      13    3849    3840   -3843    3855      14
    3849    3840   -3843    3855      15    3849    3840   -3846    3855      16
    3849    3840   -3846    3858      16    3849    3846    3855    3870      17
    3849    3846   -3858    3873      12    3849    3861   -3873    3858       4
    3849    3861    3873    3888       4    3849    3861    3876    3891       4
    3846    3840    3843    3852      18    3846    3840   -3843    3855      18
    3846    3840   -3849    3861      19    3846    3849   -3861    3873      20
    3846    3849    3861    3876      20    3846    3855   -3843    3852       4
    3846    3855    3870    3879       4    3846    3858   -3873    3861      21
    3846    3858    3873    3888      21    3843    3840   -3846    3849      16
    3843    3840   -3846    3855      16    3843    3840    3846    3858      16
    3843    3840   -3849    3846      19    3843    3840    3849    3861      19
    3843    3852    3864    3879       4    3843    3852    3864    3882       4
    3843    3855   -3846    3849      17    3843    3855   -3846    3858      10
    3843    3855   -3870    3879       4    3840    3843    3852    3864       4
    3840    3843   -3855    3846       4    3840    3843    3855    3870       4
    3840    3846   -3849    3861       9    3840    3846   -3855    3843      10
    3840    3846   -3855    3870      10    3840    3846    3858    3873      12
    3840    3849   -3846    3855       9    3840    3849   -3846    3858       9
    3840    3849   -3861    3873      22    3840    3849    3861    3876      22
    4176    4194    4197    4209       3    4158    4176    4194    4197       3
    4137    4158    4176    4194       3    4134    4119    4131    4146       4
    4134    4152   -4167    4146       4    4131    4119    4134    4152       4
    4131    4146   -4167    4152       4    4122    4137    4158    4176       3
    4119    4131    4146    4167       4    4119    4134   -4152    4167       4
    4110    4122    4137    4158       3    4101    4119    4131    4146       4
    4101    4119    4134    4152       4    4092    4110    4122    4137       3
    4083    4101    4119    4131       5    4083    4101    4119    4134       5
    4080    4101    4119    4131       5    4080    4101    4119    4134       5
    4074    4092    4110    4122       3    4071    4056    4074    4092       6
    4068    4053    4065    4080       4    4068    4083   -4101    4080       4
    4068    4083    4101    4119       4    4065    4053    4068    4083       4
    4065    4080   -4101    4083       4    4065    4080    4101    4119       4
    4062    4071    4056    4074       4    4056    4074    4092    4110       8
    4053    4065    4080    4101       4    4053    4068   -4083    4101       4
    4050    4038   -4041    4053       9    4050    4038    4047    4062      10
    4050    4065    4053    4068       4    4050    4065    4080    4101       4
    4047    4035    4044    4056       4    4047    4038    4041    4053      11
    4047    4038    4050    4065      12    4047    4062   -4071    4056       4
    4044    4035    4047    4062       4    4044    4056   -4071    4062       4
    4044    4056    4074    4092       6    4041    4032    4035    4044      13
    4041    4032   -4035    4044      14    4041    4032   -4035    4044      15
    4041    4032   -4035    4047      13    4041    4032   -4035    4047      14
    4041    4032   -4035    4047      15    4041    4032   -4038    4047      16
    4041    4032   -4038    4050      16    4041    4038    4047    4062      17
    4041    4038   -4050    4065      12    4041    4053   -4065    4050       4
    4041    4053    4065    4080       4    4041    4053    4068    4083       4
    4038    4032    4035    4044      18    4038    4032   -4035    4047      18
    4038    4032   -4041    4053      19    4038    4041   -4053    4065      20
    4038    4041    4053    4068      20    4038    4047   -4035    4044       4
    4038    4047    4062    4071       4    4038    4050   -4065    4053      21
    4038    4050    4065    4080      21    4035    4032   -4038    4041      16
    4035    4032   -4038    4047      16    4035    4032    4038    4050      16
    4035    4032   -4041    4038      19    4035    4032    4041    4053      19
    4035    4044    4056    4071       4    4035    4044    4056    4074       4
    4035    4047   -4038    4041      17    4035    4047   -4038    4050      10
    4035    4047   -4062    4071       4    4032    4035    4044    4056       4
    4032    4035   -4047    4038       4    4032    4035    4047    4062       4
    4032    4038   -4041    4053       9    4032    4038   -4047    4035      10
    4032    4038   -4047    4062      10    4032    4038    4050    4065      12
    4032    4041   -4038    4047       9    4032    4041   -4038    4050       9
    4032    4041   -4053    4065      22    4032    4041    4053    4068      22
    4368    4386    4389    4401       3    4350    4368    4386    4389       3
    4329    4350    4368    4386       3    4326    4311    4323    4338       4
    4326    4344   -4359    4338       4    4323    4311    4326    4344       4
    4323    4338   -4359    4344       4    4314    4329    4350    4368       3
    4311    4323    4338    4359       4    4311    4326   -4344    4359       4
    4302    4314    4329    4350       3    4293    4311    4323    4338       4
    4293    4311    4326    4344       4    4284    4302    4314    4329       3
    4275    4293    4311    4323       5    4275    4293    4311    4326       5
    4272    4293    4311    4323       5    4272    4293    4311    4326       5
    4266    4284    4302    4314       3    4263    4248    4266    4284       6
    4260    4245    4257    4272       4    4260    4275   -4293    4272       4
    4260    4275    4293    4311       4    4257    4245    4260    4275       4
    4257    4272   -4293    4275       4    4257    4272    4293    4311       4
    4254    4263    4248    4266       4    4248    4266    4284    4302       8
    4245    4257    4272    4293       4    4245    4260   -4275    4293       4
    4242    4230   -4233    4245       9    4242    4230    4239    4254      10
    4242    4257    4245    4260       4    4242    4257    4272    4293       4
    4239    4227    4236    4248       4    4239    4230    4233    4245      11
    4239    4230    4242    4257      12    4239    4254   -4263    4248       4
    4236    4227    4239    4254       4    4236    4248   -4263    4254       4
    4236    4248    4266    4284       6    4233    4224    4227    4236      13
    4233    4224   -4227    4236      14    4233    4224   -4227    4236      15
    4233    4224   -4227    4239      13    4233    4224   -4227    4239      14
    4233    4224   -4227    4239      15    4233    4224   -4230    4239      16
    4233    4224   -4230    4242      16    4233    4230    4239    4254      17
    4233    4230   -4242    4257      12    4233    4245   -4257    4242       4
    4233    4245    4257    4272       4    4233    4245    4260    4275       4
    4230    4224    4227    4236      18    4230    4224   -4227    4239      18
    4230    4224   -4233    4245      19    4230    4233   -4245    4257      20
    4230    4233    4245    4260      20    4230    4239   -4227    4236       4
    4230    4239    4254    4263       4    4230    4242   -4257    4245      21
    4230    4242    4257    4272      21    4227    4224   -4230    4233      16
    4227    4224   -4230    4239      16    4227    4224    4230    4242      16
    4227    4224   -4233    4230      19    4227    4224    4233    4245      19
    4227    4236    4248    4263       4    4227    4236    4248    4266       4
    4227    4239   -4230    4233      17    4227    4239   -4230    4242      10
    4227    4239   -4254    4263       4    4224    4227    4236    4248       4
    4224    4227   -4239    4230       4    4224    4227    4239    4254       4
    4224    4230   -4233    4245       9    4224    4230   -4239    4227      10
    4224    4230   -4239    4254      10    4224    4230    4242    4257      12
    4224    4233   -4230    4239       9    4224    4233   -4230    4242       9
    4224    4233   -4245    4257      22    4224    4233    4245    4260      22
    4560    4578    4581    4593       3    4542    4560    4578    4581       3
    4521    4542    4560    4578       3    4518    4503    4515    4530       4
    4518    4536   -4551    4530       4    4515    4503    4518    4536       4
    4515    4530   -4551    4536       4    4506    4521    4542    4560       3
    4503    4515    4530    4551       4    4503    4518   -4536    4551       4
    4494    4506    4521    4542       3    4485    4503    4515    4530       4
    4485    4503    4518    4536       4    4476    4494    4506    4521       3
    4467    4485    4503    4515       5    4467    4485    4503    4518       5
    4464    4485    4503    4515       5    4464    4485    4503    4518       5
    4458    4476    4494    4506       3    4455    4440    4458    4476       6
    4452    4437    4449    4464       4    4452    4467   -4485    4464       4
    4452    4467    4485    4503       4    4449    4437    4452    4467       4
    4449    4464   -4485    4467       4    4449    4464    4485    4503       4
    4446    4455    4440    4458       4    4440    4458    4476    4494       8
    4437    4449    4464    4485       4    4437    4452   -4467    4485       4
    4434    4422   -4425    4437       9    4434    4422    4431    4446      10
    4434    4449    4437    4452       4    4434    4449    4464    4485       4
    4431    4419    4428    4440       4    4431    4422    4425    4437      11
    4431    4422    4434    4449      12    4431    4446   -4455    4440       4
    4428    4419    4431    4446       4    4428    4440   -4455    4446       4
    4428    4440    4458    4476       6    4425    4416    4419    4428      13
    4425    4416   -4419    4428      14    4425    4416   -4419    4428      15
    4425    4416   -4419    4431      13    4425    4416   -4419    4431      14
    4425    4416   -4419    4431      15    4425    4416   -4422    4431      16
    4425    4416   -4422    4434      16    4425    4422    4431    4446      17
    4425    4422   -4434    4449      12    4425    4437   -4449    4434       4
    4425    4437    4449    4464       4    4425    4437    4452    4467       4
    4422    4416    4419    4428      18    4422    4416   -4419    4431      18
    4422    4416   -4425    4437      19    4422    4425   -4437    4449      20
    4422    4425    4437    4452      20    4422    4431   -4419    4428       4
    4422    4431    4446    4455       4    4422    4434   -4449    4437      21
    4422    4434    4449    4464      21    4419    4416   -4422    4425      16
    4419    4416   -4422    4431      16    4419    4416    4422    4434      16
    4419    4416   -4425    4422      19    4419    4416    4425    4437      19
    4419    4428    4440    4455       4    4419    4428    4440    4458       4
    4419    4431   -4422    4425      17    4419    4431   -4422    4434      10
    4419    4431   -4446    4455       4    4416    4419    4428    4440       4
    4416    4419   -4431    4422       4    4416    4419    4431    4446       4
    4416    4422   -4425    4437       9    4416    4422   -4431    4419      10
    4416    4422   -4431    4446      10    4416    4422    4434    4449      12
    4416    4425   -4422    4431       9    4416    4425   -4422    4434       9
    4416    4425   -4437    4449      22    4416    4425    4437    4452      22
    4752    4770    4773    4785       3    4734    4752    4770    4773       3
    4713    4734    4752    4770       3    4710    4695    4707    4722       4
    4710    4728   -4743    4722       4    4707    4695    4710    4728       4
    4707    4722   -4743    4728       4    4698    4713    4734    4752       3
    4695    4707    4722    4743       4    4695    4710   -4728    4743       4
    4686    4698    4713    4734       3    4677    4695    4707    4722       4
    4677    4695    4710    4728       4    4668    4686    4698    4713       3
    4659    4677    4695    4707       5    4659    4677    4695    4710       5
    4656    4677    4695    4707       5    4656    4677    4695    4710       5
    4650    4668    4686    4698       3    4647    4632    4650    4668       6
    4644    4629    4641    4656       4    4644    4659   -4677    4656       4
    4644    4659    4677    4695       4    4641    4629    4644    4659       4
    4641    4656   -4677    4659       4    4641    4656    4677    4695       4
    4638    4647    4632    4650       4    4632    4650    4668    4686       8
    4629    4641    4656    4677       4    4629    4644   -4659    4677       4
    4626    4614   -4617    4629       9    4626    4614    4623    4638      10
    4626    4641    4629    4644       4    4626    4641    4656    4677       4
    4623    4611    4620    4632       4    4623    4614    4617    4629      11
    4623    4614    4626    4641      12    4623    4638   -4647    4632       4
    4620    4611    4623    4638       4    4620    4632   -4647    4638       4
    4620    4632    4650    4668       6    4617    4608    4611    4620      13
    4617    4608   -4611    4620      14    4617    4608   -4611    4620      15
    4617    4608   -4611    4623      13    4617    4608   -4611    4623      14
    4617    4608   -4611    4623      15    4617    4608   -4614    4623      16
    4617    4608   -4614    4626      16    4617    4614    4623    4638      17
    4617    4614   -4626    4641      12    4617    4629   -4641    4626       4
    4617    4629    4641    4656       4    4617    4629    4644    4659       4
    4614    4608    4611    4620      18    4614    4608   -4611    4623      18
    4614    4608   -4617    4629      19    4614    4617   -4629    4641      20
    4614    4617    4629    4644      20    4614    4623   -4611    4620       4
    4614    4623    4638    4647       4    4614    4626   -4641    4629      21
    4614    4626    4641    4656      21    4611    4608   -4614    4617      16
    4611    4608   -4614    4623      16    4611    4608    4614    4626      16
    4611    4608   -4617    4614      19    4611    4608    4617    4629      19
    4611    4620    4632    4647       4    4611    4620    4632    4650       4
    4611    4623   -4614    4617      17    4611    4623   -4614    4626      10
    4611    4623   -4638    4647       4    4608    4611    4620    4632       4
    4608    4611   -4623    4614       4    4608    4611    4623    4638       4
    4608    4614   -4617    4629       9    4608    4614   -4623    4611      10
    4608    4614   -4623    4638      10    4608    4614    4626    4641      12
    4608    4617   -4614    4623       9    4608    4617   -4614    4626       9
    4608    4617   -4629    4641      22    4608    4617    4629    4644      22
    4944    4962    4965    4977       3    4926    4944    4962    4965       3
    4905    4926    4944    4962       3    4902    4887    4899    4914       4
    4902    4920   -4935    4914       4    4899    4887    4902    4920       4
    4899    4914   -4935    4920       4    4890    4905    4926    4944       3
    4887    4899    4914    4935       4    4887    4902   -4920    4935       4
    4878    4890    4905    4926       3    4869    4887    4899    4914       4
    4869    4887    4902    4920       4    4860    4878    4890    4905       3
    4851    4869    4887    4899       5    4851    4869    4887    4902       5
    4848    4869    4887    4899       5    4848    4869    4887    4902       5
    4842    4860    4878    4890       3    4839    4824    4842    4860       6
    4836    4821    4833    4848       4    4836    4851   -4869    4848       4
    4836    4851    4869    4887       4    4833    4821    4836    4851       4
    4833    4848   -4869    4851       4    4833    4848    4869    4887       4
    4830    4839    4824    4842       4    4824    4842    4860    4878       8
    4821    4833    4848    4869       4    4821    4836   -4851    4869       4
    4818    4806   -4809    4821       9    4818    4806    4815    4830      10
    4818    4833    4821    4836       4    4818    4833    4848    4869       4
    4815    4803    4812    4824       4    4815    4806    4809    4821      11
    4815    4806    4818    4833      12    4815    4830   -4839    4824       4
    4812    4803    4815    4830       4    4812    4824   -4839    4830       4
    4812    4824    4842    4860       6    4809    4800    4803    4812      13
    4809    4800   -4803    4812      14    4809    4800   -4803    4812      15
    4809    4800   -4803    4815      13    4809    4800   -4803    4815      14
    4809    4800   -4803    4815      15    4809    4800   -4806    4815      16
    4809    4800   -4806    4818      16    4809    4806    4815    4830      17
    4809    4806   -4818    4833      12    4809    4821   -4833    4818       4
    4809    4821    4833    4848       4    4809    4821    4836    4851       4
    4806    4800    4803    4812      18    4806    4800   -4803    4815      18
    4806    4800   -4809    4821      19    4806    4809   -4821    4833      20
    4806    4809    4821    4836      20    4806    4815   -4803    4812       4
    4806    4815    4830    4839       4    4806    4818   -4833    4821      21
    4806    4818    4833    4848      21    4803    4800   -4806    4809      16
    4803    4800   -4806    4815      16    4803    4800    4806    4818      16
    4803    4800   -4809    4806      19    4803    4800    4809    4821      19
    4803    4812    4824    4839       4    4803    4812    4824    4842       4
    4803    4815   -4806    4809      17    4803    4815   -4806    4818      10
    4803    4815   -4830    4839       4    4800    4803    4812    4824       4
    4800    4803   -4815    4806       4    4800    4803    4815    4830       4
    4800    4806   -4809    4821       9    4800    4806   -4815    4803      10
    4800    4806   -4815    4830      10    4800    4806    4818    4833      12
    4800    4809   -4806    4815       9    4800    4809   -4806    4818       9
    4800    4809   -4821    4833      22    4800    4809    4821    4836      22
    5136    5154    5157    5169       3    5118    5136    5154    5157       3
    5097    5118    5136    5154       3    5094    5079    5091    5106       4
    5094    5112   -5127    5106       4    5091    5079    5094    5112       4
    5091    5106   -5127    5112       4    5082    5097    5118    5136       3
    5079    5091    5106    5127       4    5079    5094   -5112    5127       4
    5070    5082    5097    5118       3    5061    5079    5091    5106       4
    5061    5079    5094    5112       4    5052    5070    5082    5097       3
    5043    5061    5079    5091       5    5043    5061    5079    5094       5
    5040    5061    5079    5091       5    5040    5061    5079    5094       5
    5034    5052    5070    5082       3    5031    5016    5034    5052       6
    5028    5013    5025    5040       4    5028    5043   -5061    5040       4
    5028    5043    5061    5079       4    5025    5013    5028    5043       4
    5025    5040   -5061    5043       4    5025    5040    5061    5079       4
    5022    5031    5016    5034       4    5016    5034    5052    5070       8
    5013    5025    5040    5061       4    5013    5028   -5043    5061       4
    5010    4998   -5001    5013       9    5010    4998    5007    5022      10
    5010    5025    5013    5028       4    5010    5025    5040    5061       4
    5007    4995    5004    5016       4    5007    4998    5001    5013      11
    5007    4998    5010    5025      12    5007    5022   -5031    5016       4
    5004    4995    5007    5022       4    5004    5016   -5031    5022       4
    5004    5016    5034    5052       6    5001    4992    4995    5004      13
    5001    4992   -4995    5004      14    5001    4992   -4995    5004      15
    5001    4992   -4995    5007      13    5001    4992   -4995    5007      14
    5001    4992   -4995    5007      15    5001    4992   -4998    5007      16
    5001    4992   -4998    5010      16    5001    4998    5007    5022      17
    5001    4998   -5010    5025      12    5001    5013   -5025    5010       4
    5001    5013    5025    5040       4    5001    5013    5028    5043       4
    4998    4992    4995    5004      18    4998    4992   -4995    5007      18
    4998    4992   -5001    5013      19    4998    5001   -5013    5025      20
    4998    5001    5013    5028      20    4998    5007   -4995    5004       4
    4998    5007    5022    5031       4    4998    5010   -5025    5013      21
    4998    5010    5025    5040      21    4995    4992   -4998    5001      16
    4995    4992   -4998    5007      16    4995    4992    4998    5010      16
    4995    4992   -5001    4998      19    4995    4992    5001    5013      19
    4995    5004    5016    5031       4    4995    5004    5016    5034       4
    4995    5007   -4998    5001      17    4995    5007   -4998    5010      10
    4995    5007   -5022    5031       4    4992    4995    5004    5016       4
    4992    4995   -5007    4998       4    4992    4995    5007    5022       4
    4992    4998   -5001    5013       9    4992    4998   -5007    4995      10
    4992    4998   -5007    5022      10    4992    4998    5010    5025      12
    4992    5001   -4998    5007       9    4992    5001   -4998    5010       9
    4992    5001   -5013    5025      22    4992    5001    5013    5028      22
    5328    5346    5349    5361       3    5310    5328    5346    5349       3
    5289    5310    5328    5346       3    5286    5271    5283    5298       4
    5286    5304   -5319    5298       4    5283    5271    5286    5304       4
    5283    5298   -5319    5304       4    5274    5289    5310    5328       3
    5271    5283    5298    5319       4    5271    5286   -5304    5319       4
    5262    5274    5289    5310       3    5253    5271    5283    5298       4
    5253    5271    5286    5304       4    5244    5262    5274    5289       3
    5235    5253    5271    5283       5    5235    5253    5271    5286       5
    5232    5253    5271    5283       5    5232    5253    5271    5286       5
    5226    5244    5262    5274       3    5223    5208    5226    5244       6
    5220    5205    5217    5232       4    5220    5235   -5253    5232       4
    5220    5235    5253    5271       4    5217    5205    5220    5235       4
    5217    5232   -5253    5235       4    5217    5232    5253    5271       4
    5214    5223    5208    5226       4    5208    5226    5244    5262       8
    5205    5217    5232    5253       4    5205    5220   -5235    5253       4
    5202    5190   -5193    5205       9    5202    5190    5199    5214      10
    5202    5217    5205    5220       4    5202    5217    5232    5253       4
    5199    5187    5196    5208       4    5199    5190    5193    5205      11
    5199    5190    5202    5217      12    5199    5214   -5223    5208       4
    5196    5187    5199    5214       4    5196    5208   -5223    5214       4
    5196    5208    5226    5244       6    5193    5184    5187    5196      13
    5193    5184   -5187    5196      14    5193    5184   -5187    5196      15
    5193    5184   -5187    5199      13    5193    5184   -5187    5199      14
    5193    5184   -5187    5199      15    5193    5184   -5190    5199      16
    5193    5184   -5190    5202      16    5193    5190    5199    5214      17
    5193    5190   -5202    5217      12    5193    5205   -5217    5202       4
    5193    5205    5217    5232       4    5193    5205    5220    5235       4
    5190    5184    5187    5196      18    5190    5184   -5187    5199      18
    5190    5184   -5193    5205      19    5190    5193   -5205    5217      20
    5190    5193    5205    5220      20    5190    5199   -5187    5196       4
    5190    5199    5214    5223       4    5190    5202   -5217    5205      21
    5190    5202    5217    5232      21    5187    5184   -5190    5193      16
    5187    5184   -5190    5199      16    5187    5184    5190    5202      16
    5187    5184   -5193    5190      19    5187    5184    5193    5205      19
    5187    5196    5208    5223       4    5187    5196    5208    5226       4
    5187    5199   -5190    5193      17    5187    5199   -5190    5202      10
    5187    5199   -5214    5223       4    5184    5187    5196    5208       4
    5184    5187   -5199    5190       4    5184    5187    5199    5214       4
    5184    5190   -5193    5205       9    5184    5190   -5199    5187      10
    5184    5190   -5199    5214      10    5184    5190    5202    5217      12
    5184    5193   -5190    5199       9    5184    5193   -5190    5202       9
    5184    5193   -5205    5217      22    5184    5193    5205    5220      22
    5520    5538    5541    5553       3    5502    5520    5538    5541       3
    5481    5502    5520    5538       3    5478    5463    5475    5490       4
    5478    5496   -5511    5490       4    5475    5463    5478    5496       4
    5475    5490   -5511    5496       4    5466    5481    5502    5520       3
    5463    5475    5490    5511       4    5463    5478   -5496    5511       4
    5454    5466    5481    5502       3    5445    5463    5475    5490       4
    5445    5463    5478    5496       4    5436    5454    5466    5481       3
    5427    5445    5463    5475       5    5427    5445    5463    5478       5
    5424    5445    5463    5475       5    5424    5445    5463    5478       5
    5418    5436    5454    5466       3    5415    5400    5418    5436       6
    5412    5397    5409    5424       4    5412    5427   -5445    5424       4
    5412    5427    5445    5463       4    5409    5397    5412    5427       4
    5409    5424   -5445    5427       4    5409    5424    5445    5463       4
    5406    5415    5400    5418       4    5400    5418    5436    5454       8
    5397    5409    5424    5445       4    5397    5412   -5427    5445       4
    5394    5382   -5385    5397       9    5394    5382    5391    5406      10
    5394    5409    5397    5412       4    5394    5409    5424    5445       4
    5391    5379    5388    5400       4    5391    5382    5385    5397      11
    5391    5382    5394    5409      12    5391    5406   -5415    5400       4
    5388    5379    5391    5406       4    5388    5400   -5415    5406       4
    5388    5400    5418    5436       6    5385    5376    5379    5388      13
    5385    5376   -5379    5388      14    5385    5376   -5379    5388      15
    5385    5376   -5379    5391      13    5385    5376   -5379    5391      14
    5385    5376   -5379    5391      15    5385    5376   -5382    5391      16
    5385    5376   -5382    5394      16    5385    5382    5391    5406      17
    5385    5382   -5394    5409      12    5385    5397   -5409    5394       4
    5385    5397    5409    5424       4    5385    5397    5412    5427       4
    5382    5376    5379    5388      18    5382    5376   -5379    5391      18
    5382    5376   -5385    5397      19    5382    5385   -5397    5409      20
    5382    5385    5397    5412      20    5382    5391   -5379    5388       4
    5382    5391    5406    5415       4    5382    5394   -5409    5397      21
    5382    5394    5409    5424      21    5379    5376   -5382    5385      16
    5379    5376   -5382    5391      16    5379    5376    5382    5394      16
    5379    5376   -5385    5382      19    5379    5376    5385    5397      19
    5379    5388    5400    5415       4    5379    5388    5400    5418       4
    5379    5391   -5382    5385      17    5379    5391   -5382    5394      10
    5379    5391   -5406    5415       4    5376    5379    5388    5400       4
    5376    5379   -5391    5382       4    5376    5379    5391    5406       4
    5376    5382   -5385    5397       9    5376    5382   -5391    5379      10
    5376    5382   -5391    5406      10    5376    5382    5394    5409      12
    5376    5385   -5382    5391       9    5376    5385   -5382    5394       9
    5376    5385   -5397    5409      22    5376    5385    5397    5412      22
    5712    5730    5733    5745       3    5694    5712    5730    5733       3
    5673    5694    5712    5730       3    5670    5655    5667    5682       4
    5670    5688   -5703    5682       4    5667    5655    5670    5688       4
    5667    5682   -5703    5688       4    5658    5673    5694    5712       3
    5655    5667    5682    5703       4    5655    5670   -5688    5703       4
    5646    5658    5673    5694       3    5637    5655    5667    5682       4
    5637    5655    5670    5688       4    5628    5646    5658    5673       3
    5619    5637    5655    5667       5    5619    5637    5655    5670       5
    5616    5637    5655    5667       5    5616    5637    5655    5670       5
    5610    5628    5646    5658       3    5607    5592    5610    5628       6
    5604    5589    5601    5616       4    5604    5619   -5637    5616       4
    5604    5619    5637    5655       4    5601    5589    5604    5619       4
    5601    5616   -5637    5619       4    5601    5616    5637    5655       4
    5598    5607    5592    5610       4    5592    5610    5628    5646       8
    5589    5601    5616    5637       4    5589    5604   -5619    5637       4
    5586    5574   -5577    5589       9    5586    5574    5583    5598      10
    5586    5601    5589    5604       4    5586    5601    5616    5637       4
    5583    5571    5580    5592       4    5583    5574    5577    5589      11
    5583    5574    5586    5601      12    5583    5598   -5607    5592       4
    5580    5571    5583    5598       4    5580    5592   -5607    5598       4
    5580    5592    5610    5628       6    5577    5568    5571    5580      13
    5577    5568   -5571    5580      14    5577    5568   -5571    5580      15
    5577    5568   -5571    5583      13    5577    5568   -5571    5583      14
    5577    5568   -5571    5583      15    5577    5568   -5574    5583      16
    5577    5568   -5574    5586      16    5577    5574    5583    5598      17
    5577    5574   -5586    5601      12    5577    5589   -5601    5586       4
    5577    5589    5601    5616       4    5577    5589    5604    5619       4
    5574    5568    5571    5580      18    5574    5568   -5571    5583      18
    5574    5568   -5577    5589      19    5574    5577   -5589    5601      20
    5574    5577    5589    5604      20    5574    5583   -5571    5580       4
    5574    5583    5598    5607       4    5574    5586   -5601    5589      21
    5574    5586    5601    5616      21    5571    5568   -5574    5577      16
    5571    5568   -5574    5583      16    5571    5568    5574    5586      16
    5571    5568   -5577    5574      19    5571    5568    5577    5589      19
    5571    5580    5592    5607       4    5571    5580    5592    5610       4
    5571    5583   -5574    5577      17    5571    5583   -5574    5586      10
    5571    5583   -5598    5607       4    5568    5571    5580    5592       4
    5568    5571   -5583    5574       4    5568    5571    5583    5598       4
    5568    5574   -5577    5589       9    5568    5574   -5583    5571      10
    5568    5574   -5583    5598      10    5568    5574    5586    5601      12
    5568    5577   -5574    5583       9    5568    5577   -5574    5586       9
    5568    5577   -5589    5601      22    5568    5577    5589    5604      22
    5904    5922    5925    5937       3    5886    5904    5922    5925       3
    5865    5886    5904    5922       3    5862    5847    5859    5874       4
    5862    5880   -5895    5874       4    5859    5847    5862    5880       4
    5859    5874   -5895    5880       4    5850    5865    5886    5904       3
    5847    5859    5874    5895       4    5847    5862   -5880    5895       4
    5838    5850    5865    5886       3    5829    5847    5859    5874       4
    5829    5847    5862    5880       4    5820    5838    5850    5865       3
    5811    5829    5847    5859       5    5811    5829    5847    5862       5
    5808    5829    5847    5859       5    5808    5829    5847    5862       5
    5802    5820    5838    5850       3    5799    5784    5802    5820       6
    5796    5781    5793    5808       4    5796    5811   -5829    5808       4
    5796    5811    5829    5847       4    5793    5781    5796    5811       4
    5793    5808   -5829    5811       4    5793    5808    5829    5847       4
    5790    5799    5784    5802       4    5784    5802    5820    5838       8
    5781    5793    5808    5829       4    5781    5796   -5811    5829       4
    5778    5766   -5769    5781       9    5778    5766    5775    5790      10
    5778    5793    5781    5796       4    5778    5793    5808    5829       4
    5775    5763    5772    5784       4    5775    5766    5769    5781      11
    5775    5766    5778    5793      12    5775    5790   -5799    5784       4
    5772    5763    5775    5790       4    5772    5784   -5799    5790       4
    5772    5784    5802    5820       6    5769    5760    5763    5772      13
    5769    5760   -5763    5772      14    5769    5760   -5763    5772      15
    5769    5760   -5763    5775      13    5769    5760   -5763    5775      14
    5769    5760   -5763    5775      15    5769    5760   -5766    5775      16
    5769    5760   -5766    5778      16    5769    5766    5775    5790      17
    5769    5766   -5778    5793      12    5769    5781   -5793    5778       4
    5769    5781    5793    5808       4    5769    5781    5796    5811       4
    5766    5760    5763    5772      18    5766    5760   -5763    5775      18
    5766    5760   -5769    5781      19    5766    5769   -5781    5793      20
    5766    5769    5781    5796      20    5766    5775   -5763    5772       4
    5766    5775    5790    5799       4    5766    5778   -5793    5781      21
    5766    5778    5793    5808      21    5763    5760   -5766    5769      16
    5763    5760   -5766    5775      16    5763    5760    5766    5778      16
    5763    5760   -5769    5766      19    5763    5760    5769    5781      19
    5763    5772    5784    5799       4    5763    5772    5784    5802       4
    5763    5775   -5766    5769      17    5763    5775   -5766    5778      10
    5763    5775   -5790    5799       4    5760    5763    5772    5784       4
    5760    5763   -5775    5766       4    5760    5763    5775    5790       4
    5760    5766   -5769    5781       9    5760    5766   -5775    5763      10
    5760    5766   -5775    5790      10    5760    5766    5778    5793      12
    5760    5769   -5766    5775       9    5760    5769   -5766    5778       9
    5760    5769   -5781    5793      22    5760    5769    5781    5796      22
    6096    6114    6117    6129       3    6078    6096    6114    6117       3
    6057    6078    6096    6114       3    6054    6039    6051    6066       4
    6054    6072   -6087    6066       4    6051    6039    6054    6072       4
    6051    6066   -6087    6072       4    6042    6057    6078    6096       3
    6039    6051    6066    6087       4    6039    6054   -6072    6087       4
    6030    6042    6057    6078       3    6021    6039    6051    6066       4
    6021    6039    6054    6072       4    6012    6030    6042    6057       3
    6003    6021    6039    6051       5    6003    6021    6039    6054       5
    6000    6021    6039    6051       5    6000    6021    6039    6054       5
    5994    6012    6030    6042       3    5991    5976    5994    6012       6
    5988    5973    5985    6000       4    5988    6003   -6021    6000       4
    5988    6003    6021    6039       4    5985    5973    5988    6003       4
    5985    6000   -6021    6003       4    5985    6000    6021    6039       4
    5982    5991    5976    5994       4    5976    5994    6012    6030       8
    5973    5985    6000    6021       4    5973    5988   -6003    6021       4
    5970    5958   -5961    5973       9    5970    5958    5967    5982      10
    5970    5985    5973    5988       4    5970    5985    6000    6021       4
    5967    5955    5964    5976       4    5967    5958    5961    5973      11
    5967    5958    5970    5985      12    5967    5982   -5991    5976       4
    5964    5955    5967    5982       4    5964    5976   -5991    5982       4
    5964    5976    5994    6012       6    5961    5952    5955    5964      13
    5961    5952   -5955    5964      14    5961    5952   -5955    5964      15
    5961    5952   -5955    5967      13    5961    5952   -5955    5967      14
    5961    5952   -5955    5967      15    5961    5952   -5958    5967      16
    5961    5952   -5958    5970      16    5961    5958    5967    5982      17
    5961    5958   -5970    5985      12    5961    5973   -5985    5970       4
    5961    5973    5985    6000       4    5961    5973    5988    6003       4
    5958    5952    5955    5964      18    5958    5952   -5955    5967      18
    5958    5952   -5961    5973      19    5958    5961   -5973    5985      20
    5958    5961    5973    5988      20    5958    5967   -5955    5964       4
    5958    5967    5982    5991       4    5958    5970   -5985    5973      21
    5958    5970    5985    6000      21    5955    5952   -5958    5961      16
    5955    5952   -5958    5967      16    5955    5952    5958    5970      16
    5955    5952   -5961    5958      19    5955    5952    5961    5973      19
    5955    5964    5976    5991       4    5955    5964    5976    5994       4
    5955    5967   -5958    5961      17    5955    5967   -5958    5970      10
    5955    5967   -5982    5991       4    5952    5955    5964    5976       4
    5952    5955   -5967    5958       4    5952    5955    5967    5982       4
    5952    5958   -5961    5973       9    5952    5958   -5967    5955      10
    5952    5958   -5967    5982      10    5952    5958    5970    5985      12
    5952    5961   -5958    5967       9    5952    5961   -5958    5970       9
    5952    5961   -5973    5985      22    5952    5961    5973    5988      22
    6288    6306    6309    6321       3    6270    6288    6306    6309       3
    6249    6270    6288    6306       3    6246    6231    6243    6258       4
    6246    6264   -6279    6258       4    6243    6231    6246    6264       4
    6243    6258   -6279    6264       4    6234    6249    6270    6288       3
    6231    6243    6258    6279       4    6231    6246   -6264    6279       4
    6222    6234    6249    6270       3    6213    6231    6243    6258       4
    6213    6231    6246    6264       4    6204    6222    6234    6249       3
    6195    6213    6231    6243       5    6195    6213    6231    6246       5
    6192    6213    6231    6243       5    6192    6213    6231    6246       5
    6186    6204    6222    6234       3    6183    6168    6186    6204       6
    6180    6165    6177    6192       4    6180    6195   -6213    6192       4
    6180    6195    6213    6231       4    6177    6165    6180    6195       4
    6177    6192   -6213    6195       4    6177    6192    6213    6231       4
    6174    6183    6168    6186       4    6168    6186    6204    6222       8
    6165    6177    6192    6213       4    6165    6180   -6195    6213       4
    6162    6150   -6153    6165       9    6162    6150    6159    6174      10
    6162    6177    6165    6180       4    6162    6177    6192    6213       4
    6159    6147    6156    6168       4    6159    6150    6153    6165      11
    6159    6150    6162    6177      12    6159    6174   -6183    6168       4
    6156    6147    6159    6174       4    6156    6168   -6183    6174       4
    6156    6168    6186    6204       6    6153    6144    6147    6156      13
    6153    6144   -6147    6156      14    6153    6144   -6147    6156      15
    6153    6144   -6147    6159      13    6153    6144   -6147    6159      14
    6153    6144   -6147    6159      15    6153    6144   -6150    6159      16
    6153    6144   -6150    6162      16    6153    6150    6159    6174      17
    6153    6150   -6162    6177      12    6153    6165   -6177    6162       4
    6153    6165    6177    6192       4    6153    6165    6180    6195       4
    6150    6144    6147    6156      18    6150    6144   -6147    6159      18
    6150    6144   -6153    6165      19    6150    6153   -6165    6177      20
    6150    6153    6165    6180      20    6150    6159   -6147    6156       4
    6150    6159    6174    6183       4    6150    6162   -6177    6165      21
    6150    6162    6177    6192      21    6147    6144   -6150    6153      16
    6147    6144   -6150    6159      16    6147    6144    6150    6162      16
    6147    6144   -6153    6150      19    6147    6144    6153    6165      19
    6147    6156    6168    6183       4    6147    6156    6168    6186       4
    6147    6159   -6150    6153      17    6147    6159   -6150    6162      10
    6147    6159   -6174    6183       4    6144    6147    6156    6168       4
    6144    6147   -6159    6150       4    6144    6147    6159    6174       4
    6144    6150   -6153    6165       9    6144    6150   -6159    6147      10
    6144    6150   -6159    6174      10    6144    6150    6162    6177      12
    6144    6153   -6150    6159       9    6144    6153   -6150    6162       9
    6144    6153   -6165    6177      22    6144    6153    6165    6180      22
    6480    6498    6501    6513       3    6462    6480    6498    6501       3
    6441    6462    6480    6498       3    6438    6423    6435    6450       4
    6438    6456   -6471    6450       4    6435    6423    6438    6456       4
    6435    6450   -6471    6456       4    6426    6441    6462    6480       3
    6423    6435    6450    6471       4    6423    6438   -6456    6471       4
    6414    6426    6441    6462       3    6405    6423    6435    6450       4
    6405    6423    6438    6456       4    6396    6414    6426    6441       3
    6387    6405    6423    6435       5    6387    6405    6423    6438       5
    6384    6405    6423    6435       5    6384    6405    6423    6438       5
    6378    6396    6414    6426       3    6375    6360    6378    6396       6
    6372    6357    6369    6384       4    6372    6387   -6405    6384       4
    6372    6387    6405    6423       4    6369    6357    6372    6387       4
    6369    6384   -6405    6387       4    6369    6384    6405    6423       4
    6366    6375    6360    6378       4    6360    6378    6396    6414       8
    6357    6369    6384    6405       4    6357    6372   -6387    6405       4
    6354    6342   -6345    6357       9    6354    6342    6351    6366      10
    6354    6369    6357    6372       4    6354    6369    6384    6405       4
    6351    6339    6348    6360       4    6351    6342    6345    6357      11
    6351    6342    6354    6369      12    6351    6366   -6375    6360       4
    6348    6339    6351    6366       4    6348    6360   -6375    6366       4
    6348    6360    6378    6396       6    6345    6336    6339    6348      13
    6345    6336   -6339    6348      14    6345    6336   -6339    6348      15
    6345    6336   -6339    6351      13    6345    6336   -6339    6351      14
    6345    6336   -6339    6351      15    6345    6336   -6342    6351      16
    6345    6336   -6342    6354      16    6345    6342    6351    6366      17
    6345    6342   -6354    6369      12    6345    6357   -6369    6354       4
    6345    6357    6369    6384       4    6345    6357    6372    6387       4
    6342    6336    6339    6348      18    6342    6336   -6339    6351      18
    6342    6336   -6345    6357      19    6342    6345   -6357    6369      20
    6342    6345    6357    6372      20    6342    6351   -6339    6348       4
    6342    6351    6366    6375       4    6342    6354   -6369    6357      21
    6342    6354    6369    6384      21    6339    6336   -6342    6345      16
    6339    6336   -6342    6351      16    6339    6336    6342    6354      16
    6339    6336   -6345    6342      19    6339    6336    6345    6357      19
    6339    6348    6360    6375       4    6339    6348    6360    6378       4
    6339    6351   -6342    6345      17    6339    6351   -6342    6354      10
    6339    6351   -6366    6375       4    6336    6339    6348    6360       4
    6336    6339   -6351    6342       4    6336    6339    6351    6366       4
    6336    6342   -6345    6357       9    6336    6342   -6351    6339      10
    6336    6342   -6351    6366      10    6336    6342    6354    6369      12
    6336    6345   -6342    6351       9    6336    6345   -6342    6354       9
    6336    6345   -6357    6369      22    6336    6345    6357    6372      22
    6672    6690    6693    6705       3    6654    6672    6690    6693       3
    6633    6654    6672    6690       3    6630    6615    6627    6642       4
    6630    6648   -6663    6642       4    6627    6615    6630    6648       4
    6627    6642   -6663    6648       4    6618    6633    6654    6672       3
    6615    6627    6642    6663       4    6615    6630   -6648    6663       4
    6606    6618    6633    6654       3    6597    6615    6627    6642       4
    6597    6615    6630    6648       4    6588    6606    6618    6633       3
    6579    6597    6615    6627       5    6579    6597    6615    6630       5
    6576    6597    6615    6627       5    6576    6597    6615    6630       5
    6570    6588    6606    6618       3    6567    6552    6570    6588       6
    6564    6549    6561    6576       4    6564    6579   -6597    6576       4
    6564    6579    6597    6615       4    6561    6549    6564    6579       4
    6561    6576   -6597    6579       4    6561    6576    6597    6615       4
    6558    6567    6552    6570       4    6552    6570    6588    6606       8
    6549    6561    6576    6597       4    6549    6564   -6579    6597       4
    6546    6534   -6537    6549       9    6546    6534    6543    6558      10
    6546    6561    6549    6564       4    6546    6561    6576    6597       4
    6543    6531    6540    6552       4    6543    6534    6537    6549      11
    6543    6534    6546    6561      12    6543    6558   -6567    6552       4
    6540    6531    6543    6558       4    6540    6552   -6567    6558       4
    6540    6552    6570    6588       6    6537    6528    6531    6540      13
    6537    6528   -6531    6540      14    6537    6528   -6531    6540      15
    6537    6528   -6531    6543      13    6537    6528   -6531    6543      14
    6537    6528   -6531    6543      15    6537    6528   -6534    6543      16
    6537    6528   -6534    6546      16    6537    6534    6543    6558      17
    6537    6534   -6546    6561      12    6537    6549   -6561    6546       4
    6537    6549    6561    6576       4    6537    6549    6564    6579       4
    6534    6528    6531    6540      18    6534    6528   -6531    6543      18
    6534    6528   -6537    6549      19    6534    6537   -6549    6561      20
    6534    6537    6549    6564      20    6534    6543   -6531    6540       4
    6534    6543    6558    6567       4    6534    6546   -6561    6549      21
    6534    6546    6561    6576      21    6531    6528   -6534    6537      16
    6531    6528   -6534    6543      16    6531    6528    6534    6546      16
    6531    6528   -6537    6534      19    6531    6528    6537    6549      19
    6531    6540    6552    6567       4    6531    6540    6552    6570       4
    6531    6543   -6534    6537      17    6531    6543   -6534    6546      10
    6531    6543   -6558    6567       4    6528    6531    6540    6552       4
    6528    6531   -6543    6534       4    6528    6531    6543    6558       4
    6528    6534   -6537    6549       9    6528    6534   -6543    6531      10
    6528    6534   -6543    6558      10    6528    6534    6546    6561      12
    6528    6537   -6534    6543       9    6528    6537   -6534    6546       9
    6528    6537   -6549    6561      22    6528    6537    6549    6564      22
    6864    6882    6885    6897       3    6846    6864    6882    6885       3
    6825    6846    6864    6882       3    6822    6807    6819    6834       4
    6822    6840   -6855    6834       4    6819    6807    6822    6840       4
    6819    6834   -6855    6840       4    6810    6825    6846    6864       3
    6807    6819    6834    6855       4    6807    6822   -6840    6855       4
    6798    6810    6825    6846       3    6789    6807    6819    6834       4
    6789    6807    6822    6840       4    6780    6798    6810    6825       3
    6771    6789    6807    6819       5    6771    6789    6807    6822       5
    6768    6789    6807    6819       5    6768    6789    6807    6822       5
    6762    6780    6798    6810       3    6759    6744    6762    6780       6
    6756    6741    6753    6768       4    6756    6771   -6789    6768       4
    6756    6771    6789    6807       4    6753    6741    6756    6771       4
    6753    6768   -6789    6771       4    6753    6768    6789    6807       4
    6750    6759    6744    6762       4    6744    6762    6780    6798       8
    6741    6753    6768    6789       4    6741    6756   -6771    6789       4
    6738    6726   -6729    6741       9    6738    6726    6735    6750      10
    6738    6753    6741    6756       4    6738    6753    6768    6789       4
    6735    6723    6732    6744       4    6735    6726    6729    6741      11
    6735    6726    6738    6753      12    6735    6750   -6759    6744       4
    6732    6723    6735    6750       4    6732    6744   -6759    6750       4
    6732    6744    6762    6780       6    6729    6720    6723    6732      13
    6729    6720   -6723    6732      14    6729    6720   -6723    6732      15
    6729    6720   -6723    6735      13    6729    6720   -6723    6735      14
    6729    6720   -6723    6735      15    6729    6720   -6726    6735      16
    6729    6720   -6726    6738      16    6729    6726    6735    6750      17
    6729    6726   -6738    6753      12    6729    6741   -6753    6738       4
    6729    6741    6753    6768       4    6729    6741    6756    6771       4
    6726    6720    6723    6732      18    6726    6720   -6723    6735      18
    6726    6720   -6729    6741      19    6726    6729   -6741    6753      20
    6726    6729    6741    6756      20    6726    6735   -6723    6732       4
    6726    6735    6750    6759       4    6726    6738   -6753    6741      21
    6726    6738    6753    6768      21    6723    6720   -6726    6729      16
    6723    6720   -6726    6735      16    6723    6720    6726    6738      16
    6723    6720   -6729    6726      19    6723    6720    6729    6741      19
    6723    6732    6744    6759       4    6723    6732    6744    6762       4
    6723    6735   -6726    6729      17    6723    6735   -6726    6738      10
    6723    6735   -6750    6759       4    6720    6723    6732    6744       4
    6720    6723   -6735    6726       4    6720    6723    6735    6750       4
    6720    6726   -6729    6741       9    6720    6726   -6735    6723      10
    6720    6726   -6735    6750      10    6720    6726    6738    6753      12
    6720    6729   -6726    6735       9    6720    6729   -6726    6738       9
    6720    6729   -6741    6753      22    6720    6729    6741    6756      22
    7056    7074    7077    7089       3    7038    7056    7074    7077       3
    7017    7038    7056    7074       3    7014    6999    7011    7026       4
    7014    7032   -7047    7026       4    7011    6999    7014    7032       4
    7011    7026   -7047    7032       4    7002    7017    7038    7056       3
    6999    7011    7026    7047       4    6999    7014   -7032    7047       4
    6990    7002    7017    7038       3    6981    6999    7011    7026       4
    6981    6999    7014    7032       4    6972    6990    7002    7017       3
    6963    6981    6999    7011       5    6963    6981    6999    7014       5
    6960    6981    6999    7011       5    6960    6981    6999    7014       5
    6954    6972    6990    7002       3    6951    6936    6954    6972       6
    6948    6933    6945    6960       4    6948    6963   -6981    6960       4
    6948    6963    6981    6999       4    6945    6933    6948    6963       4
    6945    6960   -6981    6963       4    6945    6960    6981    6999       4
    6942    6951    6936    6954       4    6936    6954    6972    6990       8
    6933    6945    6960    6981       4    6933    6948   -6963    6981       4
    6930    6918   -6921    6933       9    6930    6918    6927    6942      10
    6930    6945    6933    6948       4    6930    6945    6960    6981       4
    6927    6915    6924    6936       4    6927    6918    6921    6933      11
    6927    6918    6930    6945      12    6927    6942   -6951    6936       4
    6924    6915    6927    6942       4    6924    6936   -6951    6942       4
    6924    6936    6954    6972       6    6921    6912    6915    6924      13
    6921    6912   -6915    6924      14    6921    6912   -6915    6924      15
    6921    6912   -6915    6927      13    6921    6912   -6915    6927      14
    6921    6912   -6915    6927      15    6921    6912   -6918    6927      16
    6921    6912   -6918    6930      16    6921    6918    6927    6942      17
    6921    6918   -6930    6945      12    6921    6933   -6945    6930       4
    6921    6933    6945    6960       4    6921    6933    6948    6963       4
    6918    6912    6915    6924      18    6918    6912   -6915    6927      18
    6918    6912   -6921    6933      19    6918    6921   -6933    6945      20
    6918    6921    6933    6948      20    6918    6927   -6915    6924       4
    6918    6927    6942    6951       4    6918    6930   -6945    6933      21
    6918    6930    6945    6960      21    6915    6912   -6918    6921      16
    6915    6912   -6918    6927      16    6915    6912    6918    6930      16
    6915    6912   -6921    6918      19    6915    6912    6921    6933      19
    6915    6924    6936    6951       4    6915    6924    6936    6954       4
    6915    6927   -6918    6921      17    6915    6927   -6918    6930      10
    6915    6927   -6942    6951       4    6912    6915    6924    6936       4
    6912    6915   -6927    6918       4    6912    6915    6927    6942       4
    6912    6918   -6921    6933       9    6912    6918   -6927    6915      10
    6912    6918   -6927    6942      10    6912    6918    6930    6945      12
    6912    6921   -6918    6927       9    6912    6921   -6918    6930       9
    6912    6921   -6933    6945      22    6912    6921    6933    6948      22
    7248    7266    7269    7281       3    7230    7248    7266    7269       3
    7209    7230    7248    7266       3    7206    7191    7203    7218       4
    7206    7224   -7239    7218       4    7203    7191    7206    7224       4
    7203    7218   -7239    7224       4    7194    7209    7230    7248       3
    7191    7203    7218    7239       4    7191    7206   -7224    7239       4
    7182    7194    7209    7230       3    7173    7191    7203    7218       4
    7173    7191    7206    7224       4    7164    7182    7194    7209       3
    7155    7173    7191    7203       5    7155    7173    7191    7206       5
    7152    7173    7191    7203       5    7152    7173    7191    7206       5
    7146    7164    7182    7194       3    7143    7128    7146    7164       6
    7140    7125    7137    7152       4    7140    7155   -7173    7152       4
    7140    7155    7173    7191       4    7137    7125    7140    7155       4
    7137    7152   -7173    7155       4    7137    7152    7173    7191       4
    7134    7143    7128    7146       4    7128    7146    7164    7182       8
    7125    7137    7152    7173       4    7125    7140   -7155    7173       4
    7122    7110   -7113    7125       9    7122    7110    7119    7134      10
    7122    7137    7125    7140       4    7122    7137    7152    7173       4
    7119    7107    7116    7128       4    7119    7110    7113    7125      11
    7119    7110    7122    7137      12    7119    7134   -7143    7128       4
    7116    7107    7119    7134       4    7116    7128   -7143    7134       4
    7116    7128    7146    7164       6    7113    7104    7107    7116      13
    7113    7104   -7107    7116      14    7113    7104   -7107    7116      15
    7113    7104   -7107    7119      13    7113    7104   -7107    7119      14
    7113    7104   -7107    7119      15    7113    7104   -7110    7119      16
    7113    7104   -7110    7122      16    7113    7110    7119    7134      17
    7113    7110   -7122    7137      12    7113    7125   -7137    7122       4
    7113    7125    7137    7152       4    7113    7125    7140    7155       4
    7110    7104    7107    7116      18    7110    7104   -7107    7119      18
    7110    7104   -7113    7125      19    7110    7113   -7125    7137      20
    7110    7113    7125    7140      20    7110    7119   -7107    7116       4
    7110    7119    7134    7143       4    7110    7122   -7137    7125      21
    7110    7122    7137    7152      21    7107    7104   -7110    7113      16
    7107    7104   -7110    7119      16    7107    7104    7110    7122      16
    7107    7104   -7113    7110      19    7107    7104    7113    7125      19
    7107    7116    7128    7143       4    7107    7116    7128    7146       4
    7107    7119   -7110    7113      17    7107    7119   -7110    7122      10
    7107    7119   -7134    7143       4    7104    7107    7116    7128       4
    7104    7107   -7119    7110       4    7104    7107    7119    7134       4
    7104    7110   -7113    7125       9    7104    7110   -7119    7107      10
    7104    7110   -7119    7134      10    7104    7110    7122    7137      12
    7104    7113   -7110    7119       9    7104    7113   -7110    7122       9
    7104    7113   -7125    7137      22    7104    7113    7125    7140      22
    7440    7458    7461    7473       3    7422    7440    7458    7461       3
    7401    7422    7440    7458       3    7398    7383    7395    7410       4
    7398    7416   -7431    7410       4    7395    7383    7398    7416       4
    7395    7410   -7431    7416       4    7386    7401    7422    7440       3
    7383    7395    7410    7431       4    7383    7398   -7416    7431       4
    7374    7386    7401    7422       3    7365    7383    7395    7410       4
    7365    7383    7398    7416       4    7356    7374    7386    7401       3
    7347    7365    7383    7395       5    7347    7365    7383    7398       5
    7344    7365    7383    7395       5    7344    7365    7383    7398       5
    7338    7356    7374    7386       3    7335    7320    7338    7356       6
    7332    7317    7329    7344       4    7332    7347   -7365    7344       4
    7332    7347    7365    7383       4    7329    7317    7332    7347       4
    7329    7344   -7365    7347       4    7329    7344    7365    7383       4
    7326    7335    7320    7338       4    7320    7338    7356    7374       8
    7317    7329    7344    7365       4    7317    7332   -7347    7365       4
    7314    7302   -7305    7317       9    7314    7302    7311    7326      10
    7314    7329    7317    7332       4    7314    7329    7344    7365       4
    7311    7299    7308    7320       4    7311    7302    7305    7317      11
    7311    7302    7314    7329      12    7311    7326   -7335    7320       4
    7308    7299    7311    7326       4    7308    7320   -7335    7326       4
    7308    7320    7338    7356       6    7305    7296    7299    7308      13
    7305    7296   -7299    7308      14    7305    7296   -7299    7308      15
    7305    7296   -7299    7311      13    7305    7296   -7299    7311      14
    7305    7296   -7299    7311      15    7305    7296   -7302    7311      16
    7305    7296   -7302    7314      16    7305    7302    7311    7326      17
    7305    7302   -7314    7329      12    7305    7317   -7329    7314       4
    7305    7317    7329    7344       4    7305    7317    7332    7347       4
    7302    7296    7299    7308      18    7302    7296   -7299    7311      18
    7302    7296   -7305    7317      19    7302    7305   -7317    7329      20
    7302    7305    7317    7332      20    7302    7311   -7299    7308       4
    7302    7311    7326    7335       4    7302    7314   -7329    7317      21
    7302    7314    7329    7344      21    7299    7296   -7302    7305      16
    7299    7296   -7302    7311      16    7299    7296    7302    7314      16
    7299    7296   -7305    7302      19    7299    7296    7305    7317      19
    7299    7308    7320    7335       4    7299    7308    7320    7338       4
    7299    7311   -7302    7305      17    7299    7311   -7302    7314      10
    7299    7311   -7326    7335       4    7296    7299    7308    7320       4
    7296    7299   -7311    7302       4    7296    7299    7311    7326       4
    7296    7302   -7305    7317       9    7296    7302   -7311    7299      10
    7296    7302   -7311    7326      10    7296    7302    7314    7329      12
    7296    7305   -7302    7311       9    7296    7305   -7302    7314       9
    7296    7305   -7317    7329      22    7296    7305    7317    7332      22
    7632    7650    7653    7665       3    7614    7632    7650    7653       3
    7593    7614    7632    7650       3    7590    7575    7587    7602       4
    7590    7608   -7623    7602       4    7587    7575    7590    7608       4
    7587    7602   -7623    7608       4    7578    7593    7614    7632       3
    7575    7587    7602    7623       4    7575    7590   -7608    7623       4
    7566    7578    7593    7614       3    7557    7575    7587    7602       4
    7557    7575    7590    7608       4    7548    7566    7578    7593       3
    7539    7557    7575    7587       5    7539    7557    7575    7590       5
    7536    7557    7575    7587       5    7536    7557    7575    7590       5
    7530    7548    7566    7578       3    7527    7512    7530    7548       6
    7524    7509    7521    7536       4    7524    7539   -7557    7536       4
    7524    7539    7557    7575       4    7521    7509    7524    7539       4
    7521    7536   -7557    7539       4    7521    7536    7557    7575       4
    7518    7527    7512    7530       4    7512    7530    7548    7566       8
    7509    7521    7536    7557       4    7509    7524   -7539    7557       4
    7506    7494   -7497    7509       9    7506    7494    7503    7518      10
    7506    7521    7509    7524       4    7506    7521    7536    7557       4
    7503    7491    7500    7512       4    7503    7494    7497    7509      11
    7503    7494    7506    7521      12    7503    7518   -7527    7512       4
    7500    7491    7503    7518       4    7500    7512   -7527    7518       4
    7500    7512    7530    7548       6    7497    7488    7491    7500      13
    7497    7488   -7491    7500      14    7497    7488   -7491    7500      15
    7497    7488   -7491    7503      13    7497    7488   -7491    7503      14
    7497    7488   -7491    7503      15    7497    7488   -7494    7503      16
    7497    7488   -7494    7506      16    7497    7494    7503    7518      17
    7497    7494   -7506    7521      12    7497    7509   -7521    7506       4
    7497    7509    7521    7536       4    7497    7509    7524    7539       4
    7494    7488    7491    7500      18    7494    7488   -7491    7503      18
    7494    7488   -7497    7509      19    7494    7497   -7509    7521      20
    7494    7497    7509    7524      20    7494    7503   -7491    7500       4
    7494    7503    7518    7527       4    7494    7506   -7521    7509      21
    7494    7506    7521    7536      21    7491    7488   -7494    7497      16
    7491    7488   -7494    7503      16    7491    7488    7494    7506      16
    7491    7488   -7497    7494      19    7491    7488    7497    7509      19
    7491    7500    7512    7527       4    7491    7500    7512    7530       4
    7491    7503   -7494    7497      17    7491    7503   -7494    7506      10
    7491    7503   -7518    7527       4    7488    7491    7500    7512       4
    7488    7491   -7503    7494       4    7488    7491    7503    7518       4
    7488    7494   -7497    7509       9    7488    7494   -7503    7491      10
    7488    7494   -7503    7518      10    7488    7494    7506    7521      12
    7488    7497   -7494    7503       9    7488    7497   -7494    7506       9
    7488    7497   -7509    7521      22    7488    7497    7509    7524      22
    7824    7842    7845    7857       3    7806    7824    7842    7845       3
    7785    7806    7824    7842       3    7782    7767    7779    7794       4
    7782    7800   -7815    7794       4    7779    7767    7782    7800       4
    7779    7794   -7815    7800       4    7770    7785    7806    7824       3
    7767    7779    7794    7815       4    7767    7782   -7800    7815       4
    7758    7770    7785    7806       3    7749    7767    7779    7794       4
    7749    7767    7782    7800       4    7740    7758    7770    7785       3
    7731    7749    7767    7779       5    7731    7749    7767    7782       5
    7728    7749    7767    7779       5    7728    7749    7767    7782       5
    7722    7740    7758    7770       3    7719    7704    7722    7740       6
    7716    7701    7713    7728       4    7716    7731   -7749    7728       4
    7716    7731    7749    7767       4    7713    7701    7716    7731       4
    7713    7728   -7749    7731       4    7713    7728    7749    7767       4
    7710    7719    7704    7722       4    7704    7722    7740    7758       8
    7701    7713    7728    7749       4    7701    7716   -7731    7749       4
    7698    7686   -7689    7701       9    7698    7686    7695    7710      10
    7698    7713    7701    7716       4    7698    7713    7728    7749       4
    7695    7683    7692    7704       4    7695    7686    7689    7701      11
    7695    7686    7698    7713      12    7695    7710   -7719    7704       4
    7692    7683    7695    7710       4    7692    7704   -7719    7710       4
    7692    7704    7722    7740       6    7689    7680    7683    7692      13
    7689    7680   -7683    7692      14    7689    7680   -7683    7692      15
    7689    7680   -7683    7695      13    7689    7680   -7683    7695      14
    7689    7680   -7683    7695      15    7689    7680   -7686    7695      16
    7689    7680   -7686    7698      16    7689    7686    7695    7710      17
    7689    7686   -7698    7713      12    7689    7701   -7713    7698       4
    7689    7701    7713    7728       4    7689    7701    7716    7731       4
    7686    7680    7683    7692      18    7686    7680   -7683    7695      18
    7686    7680   -7689    7701      19    7686    7689   -7701    7713      20
    7686    7689    7701    7716      20    7686    7695   -7683    7692       4
    7686    7695    7710    7719       4    7686    7698   -7713    7701      21
    7686    7698    7713    7728      21    7683    7680   -7686    7689      16
    7683    7680   -7686    7695      16    7683    7680    7686    7698      16
    7683    7680   -7689    7686      19    7683    7680    7689    7701      19
    7683    7692    7704    7719       4    7683    7692    7704    7722       4
    7683    7695   -7686    7689      17    7683    7695   -7686    7698      10
    7683    7695   -7710    7719       4    7680    7683    7692    7704       4
    7680    7683   -7695    7686       4    7680    7683    7695    7710       4
    7680    7686   -7689    7701       9    7680    7686   -7695    7683      10
    7680    7686   -7695    7710      10    7680    7686    7698    7713      12
    7680    7689   -7686    7695       9    7680    7689   -7686    7698       9
    7680    7689   -7701    7713      22    7680    7689    7701    7716      22
    8016    8034    8037    8049       3    7998    8016    8034    8037       3
    7977    7998    8016    8034       3    7974    7959    7971    7986       4
    7974    7992   -8007    7986       4    7971    7959    7974    7992       4
    7971    7986   -8007    7992       4    7962    7977    7998    8016       3
    7959    7971    7986    8007       4    7959    7974   -7992    8007       4
    7950    7962    7977    7998       3    7941    7959    7971    7986       4
    7941    7959    7974    7992       4    7932    7950    7962    7977       3
    7923    7941    7959    7971       5    7923    7941    7959    7974       5
    7920    7941    7959    7971       5    7920    7941    7959    7974       5
    7914    7932    7950    7962       3    7911    7896    7914    7932       6
    7908    7893    7905    7920       4    7908    7923   -7941    7920       4
    7908    7923    7941    7959       4    7905    7893    7908    7923       4
    7905    7920   -7941    7923       4    7905    7920    7941    7959       4
    7902    7911    7896    7914       4    7896    7914    7932    7950       8
    7893    7905    7920    7941       4    7893    7908   -7923    7941       4
    7890    7878   -7881    7893       9    7890    7878    7887    7902      10
    7890    7905    7893    7908       4    7890    7905    7920    7941       4
    7887    7875    7884    7896       4    7887    7878    7881    7893      11
    7887    7878    7890    7905      12    7887    7902   -7911    7896       4
    7884    7875    7887    7902       4    7884    7896   -7911    7902       4
    7884    7896    7914    7932       6    7881    7872    7875    7884      13
    7881    7872   -7875    7884      14    7881    7872   -7875    7884      15
    7881    7872   -7875    7887      13    7881    7872   -7875    7887      14
    7881    7872   -7875    7887      15    7881    7872   -7878    7887      16
    7881    7872   -7878    7890      16    7881    7878    7887    7902      17
    7881    7878   -7890    7905      12    7881    7893   -7905    7890       4
    7881    7893    7905    7920       4    7881    7893    7908    7923       4
    7878    7872    7875    7884      18    7878    7872   -7875    7887      18
    7878    7872   -7881    7893      19    7878    7881   -7893    7905      20
    7878    7881    7893    7908      20    7878    7887   -7875    7884       4
    7878    7887    7902    7911       4    7878    7890   -7905    7893      21
    7878    7890    7905    7920      21    7875    7872   -7878    7881      16
    7875    7872   -7878    7887      16    7875    7872    7878    7890      16
    7875    7872   -7881    7878      19    7875    7872    7881    7893      19
    7875    7884    7896    7911       4    7875    7884    7896    7914       4
    7875    7887   -7878    7881      17    7875    7887   -7878    7890      10
    7875    7887   -7902    7911       4    7872    7875    7884    7896       4
    7872    7875   -7887    7878       4    7872    7875    7887    7902       4
    7872    7878   -7881    7893       9    7872    7878   -7887    7875      10
    7872    7878   -7887    7902      10    7872    7878    7890    7905      12
    7872    7881   -7878    7887       9    7872    7881   -7878    7890       9
    7872    7881   -7893    7905      22    7872    7881    7893    7908      22
    8208    8226    8229    8241       3    8190    8208    8226    8229       3
    8169    8190    8208    8226       3    8166    8151    8163    8178       4
    8166    8184   -8199    8178       4    8163    8151    8166    8184       4
    8163    8178   -8199    8184       4    8154    8169    8190    8208       3
    8151    8163    8178    8199       4    8151    8166   -8184    8199       4
    8142    8154    8169    8190       3    8133    8151    8163    8178       4
    8133    8151    8166    8184       4    8124    8142    8154    8169       3
    8115    8133    8151    8163       5    8115    8133    8151    8166       5
    8112    8133    8151    8163       5    8112    8133    8151    8166       5
    8106    8124    8142    8154       3    8103    8088    8106    8124       6
    8100    8085    8097    8112       4    8100    8115   -8133    8112       4
    8100    8115    8133    8151       4    8097    8085    8100    8115       4
    8097    8112   -8133    8115       4    8097    8112    8133    8151       4
    8094    8103    8088    8106       4    8088    8106    8124    8142       8
    8085    8097    8112    8133       4    8085    8100   -8115    8133       4
    8082    8070   -8073    8085       9    8082    8070    8079    8094      10
    8082    8097    8085    8100       4    8082    8097    8112    8133       4
    8079    8067    8076    8088       4    8079    8070    8073    8085      11
    8079    8070    8082    8097      12    8079    8094   -8103    8088       4
    8076    8067    8079    8094       4    8076    8088   -8103    8094       4
    8076    8088    8106    8124       6    8073    8064    8067    8076      13
    8073    8064   -8067    8076      14    8073    8064   -8067    8076      15
    8073    8064   -8067    8079      13    8073    8064   -8067    8079      14
    8073    8064   -8067    8079      15    8073    8064   -8070    8079      16
    8073    8064   -8070    8082      16    8073    8070    8079    8094      17
    8073    8070   -8082    8097      12    8073    8085   -8097    8082       4
    8073    8085    8097    8112       4    8073    8085    8100    8115       4
    8070    8064    8067    8076      18    8070    8064   -8067    8079      18
    8070    8064   -8073    8085      19    8070    8073   -8085    8097      20
    8070    8073    8085    8100      20    8070    8079   -8067    8076       4
    8070    8079    8094    8103       4    8070    8082   -8097    8085      21
    8070    8082    8097    8112      21    8067    8064   -8070    8073      16
    8067    8064   -8070    8079      16    8067    8064    8070    8082      16
    8067    8064   -8073    8070      19    8067    8064    8073    8085      19
    8067    8076    8088    8103       4    8067    8076    8088    8106       4
    8067    8079   -8070    8073      17    8067    8079   -8070    8082      10
    8067    8079   -8094    8103       4    8064    8067    8076    8088       4
    8064    8067   -8079    8070       4    8064    8067    8079    8094       4
    8064    8070   -8073    8085       9    8064    8070   -8079    8067      10
    8064    8070   -8079    8094      10    8064    8070    8082    8097      12
    8064    8073   -8070    8079       9    8064    8073   -8070    8082       9
    8064    8073   -8085    8097      22    8064    8073    8085    8100      22
    8400    8418    8421    8433       3    8382    8400    8418    8421       3
    8361    8382    8400    8418       3    8358    8343    8355    8370       4
    8358    8376   -8391    8370       4    8355    8343    8358    8376       4
    8355    8370   -8391    8376       4    8346    8361    8382    8400       3
    8343    8355    8370    8391       4    8343    8358   -8376    8391       4
    8334    8346    8361    8382       3    8325    8343    8355    8370       4
    8325    8343    8358    8376       4    8316    8334    8346    8361       3
    8307    8325    8343    8355       5    8307    8325    8343    8358       5
    8304    8325    8343    8355       5    8304    8325    8343    8358       5
    8298    8316    8334    8346       3    8295    8280    8298    8316       6
    8292    8277    8289    8304       4    8292    8307   -8325    8304       4
    8292    8307    8325    8343       4    8289    8277    8292    8307       4
    8289    8304   -8325    8307       4    8289    8304    8325    8343       4
    8286    8295    8280    8298       4    8280    8298    8316    8334       8
    8277    8289    8304    8325       4    8277    8292   -8307    8325       4
    8274    8262   -8265    8277       9    8274    8262    8271    8286      10
    8274    8289    8277    8292       4    8274    8289    8304    8325       4
    8271    8259    8268    8280       4    8271    8262    8265    8277      11
    8271    8262    8274    8289      12    8271    8286   -8295    8280       4
    8268    8259    8271    8286       4    8268    8280   -8295    8286       4
    8268    8280    8298    8316       6    8265    8256    8259    8268      13
    8265    8256   -8259    8268      14    8265    8256   -8259    8268      15
    8265    8256   -8259    8271      13    8265    8256   -8259    8271      14
    8265    8256   -8259    8271      15    8265    8256   -8262    8271      16
    8265    8256   -8262    8274      16    8265    8262    8271    8286      17
    8265    8262   -8274    8289      12    8265    8277   -8289    8274       4
    8265    8277    8289    8304       4    8265    8277    8292    8307       4
    8262    8256    8259    8268      18    8262    8256   -8259    8271      18
    8262    8256   -8265    8277      19    8262    8265   -8277    8289      20
    8262    8265    8277    8292      20    8262    8271   -8259    8268       4
    8262    8271    8286    8295       4    8262    8274   -8289    8277      21
    8262    8274    8289    8304      21    8259    8256   -8262    8265      16
    8259    8256   -8262    8271      16    8259    8256    8262    8274      16
    8259    8256   -8265    8262      19    8259    8256    8265    8277      19
    8259    8268    8280    8295       4    8259    8268    8280    8298       4
    8259    8271   -8262    8265      17    8259    8271   -8262    8274      10
    8259    8271   -8286    8295       4    8256    8259    8268    8280       4
    8256    8259   -8271    8262       4    8256    8259    8271    8286       4
    8256    8262   -8265    8277       9    8256    8262   -8271    8259      10
    8256    8262   -8271    8286      10    8256    8262    8274    8289      12
    8256    8265   -8262    8271       9    8256    8265   -8262    8274       9
    8256    8265   -8277    8289      22    8256    8265    8277    8292      22
    8592    8610    8613    8625       3    8574    8592    8610    8613       3
    8553    8574    8592    8610       3    8550    8535    8547    8562       4
    8550    8568   -8583    8562       4    8547    8535    8550    8568       4
    8547    8562   -8583    8568       4    8538    8553    8574    8592       3
    8535    8547    8562    8583       4    8535    8550   -8568    8583       4
    8526    8538    8553    8574       3    8517    8535    8547    8562       4
    8517    8535    8550    8568       4    8508    8526    8538    8553       3
    8499    8517    8535    8547       5    8499    8517    8535    8550       5
    8496    8517    8535    8547       5    8496    8517    8535    8550       5
    8490    8508    8526    8538       3    8487    8472    8490    8508       6
    8484    8469    8481    8496       4    8484    8499   -8517    8496       4
    8484    8499    8517    8535       4    8481    8469    8484    8499       4
    8481    8496   -8517    8499       4    8481    8496    8517    8535       4
    8478    8487    8472    8490       4    8472    8490    8508    8526       8
    8469    8481    8496    8517       4    8469    8484   -8499    8517       4
    8466    8454   -8457    8469       9    8466    8454    8463    8478      10
    8466    8481    8469    8484       4    8466    8481    8496    8517       4
    8463    8451    8460    8472       4    8463    8454    8457    8469      11
    8463    8454    8466    8481      12    8463    8478   -8487    8472       4
    8460    8451    8463    8478       4    8460    8472   -8487    8478       4
    8460    8472    8490    8508       6    8457    8448    8451    8460      13
    8457    8448   -8451    8460      14    8457    8448   -8451    8460      15
    8457    8448   -8451    8463      13    8457    8448   -8451    8463      14
    8457    8448   -8451    8463      15    8457    8448   -8454    8463      16
    8457    8448   -8454    8466      16    8457    8454    8463    8478      17
    8457    8454   -8466    8481      12    8457    8469   -8481    8466       4
    8457    8469    8481    8496       4    8457    8469    8484    8499       4
    8454    8448    8451    8460      18    8454    8448   -8451    8463      18
    8454    8448   -8457    8469      19    8454    8457   -8469    8481      20
    8454    8457    8469    8484      20    8454    8463   -8451    8460       4
    8454    8463    8478    8487       4    8454    8466   -8481    8469      21
    8454    8466    8481    8496      21    8451    8448   -8454    8457      16
    8451    8448   -8454    8463      16    8451    8448    8454    8466      16
    8451    8448   -8457    8454      19    8451    8448    8457    8469      19
    8451    8460    8472    8487       4    8451    8460    8472    8490       4
    8451    8463   -8454    8457      17    8451    8463   -8454    8466      10
    8451    8463   -8478    8487       4    8448    8451    8460    8472       4
    8448    8451   -8463    8454       4    8448    8451    8463    8478       4
    8448    8454   -8457    8469       9    8448    8454   -8463    8451      10
    8448    8454   -8463    8478      10    8448    8454    8466    8481      12
    8448    8457   -8454    8463       9    8448    8457   -8454    8466       9
    8448    8457   -8469    8481      22    8448    8457    8469    8484      22
    8784    8802    8805    8817       3    8766    8784    8802    8805       3
    8745    8766    8784    8802       3    8742    8727    8739    8754       4
    8742    8760   -8775    8754       4    8739    8727    8742    8760       4
    8739    8754   -8775    8760       4    8730    8745    8766    8784       3
    8727    8739    8754    8775       4    8727    8742   -8760    8775       4
    8718    8730    8745    8766       3    8709    8727    8739    8754       4
    8709    8727    8742    8760       4    8700    8718    8730    8745       3
    8691    8709    8727    8739       5    8691    8709    8727    8742       5
    8688    8709    8727    8739       5    8688    8709    8727    8742       5
    8682    8700    8718    8730       3    8679    8664    8682    8700       6
    8676    8661    8673    8688       4    8676    8691   -8709    8688       4
    8676    8691    8709    8727       4    8673    8661    8676    8691       4
    8673    8688   -8709    8691       4    8673    8688    8709    8727       4
    8670    8679    8664    8682       4    8664    8682    8700    8718       8
    8661    8673    8688    8709       4    8661    8676   -8691    8709       4
    8658    8646   -8649    8661       9    8658    8646    8655    8670      10
    8658    8673    8661    8676       4    8658    8673    8688    8709       4
    8655    8643    8652    8664       4    8655    8646    8649    8661      11
    8655    8646    8658    8673      12    8655    8670   -8679    8664       4
    8652    8643    8655    8670       4    8652    8664   -8679    8670       4
    8652    8664    8682    8700       6    8649    8640    8643    8652      13
    8649    8640   -8643    8652      14    8649    8640   -8643    8652      15
    8649    8640   -8643    8655      13    8649    8640   -8643    8655      14
    8649    8640   -8643    8655      15    8649    8640   -8646    8655      16
    8649    8640   -8646    8658      16    8649    8646    8655    8670      17
    8649    8646   -8658    8673      12    8649    8661   -8673    8658       4
    8649    8661    8673    8688       4    8649    8661    8676    8691       4
    8646    8640    8643    8652      18    8646    8640   -8643    8655      18
    8646    8640   -8649    8661      19    8646    8649   -8661    8673      20
    8646    8649    8661    8676      20    8646    8655   -8643    8652       4
    8646    8655    8670    8679       4    8646    8658   -8673    8661      21
    8646    8658    8673    8688      21    8643    8640   -8646    8649      16
    8643    8640   -8646    8655      16    8643    8640    8646    8658      16
    8643    8640   -8649    8646      19    8643    8640    8649    8661      19
    8643    8652    8664    8679       4    8643    8652    8664    8682       4
    8643    8655   -8646    8649      17    8643    8655   -8646    8658      10
    8643    8655   -8670    8679       4    8640    8643    8652    8664       4
    8640    8643   -8655    8646       4    8640    8643    8655    8670       4
    8640    8646   -8649    8661       9    8640    8646   -8655    8643      10
    8640    8646   -8655    8670      10    8640    8646    8658    8673      12
    8640    8649   -8646    8655       9    8640    8649   -8646    8658       9
    8640    8649   -8661    8673      22    8640    8649    8661    8676      22
    8976    8994    8997    9009       3    8958    8976    8994    8997       3
    8937    8958    8976    8994       3    8934    8919    8931    8946       4
    8934    8952   -8967    8946       4    8931    8919    8934    8952       4
    8931    8946   -8967    8952       4    8922    8937    8958    8976       3
    8919    8931    8946    8967       4    8919    8934   -8952    8967       4
    8910    8922    8937    8958       3    8901    8919    8931    8946       4
    8901    8919    8934    8952       4    8892    8910    8922    8937       3
    8883    8901    8919    8931       5    8883    8901    8919    8934       5
    8880    8901    8919    8931       5    8880    8901    8919    8934       5
    8874    8892    8910    8922       3    8871    8856    8874    8892       6
    8868    8853    8865    8880       4    8868    8883   -8901    8880       4
    8868    8883    8901    8919       4    8865    8853    8868    8883       4
    8865    8880   -8901    8883       4    8865    8880    8901    8919       4
    8862    8871    8856    8874       4    8856    8874    8892    8910       8
    8853    8865    8880    8901       4    8853    8868   -8883    8901       4
    8850    8838   -8841    8853       9    8850    8838    8847    8862      10
    8850    8865    8853    8868       4    8850    8865    8880    8901       4
    8847    8835    8844    8856       4    8847    8838    8841    8853      11
    8847    8838    8850    8865      12    8847    8862   -8871    8856       4
    8844    8835    8847    8862       4    8844    8856   -8871    8862       4
    8844    8856    8874    8892       6    8841    8832    8835    8844      13
    8841    8832   -8835    8844      14    8841    8832   -8835    8844      15
    8841    8832   -8835    8847      13    8841    8832   -8835    8847      14
    8841    8832   -8835    8847      15    8841    8832   -8838    8847      16
    8841    8832   -8838    8850      16    8841    8838    8847    8862      17
    8841    8838   -8850    8865      12    8841    8853   -8865    8850       4
    8841    8853    8865    8880       4    8841    8853    8868    8883       4
    8838    8832    8835    8844      18    8838    8832   -8835    8847      18
    8838    8832   -8841    8853      19    8838    8841   -8853    8865      20
    8838    8841    8853    8868      20    8838    8847   -8835    8844       4
    8838    8847    8862    8871       4    8838    8850   -8865    8853      21
    8838    8850    8865    8880      21    8835    8832   -8838    8841      16
    8835    8832   -8838    8847      16    8835    8832    8838    8850      16
    8835    8832   -8841    8838      19    8835    8832    8841    8853      19
    8835    8844    8856    8871       4    8835    8844    8856    8874       4
    8835    8847   -8838    8841      17    8835    8847   -8838    8850      10
    8835    8847   -8862    8871       4    8832    8835    8844    8856       4
    8832    8835   -8847    8838       4    8832    8835    8847    8862       4
    8832    8838   -8841    8853       9    8832    8838   -8847    8835      10
    8832    8838   -8847    8862      10    8832    8838    8850    8865      12
    8832    8841   -8838    8847       9    8832    8841   -8838    8850       9
    8832    8841   -8853    8865      22    8832    8841    8853    8868      22
    9168    9186    9189    9201       3    9150    9168    9186    9189       3
    9129    9150    9168    9186       3    9126    9111    9123    9138       4
    9126    9144   -9159    9138       4    9123    9111    9126    9144       4
    9123    9138   -9159    9144       4    9114    9129    9150    9168       3
    9111    9123    9138    9159       4    9111    9126   -9144    9159       4
    9102    9114    9129    9150       3    9093    9111    9123    9138       4
    9093    9111    9126    9144       4    9084    9102    9114    9129       3
    9075    9093    9111    9123       5    9075    9093    9111    9126       5
    9072    9093    9111    9123       5    9072    9093    9111    9126       5
    9066    9084    9102    9114       3    9063    9048    9066    9084       6
    9060    9045    9057    9072       4    9060    9075   -9093    9072       4
    9060    9075    9093    9111       4    9057    9045    9060    9075       4
    9057    9072   -9093    9075       4    9057    9072    9093    9111       4
    9054    9063    9048    9066       4    9048    9066    9084    9102       8
    9045    9057    9072    9093       4    9045    9060   -9075    9093       4
    9042    9030   -9033    9045       9    9042    9030    9039    9054      10
    9042    9057    9045    9060       4    9042    9057    9072    9093       4
    9039    9027    9036    9048       4    9039    9030    9033    9045      11
    9039    9030    9042    9057      12    9039    9054   -9063    9048       4
    9036    9027    9039    9054       4    9036    9048   -9063    9054       4
    9036    9048    9066    9084       6    9033    9024    9027    9036      13
    9033    9024   -9027    9036      14    9033    9024   -9027    9036      15
    9033    9024   -9027    9039      13    9033    9024   -9027    9039      14
    9033    9024   -9027    9039      15    9033    9024   -9030    9039      16
    9033    9024   -9030    9042      16    9033    9030    9039    9054      17
    9033    9030   -9042    9057      12    9033    9045   -9057    9042       4
    9033    9045    9057    9072       4    9033    9045    9060    9075       4
    9030    9024    9027    9036      18    9030    9024   -9027    9039      18
    9030    9024   -9033    9045      19    9030    9033   -9045    9057      20
    9030    9033    9045    9060      20    9030    9039   -9027    9036       4
    9030    9039    9054    9063       4    9030    9042   -9057    9045      21
    9030    9042    9057    9072      21    9027    9024   -9030    9033      16
    9027    9024   -9030    9039      16    9027    9024    9030    9042      16
    9027    9024   -9033    9030      19    9027    9024    9033    9045      19
    9027    9036    9048    9063       4    9027    9036    9048    9066       4
    9027    9039   -9030    9033      17    9027    9039   -9030    9042      10
    9027    9039   -9054    9063       4    9024    9027    9036    9048       4
    9024    9027   -9039    9030       4    9024    9027    9039    9054       4
    9024    9030   -9033    9045       9    9024    9030   -9039    9027      10
    9024    9030   -9039    9054      10    9024    9030    9042    9057      12
    9024    9033   -9030    9039       9    9024    9033   -9030    9042       9
    9024    9033   -9045    9057      22    9024    9033    9045    9060      22
    9360    9378    9381    9393       3    9342    9360    9378    9381       3
    9321    9342    9360    9378       3    9318    9303    9315    9330       4
    9318    9336   -9351    9330       4    9315    9303    9318    9336       4
    9315    9330   -9351    9336       4    9306    9321    9342    9360       3
    9303    9315    9330    9351       4    9303    9318   -9336    9351       4
    9294    9306    9321    9342       3    9285    9303    9315    9330       4
    9285    9303    9318    9336       4    9276    9294    9306    9321       3
    9267    9285    9303    9315       5    9267    9285    9303    9318       5
    9264    9285    9303    9315       5    9264    9285    9303    9318       5
    9258    9276    9294    9306       3    9255    9240    9258    9276       6
    9252    9237    9249    9264       4    9252    9267   -9285    9264       4
    9252    9267    9285    9303       4    9249    9237    9252    9267       4
    9249    9264   -9285    9267       4    9249    9264    9285    9303       4
    9246    9255    9240    9258       4    9240    9258    9276    9294       8
    9237    9249    9264    9285       4    9237    9252   -9267    9285       4
    9234    9222   -9225    9237       9    9234    9222    9231    9246      10
    9234    9249    9237    9252       4    9234    9249    9264    9285       4
    9231    9219    9228    9240       4    9231    9222    9225    9237      11
    9231    9222    9234    9249      12    9231    9246   -9255    9240       4
    9228    9219    9231    9246       4    9228    9240   -9255    9246       4
    9228    9240    9258    9276       6    9225    9216    9219    9228      13
    9225    9216   -9219    9228      14    9225    9216   -9219    9228      15
    9225    9216   -9219    9231      13    9225    9216   -9219    9231      14
    9225    9216   -9219    9231      15    9225    9216   -9222    9231      16
    9225    9216   -9222    9234      16    9225    9222    9231    9246      17
    9225    9222   -9234    9249      12    9225    9237   -9249    9234       4
    9225    9237    9249    9264       4    9225    9237    9252    9267       4
    9222    9216    9219    9228      18    9222    9216   -9219    9231      18
    9222    9216   -9225    9237      19    9222    9225   -9237    9249      20
    9222    9225    9237    9252      20    9222    9231   -9219    9228       4
    9222    9231    9246    9255       4    9222    9234   -9249    9237      21
    9222    9234    9249    9264      21    9219    9216   -9222    9225      16
    9219    9216   -9222    9231      16    9219    9216    9222    9234      16
    9219    9216   -9225    9222      19    9219    9216    9225    9237      19
    9219    9228    9240    9255       4    9219    9228    9240    9258       4
    9219    9231   -9222    9225      17    9219    9231   -9222    9234      10
    9219    9231   -9246    9255       4    9216    9219    9228    9240       4
    9216    9219   -9231    9222       4    9216    9219    9231    9246       4
    9216    9222   -9225    9237       9    9216    9222   -9231    9219      10
    9216    9222   -9231    9246      10    9216    9222    9234    9249      12
    9216    9225   -9222    9231       9    9216    9225   -9222    9234       9
    9216    9225   -9237    9249      22    9216    9225    9237    9252      22
    9552    9570    9573    9585       3    9534    9552    9570    9573       3
    9513    9534    9552    9570       3    9510    9495    9507    9522       4
    9510    9528   -9543    9522       4    9507    9495    9510    9528       4
    9507    9522   -9543    9528       4    9498    9513    9534    9552       3
    9495    9507    9522    9543       4    9495    9510   -9528    9543       4
    9486    9498    9513    9534       3    9477    9495    9507    9522       4
    9477    9495    9510    9528       4    9468    9486    9498    9513       3
    9459    9477    9495    9507       5    9459    9477    9495    9510       5
    9456    9477    9495    9507       5    9456    9477    9495    9510       5
    9450    9468    9486    9498       3    9447    9432    9450    9468       6
    9444    9429    9441    9456       4    9444    9459   -9477    9456       4
    9444    9459    9477    9495       4    9441    9429    9444    9459       4
    9441    9456   -9477    9459       4    9441    9456    9477    9495       4
    9438    9447    9432    9450       4    9432    9450    9468    9486       8
    9429    9441    9456    9477       4    9429    9444   -9459    9477       4
    9426    9414   -9417    9429       9    9426    9414    9423    9438      10
    9426    9441    9429    9444       4    9426    9441    9456    9477       4
    9423    9411    9420    9432       4    9423    9414    9417    9429      11
    9423    9414    9426    9441      12    9423    9438   -9447    9432       4
    9420    9411    9423    9438       4    9420    9432   -9447    9438       4
    9420    9432    9450    9468       6    9417    9408    9411    9420      13
    9417    9408   -9411    9420      14    9417    9408   -9411    9420      15
    9417    9408   -9411    9423      13    9417    9408   -9411    9423      14
    9417    9408   -9411    9423      15    9417    9408   -9414    9423      16
    9417    9408   -9414    9426      16    9417    9414    9423    9438      17
    9417    9414   -9426    9441      12    9417    9429   -9441    9426       4
    9417    9429    9441    9456       4    9417    9429    9444    9459       4
    9414    9408    9411    9420      18    9414    9408   -9411    9423      18
    9414    9408   -9417    9429      19    9414    9417   -9429    9441      20
    9414    9417    9429    9444      20    9414    9423   -9411    9420       4
    9414    9423    9438    9447       4    9414    9426   -9441    9429      21
    9414    9426    9441    9456      21    9411    9408   -9414    9417      16
    9411    9408   -9414    9423      16    9411    9408    9414    9426      16
    9411    9408   -9417    9414      19    9411    9408    9417    9429      19
    9411    9420    9432    9447       4    9411    9420    9432    9450       4
    9411    9423   -9414    9417      17    9411    9423   -9414    9426      10
    9411    9423   -9438    9447       4    9408    9411    9420    9432       4
    9408    9411   -9423    9414       4    9408    9411    9423    9438       4
    9408    9414   -9417    9429       9    9408    9414   -9423    9411      10
    9408    9414   -9423    9438      10    9408    9414    9426    9441      12
    9408    9417   -9414    9423       9    9408    9417   -9414    9426       9
    9408    9417   -9429    9441      22    9408    9417    9429    9444      22
    9744    9762    9765    9777       3    9726    9744    9762    9765       3
    9705    9726    9744    9762       3    9702    9687    9699    9714       4
    9702    9720   -9735    9714       4    9699    9687    9702    9720       4
    9699    9714   -9735    9720       4    9690    9705    9726    9744       3
    9687    9699    9714    9735       4    9687    9702   -9720    9735       4
    9678    9690    9705    9726       3    9669    9687    9699    9714       4
    9669    9687    9702    9720       4    9660    9678    9690    9705       3
    9651    9669    9687    9699       5    9651    9669    9687    9702       5
    9648    9669    9687    9699       5    9648    9669    9687    9702       5
    9642    9660    9678    9690       3    9639    9624    9642    9660       6
    9636    9621    9633    9648       4    9636    9651   -9669    9648       4
    9636    9651    9669    9687       4    9633    9621    9636    9651       4
    9633    9648   -9669    9651       4    9633    9648    9669    9687       4
    9630    9639    9624    9642       4    9624    9642    9660    9678       8
    9621    9633    9648    9669       4    9621    9636   -9651    9669       4
    9618    9606   -9609    9621       9    9618    9606    9615    9630      10
    9618    9633    9621    9636       4    9618    9633    9648    9669       4
    9615    9603    9612    9624       4    9615    9606    9609    9621      11
    9615    9606    9618    9633      12    9615    9630   -9639    9624       4
    9612    9603    9615    9630       4    9612    9624   -9639    9630       4
    9612    9624    9642    9660       6    9609    9600    9603    9612      13
    9609    9600   -9603    9612      14    9609    9600   -9603    9612      15
    9609    9600   -9603    9615      13    9609    9600   -9603    9615      14
    9609    9600   -9603    9615      15    9609    9600   -9606    9615      16
    9609    9600   -9606    9618      16    9609    9606    9615    9630      17
    9609    9606   -9618    9633      12    9609    9621   -9633    9618       4
    9609    9621    9633    9648       4    9609    9621    9636    9651       4
    9606    9600    9603    9612      18    9606    9600   -9603    9615      18
    9606    9600   -9609    9621      19    9606    9609   -9621    9633      20
    9606    9609    9621    9636      20    9606    9615   -9603    9612       4
    9606    9615    9630    9639       4    9606    9618   -9633    9621      21
    9606    9618    9633    9648      21    9603    9600   -9606    9609      16
    9603    9600   -9606    9615      16    9603    9600    9606    9618      16
    9603    9600   -9609    9606      19    9603    9600    9609    9621      19
    9603    9612    9624    9639       4    9603    9612    9624    9642       4
    9603    9615   -9606    9609      17    9603    9615   -9606    9618      10
    9603    9615   -9630    9639       4    9600    9603    9612    9624       4
    9600    9603   -9615    9606       4    9600    9603    9615    9630       4
    9600    9606   -9609    9621       9    9600    9606   -9615    9603      10
    9600    9606   -9615    9630      10    9600    9606    9618    9633      12
    9600    9609   -9606    9615       9    9600    9609   -9606    9618       9
    9600    9609   -9621    9633      22    9600    9609    9621    9636      22
    9936    9954    9957    9969       3    9918    9936    9954    9957       3
    9897    9918    9936    9954       3    9894    9879    9891    9906       4
    9894    9912   -9927    9906       4    9891    9879    9894    9912       4
    9891    9906   -9927    9912       4    9882    9897    9918    9936       3
    9879    9891    9906    9927       4    9879    9894   -9912    9927       4
    9870    9882    9897    9918       3    9861    9879    9891    9906       4
    9861    9879    9894    9912       4    9852    9870    9882    9897       3
    9843    9861    9879    9891       5    9843    9861    9879    9894       5
    9840    9861    9879    9891       5    9840    9861    9879    9894       5
    9834    9852    9870    9882       3    9831    9816    9834    9852       6
    9828    9813    9825    9840       4    9828    9843   -9861    9840       4
    9828    9843    9861    9879       4    9825    9813    9828    9843       4
    9825    9840   -9861    9843       4    9825    9840    9861    9879       4
    9822    9831    9816    9834       4    9816    9834    9852    9870       8
    9813    9825    9840    9861       4    9813    9828   -9843    9861       4
    9810    9798   -9801    9813       9    9810    9798    9807    9822      10
    9810    9825    9813    9828       4    9810    9825    9840    9861       4
    9807    9795    9804    9816       4    9807    9798    9801    9813      11
    9807    9798    9810    9825      12    9807    9822   -9831    9816       4
    9804    9795    9807    9822       4    9804    9816   -9831    9822       4
    9804    9816    9834    9852       6    9801    9792    9795    9804      13
    9801    9792   -9795    9804      14    9801    9792   -9795    9804      15
    9801    9792   -9795    9807      13    9801    9792   -9795    9807      14
    9801    9792   -9795    9807      15    9801    9792   -9798    9807      16
    9801    9792   -9798    9810      16    9801    9798    9807    9822      17
    9801    9798   -9810    9825      12    9801    9813   -9825    9810       4
    9801    9813    9825    9840       4    9801    9813    9828    9843       4
    9798    9792    9795    9804      18    9798    9792   -9795    9807      18
    9798    9792   -9801    9813      19    9798    9801   -9813    9825      20
    9798    9801    9813    9828      20    9798    9807   -9795    9804       4
    9798    9807    9822    9831       4    9798    9810   -9825    9813      21
    9798    9810    9825    9840      21    9795    9792   -9798    9801      16
    9795    9792   -9798    9807      16    9795    9792    9798    9810      16
    9795    9792   -9801    9798      19    9795    9792    9801    9813      19
    9795    9804    9816    9831       4    9795    9804    9816    9834       4
    9795    9807   -9798    9801      17    9795    9807   -9798    9810      10
    9795    9807   -9822    9831       4    9792    9795    9804    9816       4
    9792    9795   -9807    9798       4    9792    9795    9807    9822       4
    9792    9798   -9801    9813       9    9792    9798   -9807    9795      10
    9792    9798   -9807    9822      10    9792    9798    9810    9825      12
    9792    9801   -9798    9807       9    9792    9801   -9798    9810       9
    9792    9801   -9813    9825      22    9792    9801    9813    9828      22
   10128   10146   10149   10161       3   10110   10128   10146   10149       3
   10089   10110   10128   10146       3   10086   10071   10083   10098       4
   10086   10104  -10119   10098       4   10083   10071   10086   10104       4
   10083   10098  -10119   10104       4   10074   10089   10110   10128       3
   10071   10083   10098   10119       4   10071   10086  -10104   10119       4
   10062   10074   10089   10110       3   10053   10071   10083   10098       4
   10053   10071   10086   10104       4   10044   10062   10074   10089       3
   10035   10053   10071   10083       5   10035   10053   10071   10086       5
   10032   10053   10071   10083       5   10032   10053   10071   10086       5
   10026   10044   10062   10074       3   10023   10008   10026   10044       6
   10020   10005   10017   10032       4   10020   10035  -10053   10032       4
   10020   10035   10053   10071       4   10017   10005   10020   10035       4
   10017   10032  -10053   10035       4   10017   10032   10053   10071       4
   10014   10023   10008   10026       4   10008   10026   10044   10062       8
   10005   10017   10032   10053       4   10005   10020  -10035   10053       4
   10002    9990   -9993   10005       9   10002    9990    9999   10014      10
   10002   10017   10005   10020       4   10002   10017   10032   10053       4
    9999    9987    9996   10008       4    9999    9990    9993   10005      11
    9999    9990   10002   10017      12    9999   10014  -10023   10008       4
    9996    9987    9999   10014       4    9996   10008  -10023   10014       4
    9996   10008   10026   10044       6    9993    9984    9987    9996      13
    9993    9984   -9987    9996      14    9993    9984   -9987    9996      15
    9993    9984   -9987    9999      13    9993    9984   -9987    9999      14
    9993    9984   -9987    9999      15    9993    9984   -9990    9999      16
    9993    9984   -9990   10002      16    9993    9990    9999   10014      17
    9993    9990  -10002   10017      12    9993   10005  -10017   10002       4
    9993   10005   10017   10032       4    9993   10005   10020   10035       4
    9990    9984    9987    9996      18    9990    9984   -9987    9999      18
    9990    9984   -9993   10005      19    9990    9993  -10005   10017      20
    9990    9993   10005   10020      20    9990    9999   -9987    9996       4
    9990    9999   10014   10023       4    9990   10002  -10017   10005      21
    9990   10002   10017   10032      21    9987    9984   -9990    9993      16
    9987    9984   -9990    9999      16    9987    9984    9990   10002      16
    9987    9984   -9993    9990      19    9987    9984    9993   10005      19
    9987    9996   10008   10023       4    9987    9996   10008   10026       4
    9987    9999   -9990    9993      17    9987    9999   -9990   10002      10
    9987    9999  -10014   10023       4    9984    9987    9996   10008       4
    9984    9987   -9999    9990       4    9984    9987    9999   10014       4
    9984    9990   -9993   10005       9    9984    9990   -9999    9987      10
    9984    9990   -9999   10014      10    9984    9990   10002   10017      12
    9984    9993   -9990    9999       9    9984    9993   -9990   10002       9
    9984    9993  -10005   10017      22    9984    9993   10005   10020      22
   10320   10338   10341   10353       3   10302   10320   10338   10341       3
   10281   10302   10320   10338       3   10278   10263   10275   10290       4
   10278   10296  -10311   10290       4   10275   10263   10278   10296       4
   10275   10290  -10311   10296       4   10266   10281   10302   10320       3
   10263   10275   10290   10311       4   10263   10278  -10296   10311       4
   10254   10266   10281   10302       3   10245   10263   10275   10290       4
   10245   10263   10278   10296       4   10236   10254   10266   10281       3
   10227   10245   10263   10275       5   10227   10245   10263   10278       5
   10224   10245   10263   10275       5   10224   10245   10263   10278       5
   10218   10236   10254   10266       3   10215   10200   10218   10236       6
   10212   10197   10209   10224       4   10212   10227  -10245   10224       4
   10212   10227   10245   10263       4   10209   10197   10212   10227       4
   10209   10224  -10245   10227       4   10209   10224   10245   10263       4
   10206   10215   10200   10218       4   10200   10218   10236   10254       8
   10197   10209   10224   10245       4   10197   10212  -10227   10245       4
   10194   10182  -10185   10197       9   10194   10182   10191   10206      10
   10194   10209   10197   10212       4   10194   10209   10224   10245       4
   10191   10179   10188   10200       4   10191   10182   10185   10197      11
   10191   10182   10194   10209      12   10191   10206  -10215   10200       4
   10188   10179   10191   10206       4   10188   10200  -10215   10206       4
   10188   10200   10218   10236       6   10185   10176   10179   10188      13
   10185   10176  -10179   10188      14   10185   10176  -10179   10188      15
   10185   10176  -10179   10191      13   10185   10176  -10179   10191      14
   10185   10176  -10179   10191      15   10185   10176  -10182   10191      16
   10185   10176  -10182   10194      16   10185   10182   10191   10206      17
   10185   10182  -10194   10209      12   10185   10197  -10209   10194       4
   10185   10197   10209   10224       4   10185   10197   10212   10227       4
   10182   10176   10179   10188      18   10182   10176  -10179   10191      18
   10182   10176  -10185   10197      19   10182   10185  -10197   10209      20
   10182   10185   10197   10212      20   10182   10191  -10179   10188       4
   10182   10191   10206   10215       4   10182   10194  -10209   10197      21
   10182   10194   10209   10224      21   10179   10176  -10182   10185      16
   10179   10176  -10182   10191      16   10179   10176   10182   10194      16
   10179   10176  -10185   10182      19   10179   10176   10185   10197      19
   10179   10188   10200   10215       4   10179   10188   10200   10218       4
   10179   10191  -10182   10185      17   10179   10191  -10182   10194      10
   10179   10191  -10206   10215       4   10176   10179   10188   10200       4
   10176   10179  -10191   10182       4   10176   10179   10191   10206       4
   10176   10182  -10185   10197       9   10176   10182  -10191   10179      10
   10176   10182  -10191   10206      10   10176   10182   10194   10209      12
   10176   10185  -10182   10191       9   10176   10185  -10182   10194       9
   10176   10185  -10197   10209      22   10176   10185   10197   10212      22
   10512   10530   10533   10545       3   10494   10512   10530   10533       3
   10473   10494   10512   10530       3   10470   10455   10467   10482       4
   10470   10488  -10503   10482       4   10467   10455   10470   10488       4
   10467   10482  -10503   10488       4   10458   10473   10494   10512       3
   10455   10467   10482   10503       4   10455   10470  -10488   10503       4
   10446   10458   10473   10494       3   10437   10455   10467   10482       4
   10437   10455   10470   10488       4   10428   10446   10458   10473       3
   10419   10437   10455   10467       5   10419   10437   10455   10470       5
   10416   10437   10455   10467       5   10416   10437   10455   10470       5
   10410   10428   10446   10458       3   10407   10392   10410   10428       6
   10404   10389   10401   10416       4   10404   10419  -10437   10416       4
   10404   10419   10437   10455       4   10401   10389   10404   10419       4
   10401   10416  -10437   10419       4   10401   10416   10437   10455       4
   10398   10407   10392   10410       4   10392   10410   10428   10446       8
   10389   10401   10416   10437       4   10389   10404  -10419   10437       4
   10386   10374  -10377   10389       9   10386   10374   10383   10398      10
   10386   10401   10389   10404       4   10386   10401   10416   10437       4
   10383   10371   10380   10392       4   10383   10374   10377   10389      11
   10383   10374   10386   10401      12   10383   10398  -10407   10392       4
   10380   10371   10383   10398       4   10380   10392  -10407   10398       4
   10380   10392   10410   10428       6   10377   10368   10371   10380      13
   10377   10368  -10371   10380      14   10377   10368  -10371   10380      15
   10377   10368  -10371   10383      13   10377   10368  -10371   10383      14
   10377   10368  -10371   10383      15   10377   10368  -10374   10383      16
   10377   10368  -10374   10386      16   10377   10374   10383   10398      17
   10377   10374  -10386   10401      12   10377   10389  -10401   10386       4
   10377   10389   10401   10416       4   10377   10389   10404   10419       4
   10374   10368   10371   10380      18   10374   10368  -10371   10383      18
   10374   10368  -10377   10389      19   10374   10377  -10389   10401      20
   10374   10377   10389   10404      20   10374   10383  -10371   10380       4
   10374   10383   10398   10407       4   10374   10386  -10401   10389      21
   10374   10386   10401   10416      21   10371   10368  -10374   10377      16
   10371   10368  -10374   10383      16   10371   10368   10374   10386      16
   10371   10368  -10377   10374      19   10371   10368   10377   10389      19
   10371   10380   10392   10407       4   10371   10380   10392   10410       4
   10371   10383  -10374   10377      17   10371   10383  -10374   10386      10
   10371   10383  -10398   10407       4   10368   10371   10380   10392       4
   10368   10371  -10383   10374       4   10368   10371   10383   10398       4
   10368   10374  -10377   10389       9   10368   10374  -10383   10371      10
   10368   10374  -10383   10398      10   10368   10374   10386   10401      12
   10368   10377  -10374   10383       9   10368   10377  -10374   10386       9
   10368   10377  -10389   10401      22   10368   10377   10389   10404      22
   10704   10722   10725   10737       3   10686   10704   10722   10725       3
   10665   10686   10704   10722       3   10662   10647   10659   10674       4
   10662   10680  -10695   10674       4   10659   10647   10662   10680       4
   10659   10674  -10695   10680       4   10650   10665   10686   10704       3
   10647   10659   10674   10695       4   10647   10662  -10680   10695       4
   10638   10650   10665   10686       3   10629   10647   10659   10674       4
   10629   10647   10662   10680       4   10620   10638   10650   10665       3
   10611   10629   10647   10659       5   10611   10629   10647   10662       5
   10608   10629   10647   10659       5   10608   10629   10647   10662       5
   10602   10620   10638   10650       3   10599   10584   10602   10620       6
   10596   10581   10593   10608       4   10596   10611  -10629   10608       4
   10596   10611   10629   10647       4   10593   10581   10596   10611       4
   10593   10608  -10629   10611       4   10593   10608   10629   10647       4
   10590   10599   10584   10602       4   10584   10602   10620   10638       8
   10581   10593   10608   10629       4   10581   10596  -10611   10629       4
   10578   10566  -10569   10581       9   10578   10566   10575   10590      10
   10578   10593   10581   10596       4   10578   10593   10608   10629       4
   10575   10563   10572   10584       4   10575   10566   10569   10581      11
   10575   10566   10578   10593      12   10575   10590  -10599   10584       4
   10572   10563   10575   10590       4   10572   10584  -10599   10590       4
   10572   10584   10602   10620       6   10569   10560   10563   10572      13
   10569   10560  -10563   10572      14   10569   10560  -10563   10572      15
   10569   10560  -10563   10575      13   10569   10560  -10563   10575      14
   10569   10560  -10563   10575      15   10569   10560  -10566   10575      16
   10569   10560  -10566   10578      16   10569   10566   10575   10590      17
   10569   10566  -10578   10593      12   10569   10581  -10593   10578       4
   10569   10581   10593   10608       4   10569   10581   10596   10611       4
   10566   10560   10563   10572      18   10566   10560  -10563   10575      18
   10566   10560  -10569   10581      19   10566   10569  -10581   10593      20
   10566   10569   10581   10596      20   10566   10575  -10563   10572       4
   10566   10575   10590   10599       4   10566   10578  -10593   10581      21
   10566   10578   10593   10608      21   10563   10560  -10566   10569      16
   10563   10560  -10566   10575      16   10563   10560   10566   10578      16
   10563   10560  -10569   10566      19   10563   10560   10569   10581      19
   10563   10572   10584   10599       4   10563   10572   10584   10602       4
   10563   10575  -10566   10569      17   10563   10575  -10566   10578      10
   10563   10575  -10590   10599       4   10560   10563   10572   10584       4
   10560   10563  -10575   10566       4   10560   10563   10575   10590       4
   10560   10566  -10569   10581       9   10560   10566  -10575   10563      10
   10560   10566  -10575   10590      10   10560   10566   10578   10593      12
   10560   10569  -10566   10575       9   10560   10569  -10566   10578       9
   10560   10569  -10581   10593      22   10560   10569   10581   10596      22
   10896   10914   10917   10929       3   10878   10896   10914   10917       3
   10857   10878   10896   10914       3   10854   10839   10851   10866       4
   10854   10872  -10887   10866       4   10851   10839   10854   10872       4
   10851   10866  -10887   10872       4   10842   10857   10878   10896       3
   10839   10851   10866   10887       4   10839   10854  -10872   10887       4
   10830   10842   10857   10878       3   10821   10839   10851   10866       4
   10821   10839   10854   10872       4   10812   10830   10842   10857       3
   10803   10821   10839   10851       5   10803   10821   10839   10854       5
   10800   10821   10839   10851       5   10800   10821   10839   10854       5
   10794   10812   10830   10842       3   10791   10776   10794   10812       6
   10788   10773   10785   10800       4   10788   10803  -10821   10800       4
   10788   10803   10821   10839       4   10785   10773   10788   10803       4
   10785   10800  -10821   10803       4   10785   10800   10821   10839       4
   10782   10791   10776   10794       4   10776   10794   10812   10830       8
   10773   10785   10800   10821       4   10773   10788  -10803   10821       4
   10770   10758  -10761   10773       9   10770   10758   10767   10782      10
   10770   10785   10773   10788       4   10770   10785   10800   10821       4
   10767   10755   10764   10776       4   10767   10758   10761   10773      11
   10767   10758   10770   10785      12   10767   10782  -10791   10776       4
   10764   10755   10767   10782       4   10764   10776  -10791   10782       4
   10764   10776   10794   10812       6   10761   10752   10755   10764      13
   10761   10752  -10755   10764      14   10761   10752  -10755   10764      15
   10761   10752  -10755   10767      13   10761   10752  -10755   10767      14
   10761   10752  -10755   10767      15   10761   10752  -10758   10767      16
   10761   10752  -10758   10770      16   10761   10758   10767   10782      17
   10761   10758  -10770   10785      12   10761   10773  -10785   10770       4
   10761   10773   10785   10800       4   10761   10773   10788   10803       4
   10758   10752   10755   10764      18   10758   10752  -10755   10767      18
   10758   10752  -10761   10773      19   10758   10761  -10773   10785      20
   10758   10761   10773   10788      20   10758   10767  -10755   10764       4
   10758   10767   10782   10791       4   10758   10770  -10785   10773      21
   10758   10770   10785   10800      21   10755   10752  -10758   10761      16
   10755   10752  -10758   10767      16   10755   10752   10758   10770      16
   10755   10752  -10761   10758      19   10755   10752   10761   10773      19
   10755   10764   10776   10791       4   10755   10764   10776   10794       4
   10755   10767  -10758   10761      17   10755   10767  -10758   10770      10
   10755   10767  -10782   10791       4   10752   10755   10764   10776       4
   10752   10755  -10767   10758       4   10752   10755   10767   10782       4
   10752   10758  -10761   10773       9   10752   10758  -10767   10755      10
   10752   10758  -10767   10782      10   10752   10758   10770   10785      12
   10752   10761  -10758   10767       9   10752   10761  -10758   10770       9
   10752   10761  -10773   10785      22   10752   10761   10773   10788      22
   11088   11106   11109   11121       3   11070   11088   11106   11109       3
   11049   11070   11088   11106       3   11046   11031   11043   11058       4
   11046   11064  -11079   11058       4   11043   11031   11046   11064       4
   11043   11058  -11079   11064       4   11034   11049   11070   11088       3
   11031   11043   11058   11079       4   11031   11046  -11064   11079       4
   11022   11034   11049   11070       3   11013   11031   11043   11058       4
   11013   11031   11046   11064       4   11004   11022   11034   11049       3
   10995   11013   11031   11043       5   10995   11013   11031   11046       5
   10992   11013   11031   11043       5   10992   11013   11031   11046       5
   10986   11004   11022   11034       3   10983   10968   10986   11004       6
   10980   10965   10977   10992       4   10980   10995  -11013   10992       4
   10980   10995   11013   11031       4   10977   10965   10980   10995       4
   10977   10992  -11013   10995       4   10977   10992   11013   11031       4
   10974   10983   10968   10986       4   10968   10986   11004   11022       8
   10965   10977   10992   11013       4   10965   10980  -10995   11013       4
   10962   10950  -10953   10965       9   10962   10950   10959   10974      10
   10962   10977   10965   10980       4   10962   10977   10992   11013       4
   10959   10947   10956   10968       4   10959   10950   10953   10965      11
   10959   10950   10962   10977      12   10959   10974  -10983   10968       4
   10956   10947   10959   10974       4   10956   10968  -10983   10974       4
   10956   10968   10986   11004       6   10953   10944   10947   10956      13
   10953   10944  -10947   10956      14   10953   10944  -10947   10956      15
   10953   10944  -10947   10959      13   10953   10944  -10947   10959      14
   10953   10944  -10947   10959      15   10953   10944  -10950   10959      16
   10953   10944  -10950   10962      16   10953   10950   10959   10974      17
   10953   10950  -10962   10977      12   10953   10965  -10977   10962       4
   10953   10965   10977   10992       4   10953   10965   10980   10995       4
   10950   10944   10947   10956      18   10950   10944  -10947   10959      18
   10950   10944  -10953   10965      19   10950   10953  -10965   10977      20
   10950   10953   10965   10980      20   10950   10959  -10947   10956       4
   10950   10959   10974   10983       4   10950   10962  -10977   10965      21
   10950   10962   10977   10992      21   10947   10944  -10950   10953      16
   10947   10944  -10950   10959      16   10947   10944   10950   10962      16
   10947   10944  -10953   10950      19   10947   10944   10953   10965      19
   10947   10956   10968   10983       4   10947   10956   10968   10986       4
   10947   10959  -10950   10953      17   10947   10959  -10950   10962      10
   10947   10959  -10974   10983       4   10944   10947   10956   10968       4
   10944   10947  -10959   10950       4   10944   10947   10959   10974       4
   10944   10950  -10953   10965       9   10944   10950  -10959   10947      10
   10944   10950  -10959   10974      10   10944   10950   10962   10977      12
   10944   10953  -10950   10959       9   10944   10953  -10950   10962       9
   10944   10953  -10965   10977      22   10944   10953   10965   10980      22
   11280   11298   11301   11313       3   11262   11280   11298   11301       3
   11241   11262   11280   11298       3   11238   11223   11235   11250       4
   11238   11256  -11271   11250       4   11235   11223   11238   11256       4
   11235   11250  -11271   11256       4   11226   11241   11262   11280       3
   11223   11235   11250   11271       4   11223   11238  -11256   11271       4
   11214   11226   11241   11262       3   11205   11223   11235   11250       4
   11205   11223   11238   11256       4   11196   11214   11226   11241       3
   11187   11205   11223   11235       5   11187   11205   11223   11238       5
   11184   11205   11223   11235       5   11184   11205   11223   11238       5
   11178   11196   11214   11226       3   11175   11160   11178   11196       6
   11172   11157   11169   11184       4   11172   11187  -11205   11184       4
   11172   11187   11205   11223       4   11169   11157   11172   11187       4
   11169   11184  -11205   11187       4   11169   11184   11205   11223       4
   11166   11175   11160   11178       4   11160   11178   11196   11214       8
   11157   11169   11184   11205       4   11157   11172  -11187   11205       4
   11154   11142  -11145   11157       9   11154   11142   11151   11166      10
   11154   11169   11157   11172       4   11154   11169   11184   11205       4
   11151   11139   11148   11160       4   11151   11142   11145   11157      11
   11151   11142   11154   11169      12   11151   11166  -11175   11160       4
   11148   11139   11151   11166       4   11148   11160  -11175   11166       4
   11148   11160   11178   11196       6   11145   11136   11139   11148      13
   11145   11136  -11139   11148      14   11145   11136  -11139   11148      15
   11145   11136  -11139   11151      13   11145   11136  -11139   11151      14
   11145   11136  -11139   11151      15   11145   11136  -11142   11151      16
   11145   11136  -11142   11154      16   11145   11142   11151   11166      17
   11145   11142  -11154   11169      12   11145   11157  -11169   11154       4
   11145   11157   11169   11184       4   11145   11157   11172   11187       4
   11142   11136   11139   11148      18   11142   11136  -11139   11151      18
   11142   11136  -11145   11157      19   11142   11145  -11157   11169      20
   11142   11145   11157   11172      20   11142   11151  -11139   11148       4
   11142   11151   11166   11175       4   11142   11154  -11169   11157      21
   11142   11154   11169   11184      21   11139   11136  -11142   11145      16
   11139   11136  -11142   11151      16   11139   11136   11142   11154      16
   11139   11136  -11145   11142      19   11139   11136   11145   11157      19
   11139   11148   11160   11175       4   11139   11148   11160   11178       4
   11139   11151  -11142   11145      17   11139   11151  -11142   11154      10
   11139   11151  -11166   11175       4   11136   11139   11148   11160       4
   11136   11139  -11151   11142       4   11136   11139   11151   11166       4
   11136   11142  -11145   11157       9   11136   11142  -11151   11139      10
   11136   11142  -11151   11166      10   11136   11142   11154   11169      12
   11136   11145  -11142   11151       9   11136   11145  -11142   11154       9
   11136   11145  -11157   11169      22   11136   11145   11157   11172      22
   11472   11490   11493   11505       3   11454   11472   11490   11493       3
   11433   11454   11472   11490       3   11430   11415   11427   11442       4
   11430   11448  -11463   11442       4   11427   11415   11430   11448       4
   11427   11442  -11463   11448       4   11418   11433   11454   11472       3
   11415   11427   11442   11463       4   11415   11430  -11448   11463       4
   11406   11418   11433   11454       3   11397   11415   11427   11442       4
   11397   11415   11430   11448       4   11388   11406   11418   11433       3
   11379   11397   11415   11427       5   11379   11397   11415   11430       5
   11376   11397   11415   11427       5   11376   11397   11415   11430       5
   11370   11388   11406   11418       3   11367   11352   11370   11388       6
   11364   11349   11361   11376       4   11364   11379  -11397   11376       4
   11364   11379   11397   11415       4   11361   11349   11364   11379       4
   11361   11376  -11397   11379       4   11361   11376   11397   11415       4
   11358   11367   11352   11370       4   11352   11370   11388   11406       8
   11349   11361   11376   11397       4   11349   11364  -11379   11397       4
   11346   11334  -11337   11349       9   11346   11334   11343   11358      10
   11346   11361   11349   11364       4   11346   11361   11376   11397       4
   11343   11331   11340   11352       4   11343   11334   11337   11349      11
   11343   11334   11346   11361      12   11343   11358  -11367   11352       4
   11340   11331   11343   11358       4   11340   11352  -11367   11358       4
   11340   11352   11370   11388       6   11337   11328   11331   11340      13
   11337   11328  -11331   11340      14   11337   11328  -11331   11340      15
   11337   11328  -11331   11343      13   11337   11328  -11331   11343      14
   11337   11328  -11331   11343      15   11337   11328  -11334   11343      16
   11337   11328  -11334   11346      16   11337   11334   11343   11358      17
   11337   11334  -11346   11361      12   11337   11349  -11361   11346       4
   11337   11349   11361   11376       4   11337   11349   11364   11379       4
   11334   11328   11331   11340      18   11334   11328  -11331   11343      18
   11334   11328  -11337   11349      19   11334   11337  -11349   11361      20
   11334   11337   11349   11364      20   11334   11343  -11331   11340       4
   11334   11343   11358   11367       4   11334   11346  -11361   11349      21
   11334   11346   11361   11376      21   11331   11328  -11334   11337      16
   11331   11328  -11334   11343      16   11331   11328   11334   11346      16
   11331   11328  -11337   11334      19   11331   11328   11337   11349      19
   11331   11340   11352   11367       4   11331   11340   11352   11370       4
   11331   11343  -11334   11337      17   11331   11343  -11334   11346      10
   11331   11343  -11358   11367       4   11328   11331   11340   11352       4
   11328   11331  -11343   11334       4   11328   11331   11343   11358       4
   11328   11334  -11337   11349       9   11328   11334  -11343   11331      10
   11328   11334  -11343   11358      10   11328   11334   11346   11361      12
   11328   11337  -11334   11343       9   11328   11337  -11334   11346       9
   11328   11337  -11349   11361      22   11328   11337   11349   11364      22
   11664   11682   11685   11697       3   11646   11664   11682   11685       3
   11625   11646   11664   11682       3   11622   11607   11619   11634       4
   11622   11640  -11655   11634       4   11619   11607   11622   11640       4
   11619   11634  -11655   11640       4   11610   11625   11646   11664       3
   11607   11619   11634   11655       4   11607   11622  -11640   11655       4
   11598   11610   11625   11646       3   11589   11607   11619   11634       4
   11589   11607   11622   11640       4   11580   11598   11610   11625       3
   11571   11589   11607   11619       5   11571   11589   11607   11622       5
   11568   11589   11607   11619       5   11568   11589   11607   11622       5
   11562   11580   11598   11610       3   11559   11544   11562   11580       6
   11556   11541   11553   11568       4   11556   11571  -11589   11568       4
   11556   11571   11589   11607       4   11553   11541   11556   11571       4
   11553   11568  -11589   11571       4   11553   11568   11589   11607       4
   11550   11559   11544   11562       4   11544   11562   11580   11598       8
   11541   11553   11568   11589       4   11541   11556  -11571   11589       4
   11538   11526  -11529   11541       9   11538   11526   11535   11550      10
   11538   11553   11541   11556       4   11538   11553   11568   11589       4
   11535   11523   11532   11544       4   11535   11526   11529   11541      11
   11535   11526   11538   11553      12   11535   11550  -11559   11544       4
   11532   11523   11535   11550       4   11532   11544  -11559   11550       4
   11532   11544   11562   11580       6   11529   11520   11523   11532      13
   11529   11520  -11523   11532      14   11529   11520  -11523   11532      15
   11529   11520  -11523   11535      13   11529   11520  -11523   11535      14
   11529   11520  -11523   11535      15   11529   11520  -11526   11535      16
   11529   11520  -11526   11538      16   11529   11526   11535   11550      17
   11529   11526  -11538   11553      12   11529   11541  -11553   11538       4
   11529   11541   11553   11568       4   11529   11541   11556   11571       4
   11526   11520   11523   11532      18   11526   11520  -11523   11535      18
   11526   11520  -11529   11541      19   11526   11529  -11541   11553      20
   11526   11529   11541   11556      20   11526   11535  -11523   11532       4
   11526   11535   11550   11559       4   11526   11538  -11553   11541      21
   11526   11538   11553   11568      21   11523   11520  -11526   11529      16
   11523   11520  -11526   11535      16   11523   11520   11526   11538      16
   11523   11520  -11529   11526      19   11523   11520   11529   11541      19
   11523   11532   11544   11559       4   11523   11532   11544   11562       4
   11523   11535  -11526   11529      17   11523   11535  -11526   11538      10
   11523   11535  -11550   11559       4   11520   11523   11532   11544       4
   11520   11523  -11535   11526       4   11520   11523   11535   11550       4
   11520   11526  -11529   11541       9   11520   11526  -11535   11523      10
   11520   11526  -11535   11550      10   11520   11526   11538   11553      12
   11520   11529  -11526   11535       9   11520   11529  -11526   11538       9
   11520   11529  -11541   11553      22   11520   11529   11541   11556      22
   11856   11874   11877   11889       3   11838   11856   11874   11877       3
   11817   11838   11856   11874       3   11814   11799   11811   11826       4
   11814   11832  -11847   11826       4   11811   11799   11814   11832       4
   11811   11826  -11847   11832       4   11802   11817   11838   11856       3
   11799   11811   11826   11847       4   11799   11814  -11832   11847       4
   11790   11802   11817   11838       3   11781   11799   11811   11826       4
   11781   11799   11814   11832       4   11772   11790   11802   11817       3
   11763   11781   11799   11811       5   11763   11781   11799   11814       5
   11760   11781   11799   11811       5   11760   11781   11799   11814       5
   11754   11772   11790   11802       3   11751   11736   11754   11772       6
   11748   11733   11745   11760       4   11748   11763  -11781   11760       4
   11748   11763   11781   11799       4   11745   11733   11748   11763       4
   11745   11760  -11781   11763       4   11745   11760   11781   11799       4
   11742   11751   11736   11754       4   11736   11754   11772   11790       8
   11733   11745   11760   11781       4   11733   11748  -11763   11781       4
   11730   11718  -11721   11733       9   11730   11718   11727   11742      10
   11730   11745   11733   11748       4   11730   11745   11760   11781       4
   11727   11715   11724   11736       4   11727   11718   11721   11733      11
   11727   11718   11730   11745      12   11727   11742  -11751   11736       4
   11724   11715   11727   11742       4   11724   11736  -11751   11742       4
   11724   11736   11754   11772       6   11721   11712   11715   11724      13
   11721   11712  -11715   11724      14   11721   11712  -11715   11724      15
   11721   11712  -11715   11727      13   11721   11712  -11715   11727      14
   11721   11712  -11715   11727      15   11721   11712  -11718   11727      16
   11721   11712  -11718   11730      16   11721   11718   11727   11742      17
   11721   11718  -11730   11745      12   11721   11733  -11745   11730       4
   11721   11733   11745   11760       4   11721   11733   11748   11763       4
   11718   11712   11715   11724      18   11718   11712  -11715   11727      18
   11718   11712  -11721   11733      19   11718   11721  -11733   11745      20
   11718   11721   11733   11748      20   11718   11727  -11715   11724       4
   11718   11727   11742   11751       4   11718   11730  -11745   11733      21
   11718   11730   11745   11760      21   11715   11712  -11718   11721      16
   11715   11712  -11718   11727      16   11715   11712   11718   11730      16
   11715   11712  -11721   11718      19   11715   11712   11721   11733      19
   11715   11724   11736   11751       4   11715   11724   11736   11754       4
   11715   11727  -11718   11721      17   11715   11727  -11718   11730      10
   11715   11727  -11742   11751       4   11712   11715   11724   11736       4
   11712   11715  -11727   11718       4   11712   11715   11727   11742       4
   11712   11718  -11721   11733       9   11712   11718  -11727   11715      10
   11712   11718  -11727   11742      10   11712   11718   11730   11745      12
   11712   11721  -11718   11727       9   11712   11721  -11718   11730       9
   11712   11721  -11733   11745      22   11712   11721   11733   11748      22
   12048   12066   12069   12081       3   12030   12048   12066   12069       3
   12009   12030   12048   12066       3   12006   11991   12003   12018       4
   12006   12024  -12039   12018       4   12003   11991   12006   12024       4
   12003   12018  -12039   12024       4   11994   12009   12030   12048       3
   11991   12003   12018   12039       4   11991   12006  -12024   12039       4
   11982   11994   12009   12030       3   11973   11991   12003   12018       4
   11973   11991   12006   12024       4   11964   11982   11994   12009       3
   11955   11973   11991   12003       5   11955   11973   11991   12006       5
   11952   11973   11991   12003       5   11952   11973   11991   12006       5
   11946   11964   11982   11994       3   11943   11928   11946   11964       6
   11940   11925   11937   11952       4   11940   11955  -11973   11952       4
   11940   11955   11973   11991       4   11937   11925   11940   11955       4
   11937   11952  -11973   11955       4   11937   11952   11973   11991       4
   11934   11943   11928   11946       4   11928   11946   11964   11982       8
   11925   11937   11952   11973       4   11925   11940  -11955   11973       4
   11922   11910  -11913   11925       9   11922   11910   11919   11934      10
   11922   11937   11925   11940       4   11922   11937   11952   11973       4
   11919   11907   11916   11928       4   11919   11910   11913   11925      11
   11919   11910   11922   11937      12   11919   11934  -11943   11928       4
   11916   11907   11919   11934       4   11916   11928  -11943   11934       4
   11916   11928   11946   11964       6   11913   11904   11907   11916      13
   11913   11904  -11907   11916      14   11913   11904  -11907   11916      15
   11913   11904  -11907   11919      13   11913   11904  -11907   11919      14
   11913   11904  -11907   11919      15   11913   11904  -11910   11919      16
   11913   11904  -11910   11922      16   11913   11910   11919   11934      17
   11913   11910  -11922   11937      12   11913   11925  -11937   11922       4
   11913   11925   11937   11952       4   11913   11925   11940   11955       4
   11910   11904   11907   11916      18   11910   11904  -11907   11919      18
   11910   11904  -11913   11925      19   11910   11913  -11925   11937      20
   11910   11913   11925   11940      20   11910   11919  -11907   11916       4
   11910   11919   11934   11943       4   11910   11922  -11937   11925      21
   11910   11922   11937   11952      21   11907   11904  -11910   11913      16
   11907   11904  -11910   11919      16   11907   11904   11910   11922      16
   11907   11904  -11913   11910      19   11907   11904   11913   11925      19
   11907   11916   11928   11943       4   11907   11916   11928   11946       4
   11907   11919  -11910   11913      17   11907   11919  -11910   11922      10
   11907   11919  -11934   11943       4   11904   11907   11916   11928       4
   11904   11907  -11919   11910       4   11904   11907   11919   11934       4
   11904   11910  -11913   11925       9   11904   11910  -11919   11907      10
   11904   11910  -11919   11934      10   11904   11910   11922   11937      12
   11904   11913  -11910   11919       9   11904   11913  -11910   11922       9
   11904   11913  -11925   11937      22   11904   11913   11925   11940      22
   12240   12258   12261   12273       3   12222   12240   12258   12261       3
   12201   12222   12240   12258       3   12198   12183   12195   12210       4
   12198   12216  -12231   12210       4   12195   12183   12198   12216       4
   12195   12210  -12231   12216       4   12186   12201   12222   12240       3
   12183   12195   12210   12231       4   12183   12198  -12216   12231       4
   12174   12186   12201   12222       3   12165   12183   12195   12210       4
   12165   12183   12198   12216       4   12156   12174   12186   12201       3
   12147   12165   12183   12195       5   12147   12165   12183   12198       5
   12144   12165   12183   12195       5   12144   12165   12183   12198       5
   12138   12156   12174   12186       3   12135   12120   12138   12156       6
   12132   12117   12129   12144       4   12132   12147  -12165   12144       4
   12132   12147   12165   12183       4   12129   12117   12132   12147       4
   12129   12144  -12165   12147       4   12129   12144   12165   12183       4
   12126   12135   12120   12138       4   12120   12138   12156   12174       8
   12117   12129   12144   12165       4   12117   12132  -12147   12165       4
   12114   12102  -12105   12117       9   12114   12102   12111   12126      10
   12114   12129   12117   12132       4   12114   12129   12144   12165       4
   12111   12099   12108   12120       4   12111   12102   12105   12117      11
   12111   12102   12114   12129      12   12111   12126  -12135   12120       4
   12108   12099   12111   12126       4   12108   12120  -12135   12126       4
   12108   12120   12138   12156       6   12105   12096   12099   12108      13
   12105   12096  -12099   12108      14   12105   12096  -12099   12108      15
   12105   12096  -12099   12111      13   12105   12096  -12099   12111      14
   12105   12096  -12099   12111      15   12105   12096  -12102   12111      16
   12105   12096  -12102   12114      16   12105   12102   12111   12126      17
   12105   12102  -12114   12129      12   12105   12117  -12129   12114       4
   12105   12117   12129   12144       4   12105   12117   12132   12147       4
   12102   12096   12099   12108      18   12102   12096  -12099   12111      18
   12102   12096  -12105   12117      19   12102   12105  -12117   12129      20
   12102   12105   12117   12132      20   12102   12111  -12099   12108       4
   12102   12111   12126   12135       4   12102   12114  -12129   12117      21
   12102   12114   12129   12144      21   12099   12096  -12102   12105      16
   12099   12096  -12102   12111      16   12099   12096   12102   12114      16
   12099   12096  -12105   12102      19   12099   12096   12105   12117      19
   12099   12108   12120   12135       4   12099   12108   12120   12138       4
   12099   12111  -12102   12105      17   12099   12111  -12102   12114      10
   12099   12111  -12126   12135       4   12096   12099   12108   12120       4
   12096   12099  -12111   12102       4   12096   12099   12111   12126       4
   12096   12102  -12105   12117       9   12096   12102  -12111   12099      10
   12096   12102  -12111   12126      10   12096   12102   12114   12129      12
   12096   12105  -12102   12111       9   12096   12105  -12102   12114       9
   12096   12105  -12117   12129      22   12096   12105   12117   12132      22
   12432   12450   12453   12465       3   12414   12432   12450   12453       3
   12393   12414   12432   12450       3   12390   12375   12387   12402       4
   12390   12408  -12423   12402       4   12387   12375   12390   12408       4
   12387   12402  -12423   12408       4   12378   12393   12414   12432       3
   12375   12387   12402   12423       4   12375   12390  -12408   12423       4
   12366   12378   12393   12414       3   12357   12375   12387   12402       4
   12357   12375   12390   12408       4   12348   12366   12378   12393       3
   12339   12357   12375   12387       5   12339   12357   12375   12390       5
   12336   12357   12375   12387       5   12336   12357   12375   12390       5
   12330   12348   12366   12378       3   12327   12312   12330   12348       6
   12324   12309   12321   12336       4   12324   12339  -12357   12336       4
   12324   12339   12357   12375       4   12321   12309   12324   12339       4
   12321   12336  -12357   12339       4   12321   12336   12357   12375       4
   12318   12327   12312   12330       4   12312   12330   12348   12366       8
   12309   12321   12336   12357       4   12309   12324  -12339   12357       4
   12306   12294  -12297   12309       9   12306   12294   12303   12318      10
   12306   12321   12309   12324       4   12306   12321   12336   12357       4
   12303   12291   12300   12312       4   12303   12294   12297   12309      11
   12303   12294   12306   12321      12   12303   12318  -12327   12312       4
   12300   12291   12303   12318       4   12300   12312  -12327   12318       4
   12300   12312   12330   12348       6   12297   12288   12291   12300      13
   12297   12288  -12291   12300      14   12297   12288  -12291   12300      15
   12297   12288  -12291   12303      13   12297   12288  -12291   12303      14
   12297   12288  -12291   12303      15   12297   12288  -12294   12303      16
   12297   12288  -12294   12306      16   12297   12294   12303   12318      17
   12297   12294  -12306   12321      12   12297   12309  -12321   12306       4
   12297   12309   12321   12336       4   12297   12309   12324   12339       4
   12294   12288   12291   12300      18   12294   12288  -12291   12303      18
   12294   12288  -12297   12309      19   12294   12297  -12309   12321      20
   12294   12297   12309   12324      20   12294   12303  -12291   12300       4
   12294   12303   12318   12327       4   12294   12306  -12321   12309      21
   12294   12306   12321   12336      21   12291   12288  -12294   12297      16
   12291   12288  -12294   12303      16   12291   12288   12294   12306      16
   12291   12288  -12297   12294      19   12291   12288   12297   12309      19
   12291   12300   12312   12327       4   12291   12300   12312   12330       4
   12291   12303  -12294   12297      17   12291   12303  -12294   12306      10
   12291   12303  -12318   12327       4   12288   12291   12300   12312       4
   12288   12291  -12303   12294       4   12288   12291   12303   12318       4
   12288   12294  -12297   12309       9   12288   12294  -12303   12291      10
   12288   12294  -12303   12318      10   12288   12294   12306   12321      12
   12288   12297  -12294   12303       9   12288   12297  -12294   12306       9
   12288   12297  -12309   12321      22   12288   12297   12309   12324      22
   12624   12642   12645   12657       3   12606   12624   12642   12645       3
   12585   12606   12624   12642       3   12582   12567   12579   12594       4
   12582   12600  -12615   12594       4   12579   12567   12582   12600       4
   12579   12594  -12615   12600       4   12570   12585   12606   12624       3
   12567   12579   12594   12615       4   12567   12582  -12600   12615       4
   12558   12570   12585   12606       3   12549   12567   12579   12594       4
   12549   12567   12582   12600       4   12540   12558   12570   12585       3
   12531   12549   12567   12579       5   12531   12549   12567   12582       5
   12528   12549   12567   12579       5   12528   12549   12567   12582       5
   12522   12540   12558   12570       3   12519   12504   12522   12540       6
   12516   12501   12513   12528       4   12516   12531  -12549   12528       4
   12516   12531   12549   12567       4   12513   12501   12516   12531       4
   12513   12528  -12549   12531       4   12513   12528   12549   12567       4
   12510   12519   12504   12522       4   12504   12522   12540   12558       8
   12501   12513   12528   12549       4   12501   12516  -12531   12549       4
   12498   12486  -12489   12501       9   12498   12486   12495   12510      10
   12498   12513   12501   12516       4   12498   12513   12528   12549       4
   12495   12483   12492   12504       4   12495   12486   12489   12501      11
   12495   12486   12498   12513      12   12495   12510  -12519   12504       4
   12492   12483   12495   12510       4   12492   12504  -12519   12510       4
   12492   12504   12522   12540       6   12489   12480   12483   12492      13
   12489   12480  -12483   12492      14   12489   12480  -12483   12492      15
   12489   12480  -12483   12495      13   12489   12480  -12483   12495      14
   12489   12480  -12483   12495      15   12489   12480  -12486   12495      16
   12489   12480  -12486   12498      16   12489   12486   12495   12510      17
   12489   12486  -12498   12513      12   12489   12501  -12513   12498       4
   12489   12501   12513   12528       4   12489   12501   12516   12531       4
   12486   12480   12483   12492      18   12486   12480  -12483   12495      18
   12486   12480  -12489   12501      19   12486   12489  -12501   12513      20
   12486   12489   12501   12516      20   12486   12495  -12483   12492       4
   12486   12495   12510   12519       4   12486   12498  -12513   12501      21
   12486   12498   12513   12528      21   12483   12480  -12486   12489      16
   12483   12480  -12486   12495      16   12483   12480   12486   12498      16
   12483   12480  -12489   12486      19   12483   12480   12489   12501      19
   12483   12492   12504   12519       4   12483   12492   12504   12522       4
   12483   12495  -12486   12489      17   12483   12495  -12486   12498      10
   12483   12495  -12510   12519       4   12480   12483   12492   12504       4
   12480   12483  -12495   12486       4   12480   12483   12495   12510       4
   12480   12486  -12489   12501       9   12480   12486  -12495   12483      10
   12480   12486  -12495   12510      10   12480   12486   12498   12513      12
   12480   12489  -12486   12495       9   12480   12489  -12486   12498       9
   12480   12489  -12501   12513      22   12480   12489   12501   12516      22
   12816   12834   12837   12849       3   12798   12816   12834   12837       3
   12777   12798   12816   12834       3   12774   12759   12771   12786       4
   12774   12792  -12807   12786       4   12771   12759   12774   12792       4
   12771   12786  -12807   12792       4   12762   12777   12798   12816       3
   12759   12771   12786   12807       4   12759   12774  -12792   12807       4
   12750   12762   12777   12798       3   12741   12759   12771   12786       4
   12741   12759   12774   12792       4   12732   12750   12762   12777       3
   12723   12741   12759   12771       5   12723   12741   12759   12774       5
   12720   12741   12759   12771       5   12720   12741   12759   12774       5
   12714   12732   12750   12762       3   12711   12696   12714   12732       6
   12708   12693   12705   12720       4   12708   12723  -12741   12720       4
   12708   12723   12741   12759       4   12705   12693   12708   12723       4
   12705   12720  -12741   12723       4   12705   12720   12741   12759       4
   12702   12711   12696   12714       4   12696   12714   12732   12750       8
   12693   12705   12720   12741       4   12693   12708  -12723   12741       4
   12690   12678  -12681   12693       9   12690   12678   12687   12702      10
   12690   12705   12693   12708       4   12690   12705   12720   12741       4
   12687   12675   12684   12696       4   12687   12678   12681   12693      11
   12687   12678   12690   12705      12   12687   12702  -12711   12696       4
   12684   12675   12687   12702       4   12684   12696  -12711   12702       4
   12684   12696   12714   12732       6   12681   12672   12675   12684      13
   12681   12672  -12675   12684      14   12681   12672  -12675   12684      15
   12681   12672  -12675   12687      13   12681   12672  -12675   12687      14
   12681   12672  -12675   12687      15   12681   12672  -12678   12687      16
   12681   12672  -12678   12690      16   12681   12678   12687   12702      17
   12681   12678  -12690   12705      12   12681   12693  -12705   12690       4
   12681   12693   12705   12720       4   12681   12693   12708   12723       4
   12678   12672   12675   12684      18   12678   12672  -12675   12687      18
   12678   12672  -12681   12693      19   12678   12681  -12693   12705      20
   12678   12681   12693   12708      20   12678   12687  -12675   12684       4
   12678   12687   12702   12711       4   12678   12690  -12705   12693      21
   12678   12690   12705   12720      21   12675   12672  -12678   12681      16
   12675   12672  -12678   12687      16   12675   12672   12678   12690      16
   12675   12672  -12681   12678      19   12675   12672   12681   12693      19
   12675   12684   12696   12711       4   12675   12684   12696   12714       4
   12675   12687  -12678   12681      17   12675   12687  -12678   12690      10
   12675   12687  -12702   12711       4   12672   12675   12684   12696       4
   12672   12675  -12687   12678       4   12672   12675   12687   12702       4
   12672   12678  -12681   12693       9   12672   12678  -12687   12675      10
   12672   12678  -12687   12702      10   12672   12678   12690   12705      12
   12672   12681  -12678   12687       9   12672   12681  -12678   12690       9
   12672   12681  -12693   12705      22   12672   12681   12693   12708      22
   13008   13026   13029   13041       3   12990   13008   13026   13029       3
   12969   12990   13008   13026       3   12966   12951   12963   12978       4
   12966   12984  -12999   12978       4   12963   12951   12966   12984       4
   12963   12978  -12999   12984       4   12954   12969   12990   13008       3
   12951   12963   12978   12999       4   12951   12966  -12984   12999       4
   12942   12954   12969   12990       3   12933   12951   12963   12978       4
   12933   12951   12966   12984       4   12924   12942   12954   12969       3
   12915   12933   12951   12963       5   12915   12933   12951   12966       5
   12912   12933   12951   12963       5   12912   12933   12951   12966       5
   12906   12924   12942   12954       3   12903   12888   12906   12924       6
   12900   12885   12897   12912       4   12900   12915  -12933   12912       4
   12900   12915   12933   12951       4   12897   12885   12900   12915       4
   12897   12912  -12933   12915       4   12897   12912   12933   12951       4
   12894   12903   12888   12906       4   12888   12906   12924   12942       8
   12885   12897   12912   12933       4   12885   12900  -12915   12933       4
   12882   12870  -12873   12885       9   12882   12870   12879   12894      10
   12882   12897   12885   12900       4   12882   12897   12912   12933       4
   12879   12867   12876   12888       4   12879   12870   12873   12885      11
   12879   12870   12882   12897      12   12879   12894  -12903   12888       4
   12876   12867   12879   12894       4   12876   12888  -12903   12894       4
   12876   12888   12906   12924       6   12873   12864   12867   12876      13
   12873   12864  -12867   12876      14   12873   12864  -12867   12876      15
   12873   12864  -12867   12879      13   12873   12864  -12867   12879      14
   12873   12864  -12867   12879      15   12873   12864  -12870   12879      16
   12873   12864  -12870   12882      16   12873   12870   12879   12894      17
   12873   12870  -12882   12897      12   12873   12885  -12897   12882       4
   12873   12885   12897   12912       4   12873   12885   12900   12915       4
   12870   12864   12867   12876      18   12870   12864  -12867   12879      18
   12870   12864  -12873   12885      19   12870   12873  -12885   12897      20
   12870   12873   12885   12900      20   12870   12879  -12867   12876       4
   12870   12879   12894   12903       4   12870   12882  -12897   12885      21
   12870   12882   12897   12912      21   12867   12864  -12870   12873      16
   12867   12864  -12870   12879      16   12867   12864   12870   12882      16
   12867   12864  -12873   12870      19   12867   12864   12873   12885      19
   12867   12876   12888   12903       4   12867   12876   12888   12906       4
   12867   12879  -12870   12873      17   12867   12879  -12870   12882      10
   12867   12879  -12894   12903       4   12864   12867   12876   12888       4
   12864   12867  -12879   12870       4   12864   12867   12879   12894       4
   12864   12870  -12873   12885       9   12864   12870  -12879   12867      10
   12864   12870  -12879   12894      10   12864   12870   12882   12897      12
   12864   12873  -12870   12879       9   12864   12873  -12870   12882       9
   12864   12873  -12885   12897      22   12864   12873   12885   12900      22
   13200   13218   13221   13233       3   13182   13200   13218   13221       3
   13161   13182   13200   13218       3   13158   13143   13155   13170       4
   13158   13176  -13191   13170       4   13155   13143   13158   13176       4
   13155   13170  -13191   13176       4   13146   13161   13182   13200       3
   13143   13155   13170   13191       4   13143   13158  -13176   13191       4
   13134   13146   13161   13182       3   13125   13143   13155   13170       4
   13125   13143   13158   13176       4   13116   13134   13146   13161       3
   13107   13125   13143   13155       5   13107   13125   13143   13158       5
   13104   13125   13143   13155       5   13104   13125   13143   13158       5
   13098   13116   13134   13146       3   13095   13080   13098   13116       6
   13092   13077   13089   13104       4   13092   13107  -13125   13104       4
   13092   13107   13125   13143       4   13089   13077   13092   13107       4
   13089   13104  -13125   13107       4   13089   13104   13125   13143       4
   13086   13095   13080   13098       4   13080   13098   13116   13134       8
   13077   13089   13104   13125       4   13077   13092  -13107   13125       4
   13074   13062  -13065   13077       9   13074   13062   13071   13086      10
   13074   13089   13077   13092       4   13074   13089   13104   13125       4
   13071   13059   13068   13080       4   13071   13062   13065   13077      11
   13071   13062   13074   13089      12   13071   13086  -13095   13080       4
   13068   13059   13071   13086       4   13068   13080  -13095   13086       4
   13068   13080   13098   13116       6   13065   13056   13059   13068      13
   13065   13056  -13059   13068      14   13065   13056  -13059   13068      15
   13065   13056  -13059   13071      13   13065   13056  -13059   13071      14
   13065   13056  -13059   13071      15   13065   13056  -13062   13071      16
   13065   13056  -13062   13074      16   13065   13062   13071   13086      17
   13065   13062  -13074   13089      12   13065   13077  -13089   13074       4
   13065   13077   13089   13104       4   13065   13077   13092   13107       4
   13062   13056   13059   13068      18   13062   13056  -13059   13071      18
   13062   13056  -13065   13077      19   13062   13065  -13077   13089      20
   13062   13065   13077   13092      20   13062   13071  -13059   13068       4
   13062   13071   13086   13095       4   13062   13074  -13089   13077      21
   13062   13074   13089   13104      21   13059   13056  -13062   13065      16
   13059   13056  -13062   13071      16   13059   13056   13062   13074      16
   13059   13056  -13065   13062      19   13059   13056   13065   13077      19
   13059   13068   13080   13095       4   13059   13068   13080   13098       4
   13059   13071  -13062   13065      17   13059   13071  -13062   13074      10
   13059   13071  -13086   13095       4   13056   13059   13068   13080       4
   13056   13059  -13071   13062       4   13056   13059   13071   13086       4
   13056   13062  -13065   13077       9   13056   13062  -13071   13059      10
   13056   13062  -13071   13086      10   13056   13062   13074   13089      12
   13056   13065  -13062   13071       9   13056   13065  -13062   13074       9
   13056   13065  -13077   13089      22   13056   13065   13077   13092      22
   13392   13410   13413   13425       3   13374   13392   13410   13413       3
   13353   13374   13392   13410       3   13350   13335   13347   13362       4
   13350   13368  -13383   13362       4   13347   13335   13350   13368       4
   13347   13362  -13383   13368       4   13338   13353   13374   13392       3
   13335   13347   13362   13383       4   13335   13350  -13368   13383       4
   13326   13338   13353   13374       3   13317   13335   13347   13362       4
   13317   13335   13350   13368       4   13308   13326   13338   13353       3
   13299   13317   13335   13347       5   13299   13317   13335   13350       5
   13296   13317   13335   13347       5   13296   13317   13335   13350       5
   13290   13308   13326   13338       3   13287   13272   13290   13308       6
   13284   13269   13281   13296       4   13284   13299  -13317   13296       4
   13284   13299   13317   13335       4   13281   13269   13284   13299       4
   13281   13296  -13317   13299       4   13281   13296   13317   13335       4
   13278   13287   13272   13290       4   13272   13290   13308   13326       8
   13269   13281   13296   13317       4   13269   13284  -13299   13317       4
   13266   13254  -13257   13269       9   13266   13254   13263   13278      10
   13266   13281   13269   13284       4   13266   13281   13296   13317       4
   13263   13251   13260   13272       4   13263   13254   13257   13269      11
   13263   13254   13266   13281      12   13263   13278  -13287   13272       4
   13260   13251   13263   13278       4   13260   13272  -13287   13278       4
   13260   13272   13290   13308       6   13257   13248   13251   13260      13
   13257   13248  -13251   13260      14   13257   13248  -13251   13260      15
   13257   13248  -13251   13263      13   13257   13248  -13251   13263      14
   13257   13248  -13251   13263      15   13257   13248  -13254   13263      16
   13257   13248  -13254   13266      16   13257   13254   13263   13278      17
   13257   13254  -13266   13281      12   13257   13269  -13281   13266       4
   13257   13269   13281   13296       4   13257   13269   13284   13299       4
   13254   13248   13251   13260      18   13254   13248  -13251   13263      18
   13254   13248  -13257   13269      19   13254   13257  -13269   13281      20
   13254   13257   13269   13284      20   13254   13263  -13251   13260       4
   13254   13263   13278   13287       4   13254   13266  -13281   13269      21
   13254   13266   13281   13296      21   13251   13248  -13254   13257      16
   13251   13248  -13254   13263      16   13251   13248   13254   13266      16
   13251   13248  -13257   13254      19   13251   13248   13257   13269      19
   13251   13260   13272   13287       4   13251   13260   13272   13290       4
   13251   13263  -13254   13257      17   13251   13263  -13254   13266      10
   13251   13263  -13278   13287       4   13248   13251   13260   13272       4
   13248   13251  -13263   13254       4   13248   13251   13263   13278       4
   13248   13254  -13257   13269       9   13248   13254  -13263   13251      10
   13248   13254  -13263   13278      10   13248   13254   13266   13281      12
   13248   13257  -13254   13263       9   13248   13257  -13254   13266       9
   13248   13257  -13269   13281      22   13248   13257   13269   13284      22
   13584   13602   13605   13617       3   13566   13584   13602   13605       3
   13545   13566   13584   13602       3   13542   13527   13539   13554       4
   13542   13560  -13575   13554       4   13539   13527   13542   13560       4
   13539   13554  -13575   13560       4   13530   13545   13566   13584       3
   13527   13539   13554   13575       4   13527   13542  -13560   13575       4
   13518   13530   13545   13566       3   13509   13527   13539   13554       4
   13509   13527   13542   13560       4   13500   13518   13530   13545       3
   13491   13509   13527   13539       5   13491   13509   13527   13542       5
   13488   13509   13527   13539       5   13488   13509   13527   13542       5
   13482   13500   13518   13530       3   13479   13464   13482   13500       6
   13476   13461   13473   13488       4   13476   13491  -13509   13488       4
   13476   13491   13509   13527       4   13473   13461   13476   13491       4
   13473   13488  -13509   13491       4   13473   13488   13509   13527       4
   13470   13479   13464   13482       4   13464   13482   13500   13518       8
   13461   13473   13488   13509       4   13461   13476  -13491   13509       4
   13458   13446  -13449   13461       9   13458   13446   13455   13470      10
   13458   13473   13461   13476       4   13458   13473   13488   13509       4
   13455   13443   13452   13464       4   13455   13446   13449   13461      11
   13455   13446   13458   13473      12   13455   13470  -13479   13464       4
   13452   13443   13455   13470       4   13452   13464  -13479   13470       4
   13452   13464   13482   13500       6   13449   13440   13443   13452      13
   13449   13440  -13443   13452      14   13449   13440  -13443   13452      15
   13449   13440  -13443   13455      13   13449   13440  -13443   13455      14
   13449   13440  -13443   13455      15   13449   13440  -13446   13455      16
   13449   13440  -13446   13458      16   13449   13446   13455   13470      17
   13449   13446  -13458   13473      12   13449   13461  -13473   13458       4
   13449   13461   13473   13488       4   13449   13461   13476   13491       4
   13446   13440   13443   13452      18   13446   13440  -13443   13455      18
   13446   13440  -13449   13461      19   13446   13449  -13461   13473      20
   13446   13449   13461   13476      20   13446   13455  -13443   13452       4
   13446   13455   13470   13479       4   13446   13458  -13473   13461      21
   13446   13458   13473   13488      21   13443   13440  -13446   13449      16
   13443   13440  -13446   13455      16   13443   13440   13446   13458      16
   13443   13440  -13449   13446      19   13443   13440   13449   13461      19
   13443   13452   13464   13479       4   13443   13452   13464   13482       4
   13443   13455  -13446   13449      17   13443   13455  -13446   13458      10
   13443   13455  -13470   13479       4   13440   13443   13452   13464       4
   13440   13443  -13455   13446       4   13440   13443   13455   13470       4
   13440   13446  -13449   13461       9   13440   13446  -13455   13443      10
   13440   13446  -13455   13470      10   13440   13446   13458   13473      12
   13440   13449  -13446   13455       9   13440   13449  -13446   13458       9
   13440   13449  -13461   13473      22   13440   13449   13461   13476      22
   13776   13794   13797   13809       3   13758   13776   13794   13797       3
   13737   13758   13776   13794       3   13734   13719   13731   13746       4
   13734   13752  -13767   13746       4   13731   13719   13734   13752       4
   13731   13746  -13767   13752       4   13722   13737   13758   13776       3
   13719   13731   13746   13767       4   13719   13734  -13752   13767       4
   13710   13722   13737   13758       3   13701   13719   13731   13746       4
   13701   13719   13734   13752       4   13692   13710   13722   13737       3
   13683   13701   13719   13731       5   13683   13701   13719   13734       5
   13680   13701   13719   13731       5   13680   13701   13719   13734       5
   13674   13692   13710   13722       3   13671   13656   13674   13692       6
   13668   13653   13665   13680       4   13668   13683  -13701   13680       4
   13668   13683   13701   13719       4   13665   13653   13668   13683       4
   13665   13680  -13701   13683       4   13665   13680   13701   13719       4
   13662   13671   13656   13674       4   13656   13674   13692   13710       8
   13653   13665   13680   13701       4   13653   13668  -13683   13701       4
   13650   13638  -13641   13653       9   13650   13638   13647   13662      10
   13650   13665   13653   13668       4   13650   13665   13680   13701       4
   13647   13635   13644   13656       4   13647   13638   13641   13653      11
   13647   13638   13650   13665      12   13647   13662  -13671   13656       4
   13644   13635   13647   13662       4   13644   13656  -13671   13662       4
   13644   13656   13674   13692       6   13641   13632   13635   13644      13
   13641   13632  -13635   13644      14   13641   13632  -13635   13644      15
   13641   13632  -13635   13647      13   13641   13632  -13635   13647      14
   13641   13632  -13635   13647      15   13641   13632  -13638   13647      16
   13641   13632  -13638   13650      16   13641   13638   13647   13662      17
   13641   13638  -13650   13665      12   13641   13653  -13665   13650       4
   13641   13653   13665   13680       4   13641   13653   13668   13683       4
   13638   13632   13635   13644      18   13638   13632  -13635   13647      18
   13638   13632  -13641   13653      19   13638   13641  -13653   13665      20
   13638   13641   13653   13668      20   13638   13647  -13635   13644       4
   13638   13647   13662   13671       4   13638   13650  -13665   13653      21
   13638   13650   13665   13680      21   13635   13632  -13638   13641      16
   13635   13632  -13638   13647      16   13635   13632   13638   13650      16
   13635   13632  -13641   13638      19   13635   13632   13641   13653      19
   13635   13644   13656   13671       4   13635   13644   13656   13674       4
   13635   13647  -13638   13641      17   13635   13647  -13638   13650      10
   13635   13647  -13662   13671       4   13632   13635   13644   13656       4
   13632   13635  -13647   13638       4   13632   13635   13647   13662       4
   13632   13638  -13641   13653       9   13632   13638  -13647   13635      10
   13632   13638  -13647   13662      10   13632   13638   13650   13665      12
   13632   13641  -13638   13647       9   13632   13641  -13638   13650       9
   13632   13641  -13653   13665      22   13632   13641   13653   13668      22
   13968   13986   13989   14001       3   13950   13968   13986   13989       3
   13929   13950   13968   13986       3   13926   13911   13923   13938       4
   13926   13944  -13959   13938       4   13923   13911   13926   13944       4
   13923   13938  -13959   13944       4   13914   13929   13950   13968       3
   13911   13923   13938   13959       4   13911   13926  -13944   13959       4
   13902   13914   13929   13950       3   13893   13911   13923   13938       4
   13893   13911   13926   13944       4   13884   13902   13914   13929       3
   13875   13893   13911   13923       5   13875   13893   13911   13926       5
   13872   13893   13911   13923       5   13872   13893   13911   13926       5
   13866   13884   13902   13914       3   13863   13848   13866   13884       6
   13860   13845   13857   13872       4   13860   13875  -13893   13872       4
   13860   13875   13893   13911       4   13857   13845   13860   13875       4
   13857   13872  -13893   13875       4   13857   13872   13893   13911       4
   13854   13863   13848   13866       4   13848   13866   13884   13902       8
   13845   13857   13872   13893       4   13845   13860  -13875   13893       4
   13842   13830  -13833   13845       9   13842   13830   13839   13854      10
   13842   13857   13845   13860       4   13842   13857   13872   13893       4
   13839   13827   13836   13848       4   13839   13830   13833   13845      11
   13839   13830   13842   13857      12   13839   13854  -13863   13848       4
   13836   13827   13839   13854       4   13836   13848  -13863   13854       4
   13836   13848   13866   13884       6   13833   13824   13827   13836      13
   13833   13824  -13827   13836      14   13833   13824  -13827   13836      15
   13833   13824  -13827   13839      13   13833   13824  -13827   13839      14
   13833   13824  -13827   13839      15   13833   13824  -13830   13839      16
   13833   13824  -13830   13842      16   13833   13830   13839   13854      17
   13833   13830  -13842   13857      12   13833   13845  -13857   13842       4
   13833   13845   13857   13872       4   13833   13845   13860   13875       4
   13830   13824   13827   13836      18   13830   13824  -13827   13839      18
   13830   13824  -13833   13845      19   13830   13833  -13845   13857      20
   13830   13833   13845   13860      20   13830   13839  -13827   13836       4
   13830   13839   13854   13863       4   13830   13842  -13857   13845      21
   13830   13842   13857   13872      21   13827   13824  -13830   13833      16
   13827   13824  -13830   13839      16   13827   13824   13830   13842      16
   13827   13824  -13833   13830      19   13827   13824   13833   13845      19
   13827   13836   13848   13863       4   13827   13836   13848   13866       4
   13827   13839  -13830   13833      17   13827   13839  -13830   13842      10
   13827   13839  -13854   13863       4   13824   13827   13836   13848       4
   13824   13827  -13839   13830       4   13824   13827   13839   13854       4
   13824   13830  -13833   13845       9   13824   13830  -13839   13827      10
   13824   13830  -13839   13854      10   13824   13830   13842   13857      12
   13824   13833  -13830   13839       9   13824   13833  -13830   13842       9
   13824   13833  -13845   13857      22   13824   13833   13845   13860      22
   14160   14178   14181   14193       3   14142   14160   14178   14181       3
   14121   14142   14160   14178       3   14118   14103   14115   14130       4
   14118   14136  -14151   14130       4   14115   14103   14118   14136       4
   14115   14130  -14151   14136       4   14106   14121   14142   14160       3
   14103   14115   14130   14151       4   14103   14118  -14136   14151       4
   14094   14106   14121   14142       3   14085   14103   14115   14130       4
   14085   14103   14118   14136       4   14076   14094   14106   14121       3
   14067   14085   14103   14115       5   14067   14085   14103   14118       5
   14064   14085   14103   14115       5   14064   14085   14103   14118       5
   14058   14076   14094   14106       3   14055   14040   14058   14076       6
   14052   14037   14049   14064       4   14052   14067  -14085   14064       4
   14052   14067   14085   14103       4   14049   14037   14052   14067       4
   14049   14064  -14085   14067       4   14049   14064   14085   14103       4
   14046   14055   14040   14058       4   14040   14058   14076   14094       8
   14037   14049   14064   14085       4   14037   14052  -14067   14085       4
   14034   14022  -14025   14037       9   14034   14022   14031   14046      10
   14034   14049   14037   14052       4   14034   14049   14064   14085       4
   14031   14019   14028   14040       4   14031   14022   14025   14037      11
   14031   14022   14034   14049      12   14031   14046  -14055   14040       4
   14028   14019   14031   14046       4   14028   14040  -14055   14046       4
   14028   14040   14058   14076       6   14025   14016   14019   14028      13
   14025   14016  -14019   14028      14   14025   14016  -14019   14028      15
   14025   14016  -14019   14031      13   14025   14016  -14019   14031      14
   14025   14016  -14019   14031      15   14025   14016  -14022   14031      16
   14025   14016  -14022   14034      16   14025   14022   14031   14046      17
   14025   14022  -14034   14049      12   14025   14037  -14049   14034       4
   14025   14037   14049   14064       4   14025   14037   14052   14067       4
   14022   14016   14019   14028      18   14022   14016  -14019   14031      18
   14022   14016  -14025   14037      19   14022   14025  -14037   14049      20
   14022   14025   14037   14052      20   14022   14031  -14019   14028       4
   14022   14031   14046   14055       4   14022   14034  -14049   14037      21
   14022   14034   14049   14064      21   14019   14016  -14022   14025      16
   14019   14016  -14022   14031      16   14019   14016   14022   14034      16
   14019   14016  -14025   14022      19   14019   14016   14025   14037      19
   14019   14028   14040   14055       4   14019   14028   14040   14058       4
   14019   14031  -14022   14025      17   14019   14031  -14022   14034      10
   14019   14031  -14046   14055       4   14016   14019   14028   14040       4
   14016   14019  -14031   14022       4   14016   14019   14031   14046       4
   14016   14022  -14025   14037       9   14016   14022  -14031   14019      10
   14016   14022  -14031   14046      10   14016   14022   14034   14049      12
   14016   14025  -14022   14031       9   14016   14025  -14022   14034       9
   14016   14025  -14037   14049      22   14016   14025   14037   14052      22
   14352   14370   14373   14385       3   14334   14352   14370   14373       3
   14313   14334   14352   14370       3   14310   14295   14307   14322       4
   14310   14328  -14343   14322       4   14307   14295   14310   14328       4
   14307   14322  -14343   14328       4   14298   14313   14334   14352       3
   14295   14307   14322   14343       4   14295   14310  -14328   14343       4
   14286   14298   14313   14334       3   14277   14295   14307   14322       4
   14277   14295   14310   14328       4   14268   14286   14298   14313       3
   14259   14277   14295   14307       5   14259   14277   14295   14310       5
   14256   14277   14295   14307       5   14256   14277   14295   14310       5
   14250   14268   14286   14298       3   14247   14232   14250   14268       6
   14244   14229   14241   14256       4   14244   14259  -14277   14256       4
   14244   14259   14277   14295       4   14241   14229   14244   14259       4
   14241   14256  -14277   14259       4   14241   14256   14277   14295       4
   14238   14247   14232   14250       4   14232   14250   14268   14286       8
   14229   14241   14256   14277       4   14229   14244  -14259   14277       4
   14226   14214  -14217   14229       9   14226   14214   14223   14238      10
   14226   14241   14229   14244       4   14226   14241   14256   14277       4
   14223   14211   14220   14232       4   14223   14214   14217   14229      11
   14223   14214   14226   14241      12   14223   14238  -14247   14232       4
   14220   14211   14223   14238       4   14220   14232  -14247   14238       4
   14220   14232   14250   14268       6   14217   14208   14211   14220      13
   14217   14208  -14211   14220      14   14217   14208  -14211   14220      15
   14217   14208  -14211   14223      13   14217   14208  -14211   14223      14
   14217   14208  -14211   14223      15   14217   14208  -14214   14223      16
   14217   14208  -14214   14226      16   14217   14214   14223   14238      17
   14217   14214  -14226   14241      12   14217   14229  -14241   14226       4
   14217   14229   14241   14256       4   14217   14229   14244   14259       4
   14214   14208   14211   14220      18   14214   14208  -14211   14223      18
   14214   14208  -14217   14229      19   14214   14217  -14229   14241      20
   14214   14217   14229   14244      20   14214   14223  -14211   14220       4
   14214   14223   14238   14247       4   14214   14226  -14241   14229      21
   14214   14226   14241   14256      21   14211   14208  -14214   14217      16
   14211   14208  -14214   14223      16   14211   14208   14214   14226      16
   14211   14208  -14217   14214      19   14211   14208   14217   14229      19
   14211   14220   14232   14247       4   14211   14220   14232   14250       4
   14211   14223  -14214   14217      17   14211   14223  -14214   14226      10
   14211   14223  -14238   14247       4   14208   14211   14220   14232       4
   14208   14211  -14223   14214       4   14208   14211   14223   14238       4
   14208   14214  -14217   14229       9   14208   14214  -14223   14211      10
   14208   14214  -14223   14238      10   14208   14214   14226   14241      12
   14208   14217  -14214   14223       9   14208   14217  -14214   14226       9
   14208   14217  -14229   14241      22   14208   14217   14229   14244      22
   14544   14562   14565   14577       3   14526   14544   14562   14565       3
   14505   14526   14544   14562       3   14502   14487   14499   14514       4
   14502   14520  -14535   14514       4   14499   14487   14502   14520       4
   14499   14514  -14535   14520       4   14490   14505   14526   14544       3
   14487   14499   14514   14535       4   14487   14502  -14520   14535       4
   14478   14490   14505   14526       3   14469   14487   14499   14514       4
   14469   14487   14502   14520       4   14460   14478   14490   14505       3
   14451   14469   14487   14499       5   14451   14469   14487   14502       5
   14448   14469   14487   14499       5   14448   14469   14487   14502       5
   14442   14460   14478   14490       3   14439   14424   14442   14460       6
   14436   14421   14433   14448       4   14436   14451  -14469   14448       4
   14436   14451   14469   14487       4   14433   14421   14436   14451       4
   14433   14448  -14469   14451       4   14433   14448   14469   14487       4
   14430   14439   14424   14442       4   14424   14442   14460   14478       8
   14421   14433   14448   14469       4   14421   14436  -14451   14469       4
   14418   14406  -14409   14421       9   14418   14406   14415   14430      10
   14418   14433   14421   14436       4   14418   14433   14448   14469       4
   14415   14403   14412   14424       4   14415   14406   14409   14421      11
   14415   14406   14418   14433      12   14415   14430  -14439   14424       4
   14412   14403   14415   14430       4   14412   14424  -14439   14430       4
   14412   14424   14442   14460       6   14409   14400   14403   14412      13
   14409   14400  -14403   14412      14   14409   14400  -14403   14412      15
   14409   14400  -14403   14415      13   14409   14400  -14403   14415      14
   14409   14400  -14403   14415      15   14409   14400  -14406   14415      16
   14409   14400  -14406   14418      16   14409   14406   14415   14430      17
   14409   14406  -14418   14433      12   14409   14421  -14433   14418       4
   14409   14421   14433   14448       4   14409   14421   14436   14451       4
   14406   14400   14403   14412      18   14406   14400  -14403   14415      18
   14406   14400  -14409   14421      19   14406   14409  -14421   14433      20
   14406   14409   14421   14436      20   14406   14415  -14403   14412       4
   14406   14415   14430   14439       4   14406   14418  -14433   14421      21
   14406   14418   14433   14448      21   14403   14400  -14406   14409      16
   14403   14400  -14406   14415      16   14403   14400   14406   14418      16
   14403   14400  -14409   14406      19   14403   14400   14409   14421      19
   14403   14412   14424   14439       4   14403   14412   14424   14442       4
   14403   14415  -14406   14409      17   14403   14415  -14406   14418      10
   14403   14415  -14430   14439       4   14400   14403   14412   14424       4
   14400   14403  -14415   14406       4   14400   14403   14415   14430       4
   14400   14406  -14409   14421       9   14400   14406  -14415   14403      10
   14400   14406  -14415   14430      10   14400   14406   14418   14433      12
   14400   14409  -14406   14415       9   14400   14409  -14406   14418       9
   14400   14409  -14421   14433      22   14400   14409   14421   14436      22
   14736   14754   14757   14769       3   14718   14736   14754   14757       3
   14697   14718   14736   14754       3   14694   14679   14691   14706       4
   14694   14712  -14727   14706       4   14691   14679   14694   14712       4
   14691   14706  -14727   14712       4   14682   14697   14718   14736       3
   14679   14691   14706   14727       4   14679   14694  -14712   14727       4
   14670   14682   14697   14718       3   14661   14679   14691   14706       4
   14661   14679   14694   14712       4   14652   14670   14682   14697       3
   14643   14661   14679   14691       5   14643   14661   14679   14694       5
   14640   14661   14679   14691       5   14640   14661   14679   14694       5
   14634   14652   14670   14682       3   14631   14616   14634   14652       6
   14628   14613   14625   14640       4   14628   14643  -14661   14640       4
   14628   14643   14661   14679       4   14625   14613   14628   14643       4
   14625   14640  -14661   14643       4   14625   14640   14661   14679       4
   14622   14631   14616   14634       4   14616   14634   14652   14670       8
   14613   14625   14640   14661       4   14613   14628  -14643   14661       4
   14610   14598  -14601   14613       9   14610   14598   14607   14622      10
   14610   14625   14613   14628       4   14610   14625   14640   14661       4
   14607   14595   14604   14616       4   14607   14598   14601   14613      11
   14607   14598   14610   14625      12   14607   14622  -14631   14616       4
   14604   14595   14607   14622       4   14604   14616  -14631   14622       4
   14604   14616   14634   14652       6   14601   14592   14595   14604      13
   14601   14592  -14595   14604      14   14601   14592  -14595   14604      15
   14601   14592  -14595   14607      13   14601   14592  -14595   14607      14
   14601   14592  -14595   14607      15   14601   14592  -14598   14607      16
   14601   14592  -14598   14610      16   14601   14598   14607   14622      17
   14601   14598  -14610   14625      12   14601   14613  -14625   14610       4
   14601   14613   14625   14640       4   14601   14613   14628   14643       4
   14598   14592   14595   14604      18   14598   14592  -14595   14607      18
   14598   14592  -14601   14613      19   14598   14601  -14613   14625      20
   14598   14601   14613   14628      20   14598   14607  -14595   14604       4
   14598   14607   14622   14631       4   14598   14610  -14625   14613      21
   14598   14610   14625   14640      21   14595   14592  -14598   14601      16
   14595   14592  -14598   14607      16   14595   14592   14598   14610      16
   14595   14592  -14601   14598      19   14595   14592   14601   14613      19
   14595   14604   14616   14631       4   14595   14604   14616   14634       4
   14595   14607  -14598   14601      17   14595   14607  -14598   14610      10
   14595   14607  -14622   14631       4   14592   14595   14604   14616       4
   14592   14595  -14607   14598       4   14592   14595   14607   14622       4
   14592   14598  -14601   14613       9   14592   14598  -14607   14595      10
   14592   14598  -14607   14622      10   14592   14598   14610   14625      12
   14592   14601  -14598   14607       9   14592   14601  -14598   14610       9
   14592   14601  -14613   14625      22   14592   14601   14613   14628      22
   14928   14946   14949   14961       3   14910   14928   14946   14949       3
   14889   14910   14928   14946       3   14886   14871   14883   14898       4
   14886   14904  -14919   14898       4   14883   14871   14886   14904       4
   14883   14898  -14919   14904       4   14874   14889   14910   14928       3
   14871   14883   14898   14919       4   14871   14886  -14904   14919       4
   14862   14874   14889   14910       3   14853   14871   14883   14898       4
   14853   14871   14886   14904       4   14844   14862   14874   14889       3
   14835   14853   14871   14883       5   14835   14853   14871   14886       5
   14832   14853   14871   14883       5   14832   14853   14871   14886       5
   14826   14844   14862   14874       3   14823   14808   14826   14844       6
   14820   14805   14817   14832       4   14820   14835  -14853   14832       4
   14820   14835   14853   14871       4   14817   14805   14820   14835       4
   14817   14832  -14853   14835       4   14817   14832   14853   14871       4
   14814   14823   14808   14826       4   14808   14826   14844   14862       8
   14805   14817   14832   14853       4   14805   14820  -14835   14853       4
   14802   14790  -14793   14805       9   14802   14790   14799   14814      10
   14802   14817   14805   14820       4   14802   14817   14832   14853       4
   14799   14787   14796   14808       4   14799   14790   14793   14805      11
   14799   14790   14802   14817      12   14799   14814  -14823   14808       4
   14796   14787   14799   14814       4   14796   14808  -14823   14814       4
   14796   14808   14826   14844       6   14793   14784   14787   14796      13
   14793   14784  -14787   14796      14   14793   14784  -14787   14796      15
   14793   14784  -14787   14799      13   14793   14784  -14787   14799      14
   14793   14784  -14787   14799      15   14793   14784  -14790   14799      16
   14793   14784  -14790   14802      16   14793   14790   14799   14814      17
   14793   14790  -14802   14817      12   14793   14805  -14817   14802       4
   14793   14805   14817   14832       4   14793   14805   14820   14835       4
   14790   14784   14787   14796      18   14790   14784  -14787   14799      18
   14790   14784  -14793   14805      19   14790   14793  -14805   14817      20
   14790   14793   14805   14820      20   14790   14799  -14787   14796       4
   14790   14799   14814   14823       4   14790   14802  -14817   14805      21
   14790   14802   14817   14832      21   14787   14784  -14790   14793      16
   14787   14784  -14790   14799      16   14787   14784   14790   14802      16
   14787   14784  -14793   14790      19   14787   14784   14793   14805      19
   14787   14796   14808   14823       4   14787   14796   14808   14826       4
   14787   14799  -14790   14793      17   14787   14799  -14790   14802      10
   14787   14799  -14814   14823       4   14784   14787   14796   14808       4
   14784   14787  -14799   14790       4   14784   14787   14799   14814       4
   14784   14790  -14793   14805       9   14784   14790  -14799   14787      10
   14784   14790  -14799   14814      10   14784   14790   14802   14817      12
   14784   14793  -14790   14799       9   14784   14793  -14790   14802       9
   14784   14793  -14805   14817      22   14784   14793   14805   14820      22
   15120   15138   15141   15153       3   15102   15120   15138   15141       3
   15081   15102   15120   15138       3   15078   15063   15075   15090       4
   15078   15096  -15111   15090       4   15075   15063   15078   15096       4
   15075   15090  -15111   15096       4   15066   15081   15102   15120       3
   15063   15075   15090   15111       4   15063   15078  -15096   15111       4
   15054   15066   15081   15102       3   15045   15063   15075   15090       4
   15045   15063   15078   15096       4   15036   15054   15066   15081       3
   15027   15045   15063   15075       5   15027   15045   15063   15078       5
   15024   15045   15063   15075       5   15024   15045   15063   15078       5
   15018   15036   15054   15066       3   15015   15000   15018   15036       6
   15012   14997   15009   15024       4   15012   15027  -15045   15024       4
   15012   15027   15045   15063       4   15009   14997   15012   15027       4
   15009   15024  -15045   15027       4   15009   15024   15045   15063       4
   15006   15015   15000   15018       4   15000   15018   15036   15054       8
   14997   15009   15024   15045       4   14997   15012  -15027   15045       4
   14994   14982  -14985   14997       9   14994   14982   14991   15006      10
   14994   15009   14997   15012       4   14994   15009   15024   15045       4
   14991   14979   14988   15000       4   14991   14982   14985   14997      11
   14991   14982   14994   15009      12   14991   15006  -15015   15000       4
   14988   14979   14991   15006       4   14988   15000  -15015   15006       4
   14988   15000   15018   15036       6   14985   14976   14979   14988      13
   14985   14976  -14979   14988      14   14985   14976  -14979   14988      15
   14985   14976  -14979   14991      13   14985   14976  -14979   14991      14
   14985   14976  -14979   14991      15   14985   14976  -14982   14991      16
   14985   14976  -14982   14994      16   14985   14982   14991   15006      17
   14985   14982  -14994   15009      12   14985   14997  -15009   14994       4
   14985   14997   15009   15024       4   14985   14997   15012   15027       4
   14982   14976   14979   14988      18   14982   14976  -14979   14991      18
   14982   14976  -14985   14997      19   14982   14985  -14997   15009      20
   14982   14985   14997   15012      20   14982   14991  -14979   14988       4
   14982   14991   15006   15015       4   14982   14994  -15009   14997      21
   14982   14994   15009   15024      21   14979   14976  -14982   14985      16
   14979   14976  -14982   14991      16   14979   14976   14982   14994      16
   14979   14976  -14985   14982      19   14979   14976   14985   14997      19
   14979   14988   15000   15015       4   14979   14988   15000   15018       4
   14979   14991  -14982   14985      17   14979   14991  -14982   14994      10
   14979   14991  -15006   15015       4   14976   14979   14988   15000       4
   14976   14979  -14991   14982       4   14976   14979   14991   15006       4
   14976   14982  -14985   14997       9   14976   14982  -14991   14979      10
   14976   14982  -14991   15006      10   14976   14982   14994   15009      12
   14976   14985  -14982   14991       9   14976   14985  -14982   14994       9
   14976   14985  -14997   15009      22   14976   14985   14997   15012      22
   15312   15330   15333   15345       3   15294   15312   15330   15333       3
   15273   15294   15312   15330       3   15270   15255   15267   15282       4
   15270   15288  -15303   15282       4   15267   15255   15270   15288       4
   15267   15282  -15303   15288       4   15258   15273   15294   15312       3
   15255   15267   15282   15303       4   15255   15270  -15288   15303       4
   15246   15258   15273   15294       3   15237   15255   15267   15282       4
   15237   15255   15270   15288       4   15228   15246   15258   15273       3
   15219   15237   15255   15267       5   15219   15237   15255   15270       5
   15216   15237   15255   15267       5   15216   15237   15255   15270       5
   15210   15228   15246   15258       3   15207   15192   15210   15228       6
   15204   15189   15201   15216       4   15204   15219  -15237   15216       4
   15204   15219   15237   15255       4   15201   15189   15204   15219       4
   15201   15216  -15237   15219       4   15201   15216   15237   15255       4
   15198   15207   15192   15210       4   15192   15210   15228   15246       8
   15189   15201   15216   15237       4   15189   15204  -15219   15237       4
   15186   15174  -15177   15189       9   15186   15174   15183   15198      10
   15186   15201   15189   15204       4   15186   15201   15216   15237       4
   15183   15171   15180   15192       4   15183   15174   15177   15189      11
   15183   15174   15186   15201      12   15183   15198  -15207   15192       4
   15180   15171   15183   15198       4   15180   15192  -15207   15198       4
   15180   15192   15210   15228       6   15177   15168   15171   15180      13
   15177   15168  -15171   15180      14   15177   15168  -15171   15180      15
   15177   15168  -15171   15183      13   15177   15168  -15171   15183      14
   15177   15168  -15171   15183      15   15177   15168  -15174   15183      16
   15177   15168  -15174   15186      16   15177   15174   15183   15198      17
   15177   15174  -15186   15201      12   15177   15189  -15201   15186       4
   15177   15189   15201   15216       4   15177   15189   15204   15219       4
   15174   15168   15171   15180      18   15174   15168  -15171   15183      18
   15174   15168  -15177   15189      19   15174   15177  -15189   15201      20
   15174   15177   15189   15204      20   15174   15183  -15171   15180       4
   15174   15183   15198   15207       4   15174   15186  -15201   15189      21
   15174   15186   15201   15216      21   15171   15168  -15174   15177      16
   15171   15168  -15174   15183      16   15171   15168   15174   15186      16
   15171   15168  -15177   15174      19   15171   15168   15177   15189      19
   15171   15180   15192   15207       4   15171   15180   15192   15210       4
   15171   15183  -15174   15177      17   15171   15183  -15174   15186      10
   15171   15183  -15198   15207       4   15168   15171   15180   15192       4
   15168   15171  -15183   15174       4   15168   15171   15183   15198       4
   15168   15174  -15177   15189       9   15168   15174  -15183   15171      10
   15168   15174  -15183   15198      10   15168   15174   15186   15201      12
   15168   15177  -15174   15183       9   15168   15177  -15174   15186       9
   15168   15177  -15189   15201      22   15168   15177   15189   15204      22
   15504   15522   15525   15537       3   15486   15504   15522   15525       3
   15465   15486   15504   15522       3   15462   15447   15459   15474       4
   15462   15480  -15495   15474       4   15459   15447   15462   15480       4
   15459   15474  -15495   15480       4   15450   15465   15486   15504       3
   15447   15459   15474   15495       4   15447   15462  -15480   15495       4
   15438   15450   15465   15486       3   15429   15447   15459   15474       4
   15429   15447   15462   15480       4   15420   15438   15450   15465       3
   15411   15429   15447   15459       5   15411   15429   15447   15462       5
   15408   15429   15447   15459       5   15408   15429   15447   15462       5
   15402   15420   15438   15450       3   15399   15384   15402   15420       6
   15396   15381   15393   15408       4   15396   15411  -15429   15408       4
   15396   15411   15429   15447       4   15393   15381   15396   15411       4
   15393   15408  -15429   15411       4   15393   15408   15429   15447       4
   15390   15399   15384   15402       4   15384   15402   15420   15438       8
   15381   15393   15408   15429       4   15381   15396  -15411   15429       4
   15378   15366  -15369   15381       9   15378   15366   15375   15390      10
   15378   15393   15381   15396       4   15378   15393   15408   15429       4
   15375   15363   15372   15384       4   15375   15366   15369   15381      11
   15375   15366   15378   15393      12   15375   15390  -15399   15384       4
   15372   15363   15375   15390       4   15372   15384  -15399   15390       4
   15372   15384   15402   15420       6   15369   15360   15363   15372      13
   15369   15360  -15363   15372      14   15369   15360  -15363   15372      15
   15369   15360  -15363   15375      13   15369   15360  -15363   15375      14
   15369   15360  -15363   15375      15   15369   15360  -15366   15375      16
   15369   15360  -15366   15378      16   15369   15366   15375   15390      17
   15369   15366  -15378   15393      12   15369   15381  -15393   15378       4
   15369   15381   15393   15408       4   15369   15381   15396   15411       4
   15366   15360   15363   15372      18   15366   15360  -15363   15375      18
   15366   15360  -15369   15381      19   15366   15369  -15381   15393      20
   15366   15369   15381   15396      20   15366   15375  -15363   15372       4
   15366   15375   15390   15399       4   15366   15378  -15393   15381      21
   15366   15378   15393   15408      21   15363   15360  -15366   15369      16
   15363   15360  -15366   15375      16   15363   15360   15366   15378      16
   15363   15360  -15369   15366      19   15363   15360   15369   15381      19
   15363   15372   15384   15399       4   15363   15372   15384   15402       4
   15363   15375  -15366   15369      17   15363   15375  -15366   15378      10
   15363   15375  -15390   15399       4   15360   15363   15372   15384       4
   15360   15363  -15375   15366       4   15360   15363   15375   15390       4
   15360   15366  -15369   15381       9   15360   15366  -15375   15363      10
   15360   15366  -15375   15390      10   15360   15366   15378   15393      12
   15360   15369  -15366   15375       9   15360   15369  -15366   15378       9
   15360   15369  -15381   15393      22   15360   15369   15381   15396      22
   15696   15714   15717   15729       3   15678   15696   15714   15717       3
   15657   15678   15696   15714       3   15654   15639   15651   15666       4
   15654   15672  -15687   15666       4   15651   15639   15654   15672       4
   15651   15666  -15687   15672       4   15642   15657   15678   15696       3
   15639   15651   15666   15687       4   15639   15654  -15672   15687       4
   15630   15642   15657   15678       3   15621   15639   15651   15666       4
   15621   15639   15654   15672       4   15612   15630   15642   15657       3
   15603   15621   15639   15651       5   15603   15621   15639   15654       5
   15600   15621   15639   15651       5   15600   15621   15639   15654       5
   15594   15612   15630   15642       3   15591   15576   15594   15612       6
   15588   15573   15585   15600       4   15588   15603  -15621   15600       4
   15588   15603   15621   15639       4   15585   15573   15588   15603       4
   15585   15600  -15621   15603       4   15585   15600   15621   15639       4
   15582   15591   15576   15594       4   15576   15594   15612   15630       8
   15573   15585   15600   15621       4   15573   15588  -15603   15621       4
   15570   15558  -15561   15573       9   15570   15558   15567   15582      10
   15570   15585   15573   15588       4   15570   15585   15600   15621       4
   15567   15555   15564   15576       4   15567   15558   15561   15573      11
   15567   15558   15570   15585      12   15567   15582  -15591   15576       4
   15564   15555   15567   15582       4   15564   15576  -15591   15582       4
   15564   15576   15594   15612       6   15561   15552   15555   15564      13
   15561   15552  -15555   15564      14   15561   15552  -15555   15564      15
   15561   15552  -15555   15567      13   15561   15552  -15555   15567      14
   15561   15552  -15555   15567      15   15561   15552  -15558   15567      16
   15561   15552  -15558   15570      16   15561   15558   15567   15582      17
   15561   15558  -15570   15585      12   15561   15573  -15585   15570       4
   15561   15573   15585   15600       4   15561   15573   15588   15603       4
   15558   15552   15555   15564      18   15558   15552  -15555   15567      18
   15558   15552  -15561   15573      19   15558   15561  -15573   15585      20
   15558   15561   15573   15588      20   15558   15567  -15555   15564       4
   15558   15567   15582   15591       4   15558   15570  -15585   15573      21
   15558   15570   15585   15600      21   15555   15552  -15558   15561      16
   15555   15552  -15558   15567      16   15555   15552   15558   15570      16
   15555   15552  -15561   15558      19   15555   15552   15561   15573      19
   15555   15564   15576   15591       4   15555   15564   15576   15594       4
   15555   15567  -15558   15561      17   15555   15567  -15558   15570      10
   15555   15567  -15582   15591       4   15552   15555   15564   15576       4
   15552   15555  -15567   15558       4   15552   15555   15567   15582       4
   15552   15558  -15561   15573       9   15552   15558  -15567   15555      10
   15552   15558  -15567   15582      10   15552   15558   15570   15585      12
   15552   15561  -15558   15567       9   15552   15561  -15558   15570       9
   15552   15561  -15573   15585      22   15552   15561   15573   15588      22
   15888   15906   15909   15921       3   15870   15888   15906   15909       3
   15849   15870   15888   15906       3   15846   15831   15843   15858       4
   15846   15864  -15879   15858       4   15843   15831   15846   15864       4
   15843   15858  -15879   15864       4   15834   15849   15870   15888       3
   15831   15843   15858   15879       4   15831   15846  -15864   15879       4
   15822   15834   15849   15870       3   15813   15831   15843   15858       4
   15813   15831   15846   15864       4   15804   15822   15834   15849       3
   15795   15813   15831   15843       5   15795   15813   15831   15846       5
   15792   15813   15831   15843       5   15792   15813   15831   15846       5
   15786   15804   15822   15834       3   15783   15768   15786   15804       6
   15780   15765   15777   15792       4   15780   15795  -15813   15792       4
   15780   15795   15813   15831       4   15777   15765   15780   15795       4
   15777   15792  -15813   15795       4   15777   15792   15813   15831       4
   15774   15783   15768   15786       4   15768   15786   15804   15822       8
   15765   15777   15792   15813       4   15765   15780  -15795   15813       4
   15762   15750  -15753   15765       9   15762   15750   15759   15774      10
   15762   15777   15765   15780       4   15762   15777   15792   15813       4
   15759   15747   15756   15768       4   15759   15750   15753   15765      11
   15759   15750   15762   15777      12   15759   15774  -15783   15768       4
   15756   15747   15759   15774       4   15756   15768  -15783   15774       4
   15756   15768   15786   15804       6   15753   15744   15747   15756      13
   15753   15744  -15747   15756      14   15753   15744  -15747   15756      15
   15753   15744  -15747   15759      13   15753   15744  -15747   15759      14
   15753   15744  -15747   15759      15   15753   15744  -15750   15759      16
   15753   15744  -15750   15762      16   15753   15750   15759   15774      17
   15753   15750  -15762   15777      12   15753   15765  -15777   15762       4
   15753   15765   15777   15792       4   15753   15765   15780   15795       4
   15750   15744   15747   15756      18   15750   15744  -15747   15759      18
   15750   15744  -15753   15765      19   15750   15753  -15765   15777      20
   15750   15753   15765   15780      20   15750   15759  -15747   15756       4
   15750   15759   15774   15783       4   15750   15762  -15777   15765      21
   15750   15762   15777   15792      21   15747   15744  -15750   15753      16
   15747   15744  -15750   15759      16   15747   15744   15750   15762      16
   15747   15744  -15753   15750      19   15747   15744   15753   15765      19
   15747   15756   15768   15783       4   15747   15756   15768   15786       4
   15747   15759  -15750   15753      17   15747   15759  -15750   15762      10
   15747   15759  -15774   15783       4   15744   15747   15756   15768       4
   15744   15747  -15759   15750       4   15744   15747   15759   15774       4
   15744   15750  -15753   15765       9   15744   15750  -15759   15747      10
   15744   15750  -15759   15774      10   15744   15750   15762   15777      12
   15744   15753  -15750   15759       9   15744   15753  -15750   15762       9
   15744   15753  -15765   15777      22   15744   15753   15765   15780      22
   16080   16098   16101   16113       3   16062   16080   16098   16101       3
   16041   16062   16080   16098       3   16038   16023   16035   16050       4
   16038   16056  -16071   16050       4   16035   16023   16038   16056       4
   16035   16050  -16071   16056       4   16026   16041   16062   16080       3
   16023   16035   16050   16071       4   16023   16038  -16056   16071       4
   16014   16026   16041   16062       3   16005   16023   16035   16050       4
   16005   16023   16038   16056       4   15996   16014   16026   16041       3
   15987   16005   16023   16035       5   15987   16005   16023   16038       5
   15984   16005   16023   16035       5   15984   16005   16023   16038       5
   15978   15996   16014   16026       3   15975   15960   15978   15996       6
   15972   15957   15969   15984       4   15972   15987  -16005   15984       4
   15972   15987   16005   16023       4   15969   15957   15972   15987       4
   15969   15984  -16005   15987       4   15969   15984   16005   16023       4
   15966   15975   15960   15978       4   15960   15978   15996   16014       8
   15957   15969   15984   16005       4   15957   15972  -15987   16005       4
   15954   15942  -15945   15957       9   15954   15942   15951   15966      10
   15954   15969   15957   15972       4   15954   15969   15984   16005       4
   15951   15939   15948   15960       4   15951   15942   15945   15957      11
   15951   15942   15954   15969      12   15951   15966  -15975   15960       4
   15948   15939   15951   15966       4   15948   15960  -15975   15966       4
   15948   15960   15978   15996       6   15945   15936   15939   15948      13
   15945   15936  -15939   15948      14   15945   15936  -15939   15948      15
   15945   15936  -15939   15951      13   15945   15936  -15939   15951      14
   15945   15936  -15939   15951      15   15945   15936  -15942   15951      16
   15945   15936  -15942   15954      16   15945   15942   15951   15966      17
   15945   15942  -15954   15969      12   15945   15957  -15969   15954       4
   15945   15957   15969   15984       4   15945   15957   15972   15987       4
   15942   15936   15939   15948      18   15942   15936  -15939   15951      18
   15942   15936  -15945   15957      19   15942   15945  -15957   15969      20
   15942   15945   15957   15972      20   15942   15951  -15939   15948       4
   15942   15951   15966   15975       4   15942   15954  -15969   15957      21
   15942   15954   15969   15984      21   15939   15936  -15942   15945      16
   15939   15936  -15942   15951      16   15939   15936   15942   15954      16
   15939   15936  -15945   15942      19   15939   15936   15945   15957      19
   15939   15948   15960   15975       4   15939   15948   15960   15978       4
   15939   15951  -15942   15945      17   15939   15951  -15942   15954      10
   15939   15951  -15966   15975       4   15936   15939   15948   15960       4
   15936   15939  -15951   15942       4   15936   15939   15951   15966       4
   15936   15942  -15945   15957       9   15936   15942  -15951   15939      10
   15936   15942  -15951   15966      10   15936   15942   15954   15969      12
   15936   15945  -15942   15951       9   15936   15945  -15942   15954       9
   15936   15945  -15957   15969      22   15936   15945   15957   15972      22
   16272   16290   16293   16305       3   16254   16272   16290   16293       3
   16233   16254   16272   16290       3   16230   16215   16227   16242       4
   16230   16248  -16263   16242       4   16227   16215   16230   16248       4
   16227   16242  -16263   16248       4   16218   16233   16254   16272       3
   16215   16227   16242   16263       4   16215   16230  -16248   16263       4
   16206   16218   16233   16254       3   16197   16215   16227   16242       4
   16197   16215   16230   16248       4   16188   16206   16218   16233       3
   16179   16197   16215   16227       5   16179   16197   16215   16230       5
   16176   16197   16215   16227       5   16176   16197   16215   16230       5
   16170   16188   16206   16218       3   16167   16152   16170   16188       6
   16164   16149   16161   16176       4   16164   16179  -16197   16176       4
   16164   16179   16197   16215       4   16161   16149   16164   16179       4
   16161   16176  -16197   16179       4   16161   16176   16197   16215       4
   16158   16167   16152   16170       4   16152   16170   16188   16206       8
   16149   16161   16176   16197       4   16149   16164  -16179   16197       4
   16146   16134  -16137   16149       9   16146   16134   16143   16158      10
   16146   16161   16149   16164       4   16146   16161   16176   16197       4
   16143   16131   16140   16152       4   16143   16134   16137   16149      11
   16143   16134   16146   16161      12   16143   16158  -16167   16152       4
   16140   16131   16143   16158       4   16140   16152  -16167   16158       4
   16140   16152   16170   16188       6   16137   16128   16131   16140      13
   16137   16128  -16131   16140      14   16137   16128  -16131   16140      15
   16137   16128  -16131   16143      13   16137   16128  -16131   16143      14
   16137   16128  -16131   16143      15   16137   16128  -16134   16143      16
   16137   16128  -16134   16146      16   16137   16134   16143   16158      17
   16137   16134  -16146   16161      12   16137   16149  -16161   16146       4
   16137   16149   16161   16176       4   16137   16149   16164   16179       4
   16134   16128   16131   16140      18   16134   16128  -16131   16143      18
   16134   16128  -16137   16149      19   16134   16137  -16149   16161      20
   16134   16137   16149   16164      20   16134   16143  -16131   16140       4
   16134   16143   16158   16167       4   16134   16146  -16161   16149      21
   16134   16146   16161   16176      21   16131   16128  -16134   16137      16
   16131   16128  -16134   16143      16   16131   16128   16134   16146      16
   16131   16128  -16137   16134      19   16131   16128   16137   16149      19
   16131   16140   16152   16167       4   16131   16140   16152   16170       4
   16131   16143  -16134   16137      17   16131   16143  -16134   16146      10
   16131   16143  -16158   16167       4   16128   16131   16140   16152       4
   16128   16131  -16143   16134       4   16128   16131   16143   16158       4
   16128   16134  -16137   16149       9   16128   16134  -16143   16131      10
   16128   16134  -16143   16158      10   16128   16134   16146   16161      12
   16128   16137  -16134   16143       9   16128   16137  -16134   16146       9
   16128   16137  -16149   16161      22   16128   16137   16149   16164      22
   16464   16482   16485   16497       3   16446   16464   16482   16485       3
   16425   16446   16464   16482       3   16422   16407   16419   16434       4
   16422   16440  -16455   16434       4   16419   16407   16422   16440       4
   16419   16434  -16455   16440       4   16410   16425   16446   16464       3
   16407   16419   16434   16455       4   16407   16422  -16440   16455       4
   16398   16410   16425   16446       3   16389   16407   16419   16434       4
   16389   16407   16422   16440       4   16380   16398   16410   16425       3
   16371   16389   16407   16419       5   16371   16389   16407   16422       5
   16368   16389   16407   16419       5   16368   16389   16407   16422       5
   16362   16380   16398   16410       3   16359   16344   16362   16380       6
   16356   16341   16353   16368       4   16356   16371  -16389   16368       4
   16356   16371   16389   16407       4   16353   16341   16356   16371       4
   16353   16368  -16389   16371       4   16353   16368   16389   16407       4
   16350   16359   16344   16362       4   16344   16362   16380   16398       8
   16341   16353   16368   16389       4   16341   16356  -16371   16389       4
   16338   16326  -16329   16341       9   16338   16326   16335   16350      10
   16338   16353   16341   16356       4   16338   16353   16368   16389       4
   16335   16323   16332   16344       4   16335   16326   16329   16341      11
   16335   16326   16338   16353      12   16335   16350  -16359   16344       4
   16332   16323   16335   16350       4   16332   16344  -16359   16350       4
   16332   16344   16362   16380       6   16329   16320   16323   16332      13
   16329   16320  -16323   16332      14   16329   16320  -16323   16332      15
   16329   16320  -16323   16335      13   16329   16320  -16323   16335      14
   16329   16320  -16323   16335      15   16329   16320  -16326   16335      16
   16329   16320  -16326   16338      16   16329   16326   16335   16350      17
   16329   16326  -16338   16353      12   16329   16341  -16353   16338       4
   16329   16341   16353   16368       4   16329   16341   16356   16371       4
   16326   16320   16323   16332      18   16326   16320  -16323   16335      18
   16326   16320  -16329   16341      19   16326   16329  -16341   16353      20
   16326   16329   16341   16356      20   16326   16335  -16323   16332       4
   16326   16335   16350   16359       4   16326   16338  -16353   16341      21
   16326   16338   16353   16368      21   16323   16320  -16326   16329      16
   16323   16320  -16326   16335      16   16323   16320   16326   16338      16
   16323   16320  -16329   16326      19   16323   16320   16329   16341      19
   16323   16332   16344   16359       4   16323   16332   16344   16362       4
   16323   16335  -16326   16329      17   16323   16335  -16326   16338      10
   16323   16335  -16350   16359       4   16320   16323   16332   16344       4
   16320   16323  -16335   16326       4   16320   16323   16335   16350       4
   16320   16326  -16329   16341       9   16320   16326  -16335   16323      10
   16320   16326  -16335   16350      10   16320   16326   16338   16353      12
   16320   16329  -16326   16335       9   16320   16329  -16326   16338       9
   16320   16329  -16341   16353      22   16320   16329   16341   16356      22
   16656   16674   16677   16689       3   16638   16656   16674   16677       3
   16617   16638   16656   16674       3   16614   16599   16611   16626       4
   16614   16632  -16647   16626       4   16611   16599   16614   16632       4
   16611   16626  -16647   16632       4   16602   16617   16638   16656       3
   16599   16611   16626   16647       4   16599   16614  -16632   16647       4
   16590   16602   16617   16638       3   16581   16599   16611   16626       4
   16581   16599   16614   16632       4   16572   16590   16602   16617       3
   16563   16581   16599   16611       5   16563   16581   16599   16614       5
   16560   16581   16599   16611       5   16560   16581   16599   16614       5
   16554   16572   16590   16602       3   16551   16536   16554   16572       6
   16548   16533   16545   16560       4   16548   16563  -16581   16560       4
   16548   16563   16581   16599       4   16545   16533   16548   16563       4
   16545   16560  -16581   16563       4   16545   16560   16581   16599       4
   16542   16551   16536   16554       4   16536   16554   16572   16590       8
   16533   16545   16560   16581       4   16533   16548  -16563   16581       4
   16530   16518  -16521   16533       9   16530   16518   16527   16542      10
   16530   16545   16533   16548       4   16530   16545   16560   16581       4
   16527   16515   16524   16536       4   16527   16518   16521   16533      11
   16527   16518   16530   16545      12   16527   16542  -16551   16536       4
   16524   16515   16527   16542       4   16524   16536  -16551   16542       4
   16524   16536   16554   16572       6   16521   16512   16515   16524      13
   16521   16512  -16515   16524      14   16521   16512  -16515   16524      15
   16521   16512  -16515   16527      13   16521   16512  -16515   16527      14
   16521   16512  -16515   16527      15   16521   16512  -16518   16527      16
   16521   16512  -16518   16530      16   16521   16518   16527   16542      17
   16521   16518  -16530   16545      12   16521   16533  -16545   16530       4
   16521   16533   16545   16560       4   16521   16533   16548   16563       4
   16518   16512   16515   16524      18   16518   16512  -16515   16527      18
   16518   16512  -16521   16533      19   16518   16521  -16533   16545      20
   16518   16521   16533   16548      20   16518   16527  -16515   16524       4
   16518   16527   16542   16551       4   16518   16530  -16545   16533      21
   16518   16530   16545   16560      21   16515   16512  -16518   16521      16
   16515   16512  -16518   16527      16   16515   16512   16518   16530      16
   16515   16512  -16521   16518      19   16515   16512   16521   16533      19
   16515   16524   16536   16551       4   16515   16524   16536   16554       4
   16515   16527  -16518   16521      17   16515   16527  -16518   16530      10
   16515   16527  -16542   16551       4   16512   16515   16524   16536       4
   16512   16515  -16527   16518       4   16512   16515   16527   16542       4
   16512   16518  -16521   16533       9   16512   16518  -16527   16515      10
   16512   16518  -16527   16542      10   16512   16518   16530   16545      12
   16512   16521  -16518   16527       9   16512   16521  -16518   16530       9
   16512   16521  -16533   16545      22   16512   16521   16533   16548      22
   16848   16866   16869   16881       3   16830   16848   16866   16869       3
   16809   16830   16848   16866       3   16806   16791   16803   16818       4
   16806   16824  -16839   16818       4   16803   16791   16806   16824       4
   16803   16818  -16839   16824       4   16794   16809   16830   16848       3
   16791   16803   16818   16839       4   16791   16806  -16824   16839       4
   16782   16794   16809   16830       3   16773   16791   16803   16818       4
   16773   16791   16806   16824       4   16764   16782   16794   16809       3
   16755   16773   16791   16803       5   16755   16773   16791   16806       5
   16752   16773   16791   16803       5   16752   16773   16791   16806       5
   16746   16764   16782   16794       3   16743   16728   16746   16764       6
   16740   16725   16737   16752       4   16740   16755  -16773   16752       4
   16740   16755   16773   16791       4   16737   16725   16740   16755       4
   16737   16752  -16773   16755       4   16737   16752   16773   16791       4
   16734   16743   16728   16746       4   16728   16746   16764   16782       8
   16725   16737   16752   16773       4   16725   16740  -16755   16773       4
   16722   16710  -16713   16725       9   16722   16710   16719   16734      10
   16722   16737   16725   16740       4   16722   16737   16752   16773       4
   16719   16707   16716   16728       4   16719   16710   16713   16725      11
   16719   16710   16722   16737      12   16719   16734  -16743   16728       4
   16716   16707   16719   16734       4   16716   16728  -16743   16734       4
   16716   16728   16746   16764       6   16713   16704   16707   16716      13
   16713   16704  -16707   16716      14   16713   16704  -16707   16716      15
   16713   16704  -16707   16719      13   16713   16704  -16707   16719      14
   16713   16704  -16707   16719      15   16713   16704  -16710   16719      16
   16713   16704  -16710   16722      16   16713   16710   16719   16734      17
   16713   16710  -16722   16737      12   16713   16725  -16737   16722       4
   16713   16725   16737   16752       4   16713   16725   16740   16755       4
   16710   16704   16707   16716      18   16710   16704  -16707   16719      18
   16710   16704  -16713   16725      19   16710   16713  -16725   16737      20
   16710   16713   16725   16740      20   16710   16719  -16707   16716       4
   16710   16719   16734   16743       4   16710   16722  -16737   16725      21
   16710   16722   16737   16752      21   16707   16704  -16710   16713      16
   16707   16704  -16710   16719      16   16707   16704   16710   16722      16
   16707   16704  -16713   16710      19   16707   16704   16713   16725      19
   16707   16716   16728   16743       4   16707   16716   16728   16746       4
   16707   16719  -16710   16713      17   16707   16719  -16710   16722      10
   16707   16719  -16734   16743       4   16704   16707   16716   16728       4
   16704   16707  -16719   16710       4   16704   16707   16719   16734       4
   16704   16710  -16713   16725       9   16704   16710  -16719   16707      10
   16704   16710  -16719   16734      10   16704   16710   16722   16737      12
   16704   16713  -16710   16719       9   16704   16713  -16710   16722       9
   16704   16713  -16725   16737      22   16704   16713   16725   16740      22
   17040   17058   17061   17073       3   17022   17040   17058   17061       3
   17001   17022   17040   17058       3   16998   16983   16995   17010       4
   16998   17016  -17031   17010       4   16995   16983   16998   17016       4
   16995   17010  -17031   17016       4   16986   17001   17022   17040       3
   16983   16995   17010   17031       4   16983   16998  -17016   17031       4
   16974   16986   17001   17022       3   16965   16983   16995   17010       4
   16965   16983   16998   17016       4   16956   16974   16986   17001       3
   16947   16965   16983   16995       5   16947   16965   16983   16998       5
   16944   16965   16983   16995       5   16944   16965   16983   16998       5
   16938   16956   16974   16986       3   16935   16920   16938   16956       6
   16932   16917   16929   16944       4   16932   16947  -16965   16944       4
   16932   16947   16965   16983       4   16929   16917   16932   16947       4
   16929   16944  -16965   16947       4   16929   16944   16965   16983       4
   16926   16935   16920   16938       4   16920   16938   16956   16974       8
   16917   16929   16944   16965       4   16917   16932  -16947   16965       4
   16914   16902  -16905   16917       9   16914   16902   16911   16926      10
   16914   16929   16917   16932       4   16914   16929   16944   16965       4
   16911   16899   16908   16920       4   16911   16902   16905   16917      11
   16911   16902   16914   16929      12   16911   16926  -16935   16920       4
   16908   16899   16911   16926       4   16908   16920  -16935   16926       4
   16908   16920   16938   16956       6   16905   16896   16899   16908      13
   16905   16896  -16899   16908      14   16905   16896  -16899   16908      15
   16905   16896  -16899   16911      13   16905   16896  -16899   16911      14
   16905   16896  -16899   16911      15   16905   16896  -16902   16911      16
   16905   16896  -16902   16914      16   16905   16902   16911   16926      17
   16905   16902  -16914   16929      12   16905   16917  -16929   16914       4
   16905   16917   16929   16944       4   16905   16917   16932   16947       4
   16902   16896   16899   16908      18   16902   16896  -16899   16911      18
   16902   16896  -16905   16917      19   16902   16905  -16917   16929      20
   16902   16905   16917   16932      20   16902   16911  -16899   16908       4
   16902   16911   16926   16935       4   16902   16914  -16929   16917      21
   16902   16914   16929   16944      21   16899   16896  -16902   16905      16
   16899   16896  -16902   16911      16   16899   16896   16902   16914      16
   16899   16896  -16905   16902      19   16899   16896   16905   16917      19
   16899   16908   16920   16935       4   16899   16908   16920   16938       4
   16899   16911  -16902   16905      17   16899   16911  -16902   16914      10
   16899   16911  -16926   16935       4   16896   16899   16908   16920       4
   16896   16899  -16911   16902       4   16896   16899   16911   16926       4
   16896   16902  -16905   16917       9   16896   16902  -16911   16899      10
   16896   16902  -16911   16926      10   16896   16902   16914   16929      12
   16896   16905  -16902   16911       9   16896   16905  -16902   16914       9
   16896   16905  -16917   16929      22   16896   16905   16917   16932      22
   17232   17250   17253   17265       3   17214   17232   17250   17253       3
   17193   17214   17232   17250       3   17190   17175   17187   17202       4
   17190   17208  -17223   17202       4   17187   17175   17190   17208       4
   17187   17202  -17223   17208       4   17178   17193   17214   17232       3
   17175   17187   17202   17223       4   17175   17190  -17208   17223       4
   17166   17178   17193   17214       3   17157   17175   17187   17202       4
   17157   17175   17190   17208       4   17148   17166   17178   17193       3
   17139   17157   17175   17187       5   17139   17157   17175   17190       5
   17136   17157   17175   17187       5   17136   17157   17175   17190       5
   17130   17148   17166   17178       3   17127   17112   17130   17148       6
   17124   17109   17121   17136       4   17124   17139  -17157   17136       4
   17124   17139   17157   17175       4   17121   17109   17124   17139       4
   17121   17136  -17157   17139       4   17121   17136   17157   17175       4
   17118   17127   17112   17130       4   17112   17130   17148   17166       8
   17109   17121   17136   17157       4   17109   17124  -17139   17157       4
   17106   17094  -17097   17109       9   17106   17094   17103   17118      10
   17106   17121   17109   17124       4   17106   17121   17136   17157       4
   17103   17091   17100   17112       4   17103   17094   17097   17109      11
   17103   17094   17106   17121      12   17103   17118  -17127   17112       4
   17100   17091   17103   17118       4   17100   17112  -17127   17118       4
   17100   17112   17130   17148       6   17097   17088   17091   17100      13
   17097   17088  -17091   17100      14   17097   17088  -17091   17100      15
   17097   17088  -17091   17103      13   17097   17088  -17091   17103      14
   17097   17088  -17091   17103      15   17097   17088  -17094   17103      16
   17097   17088  -17094   17106      16   17097   17094   17103   17118      17
   17097   17094  -17106   17121      12   17097   17109  -17121   17106       4
   17097   17109   17121   17136       4   17097   17109   17124   17139       4
   17094   17088   17091   17100      18   17094   17088  -17091   17103      18
   17094   17088  -17097   17109      19   17094   17097  -17109   17121      20
   17094   17097   17109   17124      20   17094   17103  -17091   17100       4
   17094   17103   17118   17127       4   17094   17106  -17121   17109      21
   17094   17106   17121   17136      21   17091   17088  -17094   17097      16
   17091   17088  -17094   17103      16   17091   17088   17094   17106      16
   17091   17088  -17097   17094      19   17091   17088   17097   17109      19
   17091   17100   17112   17127       4   17091   17100   17112   17130       4
   17091   17103  -17094   17097      17   17091   17103  -17094   17106      10
   17091   17103  -17118   17127       4   17088   17091   17100   17112       4
   17088   17091  -17103   17094       4   17088   17091   17103   17118       4
   17088   17094  -17097   17109       9   17088   17094  -17103   17091      10
   17088   17094  -17103   17118      10   17088   17094   17106   17121      12
   17088   17097  -17094   17103       9   17088   17097  -17094   17106       9
   17088   17097  -17109   17121      22   17088   17097   17109   17124      22
   17424   17442   17445   17457       3   17406   17424   17442   17445       3
   17385   17406   17424   17442       3   17382   17367   17379   17394       4
   17382   17400  -17415   17394       4   17379   17367   17382   17400       4
   17379   17394  -17415   17400       4   17370   17385   17406   17424       3
   17367   17379   17394   17415       4   17367   17382  -17400   17415       4
   17358   17370   17385   17406       3   17349   17367   17379   17394       4
   17349   17367   17382   17400       4   17340   17358   17370   17385       3
   17331   17349   17367   17379       5   17331   17349   17367   17382       5
   17328   17349   17367   17379       5   17328   17349   17367   17382       5
   17322   17340   17358   17370       3   17319   17304   17322   17340       6
   17316   17301   17313   17328       4   17316   17331  -17349   17328       4
   17316   17331   17349   17367       4   17313   17301   17316   17331       4
   17313   17328  -17349   17331       4   17313   17328   17349   17367       4
   17310   17319   17304   17322       4   17304   17322   17340   17358       8
   17301   17313   17328   17349       4   17301   17316  -17331   17349       4
   17298   17286  -17289   17301       9   17298   17286   17295   17310      10
   17298   17313   17301   17316       4   17298   17313   17328   17349       4
   17295   17283   17292   17304       4   17295   17286   17289   17301      11
   17295   17286   17298   17313      12   17295   17310  -17319   17304       4
   17292   17283   17295   17310       4   17292   17304  -17319   17310       4
   17292   17304   17322   17340       6   17289   17280   17283   17292      13
   17289   17280  -17283   17292      14   17289   17280  -17283   17292      15
   17289   17280  -17283   17295      13   17289   17280  -17283   17295      14
   17289   17280  -17283   17295      15   17289   17280  -17286   17295      16
   17289   17280  -17286   17298      16   17289   17286   17295   17310      17
   17289   17286  -17298   17313      12   17289   17301  -17313   17298       4
   17289   17301   17313   17328       4   17289   17301   17316   17331       4
   17286   17280   17283   17292      18   17286   17280  -17283   17295      18
   17286   17280  -17289   17301      19   17286   17289  -17301   17313      20
   17286   17289   17301   17316      20   17286   17295  -17283   17292       4
   17286   17295   17310   17319       4   17286   17298  -17313   17301      21
   17286   17298   17313   17328      21   17283   17280  -17286   17289      16
   17283   17280  -17286   17295      16   17283   17280   17286   17298      16
   17283   17280  -17289   17286      19   17283   17280   17289   17301      19
   17283   17292   17304   17319       4   17283   17292   17304   17322       4
   17283   17295  -17286   17289      17   17283   17295  -17286   17298      10
   17283   17295  -17310   17319       4   17280   17283   17292   17304       4
   17280   17283  -17295   17286       4   17280   17283   17295   17310       4
   17280   17286  -17289   17301       9   17280   17286  -17295   17283      10
   17280   17286  -17295   17310      10   17280   17286   17298   17313      12
   17280   17289  -17286   17295       9   17280   17289  -17286   17298       9
   17280   17289  -17301   17313      22   17280   17289   17301   17316      22
   17616   17634   17637   17649       3   17598   17616   17634   17637       3
   17577   17598   17616   17634       3   17574   17559   17571   17586       4
   17574   17592  -17607   17586       4   17571   17559   17574   17592       4
   17571   17586  -17607   17592       4   17562   17577   17598   17616       3
   17559   17571   17586   17607       4   17559   17574  -17592   17607       4
   17550   17562   17577   17598       3   17541   17559   17571   17586       4
   17541   17559   17574   17592       4   17532   17550   17562   17577       3
   17523   17541   17559   17571       5   17523   17541   17559   17574       5
   17520   17541   17559   17571       5   17520   17541   17559   17574       5
   17514   17532   17550   17562       3   17511   17496   17514   17532       6
   17508   17493   17505   17520       4   17508   17523  -17541   17520       4
   17508   17523   17541   17559       4   17505   17493   17508   17523       4
   17505   17520  -17541   17523       4   17505   17520   17541   17559       4
   17502   17511   17496   17514       4   17496   17514   17532   17550       8
   17493   17505   17520   17541       4   17493   17508  -17523   17541       4
   17490   17478  -17481   17493       9   17490   17478   17487   17502      10
   17490   17505   17493   17508       4   17490   17505   17520   17541       4
   17487   17475   17484   17496       4   17487   17478   17481   17493      11
   17487   17478   17490   17505      12   17487   17502  -17511   17496       4
   17484   17475   17487   17502       4   17484   17496  -17511   17502       4
   17484   17496   17514   17532       6   17481   17472   17475   17484      13
   17481   17472  -17475   17484      14   17481   17472  -17475   17484      15
   17481   17472  -17475   17487      13   17481   17472  -17475   17487      14
   17481   17472  -17475   17487      15   17481   17472  -17478   17487      16
   17481   17472  -17478   17490      16   17481   17478   17487   17502      17
   17481   17478  -17490   17505      12   17481   17493  -17505   17490       4
   17481   17493   17505   17520       4   17481   17493   17508   17523       4
   17478   17472   17475   17484      18   17478   17472  -17475   17487      18
   17478   17472  -17481   17493      19   17478   17481  -17493   17505      20
   17478   17481   17493   17508      20   17478   17487  -17475   17484       4
   17478   17487   17502   17511       4   17478   17490  -17505   17493      21
   17478   17490   17505   17520      21   17475   17472  -17478   17481      16
   17475   17472  -17478   17487      16   17475   17472   17478   17490      16
   17475   17472  -17481   17478      19   17475   17472   17481   17493      19
   17475   17484   17496   17511       4   17475   17484   17496   17514       4
   17475   17487  -17478   17481      17   17475   17487  -17478   17490      10
   17475   17487  -17502   17511       4   17472   17475   17484   17496       4
   17472   17475  -17487   17478       4   17472   17475   17487   17502       4
   17472   17478  -17481   17493       9   17472   17478  -17487   17475      10
   17472   17478  -17487   17502      10   17472   17478   17490   17505      12
   17472   17481  -17478   17487       9   17472   17481  -17478   17490       9
   17472   17481  -17493   17505      22   17472   17481   17493   17508      22
   17808   17826   17829   17841       3   17790   17808   17826   17829       3
   17769   17790   17808   17826       3   17766   17751   17763   17778       4
   17766   17784  -17799   17778       4   17763   17751   17766   17784       4
   17763   17778  -17799   17784       4   17754   17769   17790   17808       3
   17751   17763   17778   17799       4   17751   17766  -17784   17799       4
   17742   17754   17769   17790       3   17733   17751   17763   17778       4
   17733   17751   17766   17784       4   17724   17742   17754   17769       3
   17715   17733   17751   17763       5   17715   17733   17751   17766       5
   17712   17733   17751   17763       5   17712   17733   17751   17766       5
   17706   17724   17742   17754       3   17703   17688   17706   17724       6
   17700   17685   17697   17712       4   17700   17715  -17733   17712       4
   17700   17715   17733   17751       4   17697   17685   17700   17715       4
   17697   17712  -17733   17715       4   17697   17712   17733   17751       4
   17694   17703   17688   17706       4   17688   17706   17724   17742       8
   17685   17697   17712   17733       4   17685   17700  -17715   17733       4
   17682   17670  -17673   17685       9   17682   17670   17679   17694      10
   17682   17697   17685   17700       4   17682   17697   17712   17733       4
   17679   17667   17676   17688       4   17679   17670   17673   17685      11
   17679   17670   17682   17697      12   17679   17694  -17703   17688       4
   17676   17667   17679   17694       4   17676   17688  -17703   17694       4
   17676   17688   17706   17724       6   17673   17664   17667   17676      13
   17673   17664  -17667   17676      14   17673   17664  -17667   17676      15
   17673   17664  -17667   17679      13   17673   17664  -17667   17679      14
   17673   17664  -17667   17679      15   17673   17664  -17670   17679      16
   17673   17664  -17670   17682      16   17673   17670   17679   17694      17
   17673   17670  -17682   17697      12   17673   17685  -17697   17682       4
   17673   17685   17697   17712       4   17673   17685   17700   17715       4
   17670   17664   17667   17676      18   17670   17664  -17667   17679      18
   17670   17664  -17673   17685      19   17670   17673  -17685   17697      20
   17670   17673   17685   17700      20   17670   17679  -17667   17676       4
   17670   17679   17694   17703       4   17670   17682  -17697   17685      21
   17670   17682   17697   17712      21   17667   17664  -17670   17673      16
   17667   17664  -17670   17679      16   17667   17664   17670   17682      16
   17667   17664  -17673   17670      19   17667   17664   17673   17685      19
   17667   17676   17688   17703       4   17667   17676   17688   17706       4
   17667   17679  -17670   17673      17   17667   17679  -17670   17682      10
   17667   17679  -17694   17703       4   17664   17667   17676   17688       4
   17664   17667  -17679   17670       4   17664   17667   17679   17694       4
   17664   17670  -17673   17685       9   17664   17670  -17679   17667      10
   17664   17670  -17679   17694      10   17664   17670   17682   17697      12
   17664   17673  -17670   17679       9   17664   17673  -17670   17682       9
   17664   17673  -17685   17697      22   17664   17673   17685   17700      22
   18000   18018   18021   18033       3   17982   18000   18018   18021       3
   17961   17982   18000   18018       3   17958   17943   17955   17970       4
   17958   17976  -17991   17970       4   17955   17943   17958   17976       4
   17955   17970  -17991   17976       4   17946   17961   17982   18000       3
   17943   17955   17970   17991       4   17943   17958  -17976   17991       4
   17934   17946   17961   17982       3   17925   17943   17955   17970       4
   17925   17943   17958   17976       4   17916   17934   17946   17961       3
   17907   17925   17943   17955       5   17907   17925   17943   17958       5
   17904   17925   17943   17955       5   17904   17925   17943   17958       5
   17898   17916   17934   17946       3   17895   17880   17898   17916       6
   17892   17877   17889   17904       4   17892   17907  -17925   17904       4
   17892   17907   17925   17943       4   17889   17877   17892   17907       4
   17889   17904  -17925   17907       4   17889   17904   17925   17943       4
   17886   17895   17880   17898       4   17880   17898   17916   17934       8
   17877   17889   17904   17925       4   17877   17892  -17907   17925       4
   17874   17862  -17865   17877       9   17874   17862   17871   17886      10
   17874   17889   17877   17892       4   17874   17889   17904   17925       4
   17871   17859   17868   17880       4   17871   17862   17865   17877      11
   17871   17862   17874   17889      12   17871   17886  -17895   17880       4
   17868   17859   17871   17886       4   17868   17880  -17895   17886       4
   17868   17880   17898   17916       6   17865   17856   17859   17868      13
   17865   17856  -17859   17868      14   17865   17856  -17859   17868      15
   17865   17856  -17859   17871      13   17865   17856  -17859   17871      14
   17865   17856  -17859   17871      15   17865   17856  -17862   17871      16
   17865   17856  -17862   17874      16   17865   17862   17871   17886      17
   17865   17862  -17874   17889      12   17865   17877  -17889   17874       4
   17865   17877   17889   17904       4   17865   17877   17892   17907       4
   17862   17856   17859   17868      18   17862   17856  -17859   17871      18
   17862   17856  -17865   17877      19   17862   17865  -17877   17889      20
   17862   17865   17877   17892      20   17862   17871  -17859   17868       4
   17862   17871   17886   17895       4   17862   17874  -17889   17877      21
   17862   17874   17889   17904      21   17859   17856  -17862   17865      16
   17859   17856  -17862   17871      16   17859   17856   17862   17874      16
   17859   17856  -17865   17862      19   17859   17856   17865   17877      19
   17859   17868   17880   17895       4   17859   17868   17880   17898       4
   17859   17871  -17862   17865      17   17859   17871  -17862   17874      10
   17859   17871  -17886   17895       4   17856   17859   17868   17880       4
   17856   17859  -17871   17862       4   17856   17859   17871   17886       4
   17856   17862  -17865   17877       9   17856   17862  -17871   17859      10
   17856   17862  -17871   17886      10   17856   17862   17874   17889      12
   17856   17865  -17862   17871       9   17856   17865  -17862   17874       9
   17856   17865  -17877   17889      22   17856   17865   17877   17892      22
   18192   18210   18213   18225       3   18174   18192   18210   18213       3
   18153   18174   18192   18210       3   18150   18135   18147   18162       4
   18150   18168  -18183   18162       4   18147   18135   18150   18168       4
   18147   18162  -18183   18168       4   18138   18153   18174   18192       3
   18135   18147   18162   18183       4   18135   18150  -18168   18183       4
   18126   18138   18153   18174       3   18117   18135   18147   18162       4
   18117   18135   18150   18168       4   18108   18126   18138   18153       3
   18099   18117   18135   18147       5   18099   18117   18135   18150       5
   18096   18117   18135   18147       5   18096   18117   18135   18150       5
   18090   18108   18126   18138       3   18087   18072   18090   18108       6
   18084   18069   18081   18096       4   18084   18099  -18117   18096       4
   18084   18099   18117   18135       4   18081   18069   18084   18099       4
   18081   18096  -18117   18099       4   18081   18096   18117   18135       4
   18078   18087   18072   18090       4   18072   18090   18108   18126       8
   18069   18081   18096   18117       4   18069   18084  -18099   18117       4
   18066   18054  -18057   18069       9   18066   18054   18063   18078      10
   18066   18081   18069   18084       4   18066   18081   18096   18117       4
   18063   18051   18060   18072       4   18063   18054   18057   18069      11
   18063   18054   18066   18081      12   18063   18078  -18087   18072       4
   18060   18051   18063   18078       4   18060   18072  -18087   18078       4
   18060   18072   18090   18108       6   18057   18048   18051   18060      13
   18057   18048  -18051   18060      14   18057   18048  -18051   18060      15
   18057   18048  -18051   18063      13   18057   18048  -18051   18063      14
   18057   18048  -18051   18063      15   18057   18048  -18054   18063      16
   18057   18048  -18054   18066      16   18057   18054   18063   18078      17
   18057   18054  -18066   18081      12   18057   18069  -18081   18066       4
   18057   18069   18081   18096       4   18057   18069   18084   18099       4
   18054   18048   18051   18060      18   18054   18048  -18051   18063      18
   18054   18048  -18057   18069      19   18054   18057  -18069   18081      20
   18054   18057   18069   18084      20   18054   18063  -18051   18060       4
   18054   18063   18078   18087       4   18054   18066  -18081   18069      21
   18054   18066   18081   18096      21   18051   18048  -18054   18057      16
   18051   18048  -18054   18063      16   18051   18048   18054   18066      16
   18051   18048  -18057   18054      19   18051   18048   18057   18069      19
   18051   18060   18072   18087       4   18051   18060   18072   18090       4
   18051   18063  -18054   18057      17   18051   18063  -18054   18066      10
   18051   18063  -18078   18087       4   18048   18051   18060   18072       4
   18048   18051  -18063   18054       4   18048   18051   18063   18078       4
   18048   18054  -18057   18069       9   18048   18054  -18063   18051      10
   18048   18054  -18063   18078      10   18048   18054   18066   18081      12
   18048   18057  -18054   18063       9   18048   18057  -18054   18066       9
   18048   18057  -18069   18081      22   18048   18057   18069   18084      22
   18384   18402   18405   18417       3   18366   18384   18402   18405       3
   18345   18366   18384   18402       3   18342   18327   18339   18354       4
   18342   18360  -18375   18354       4   18339   18327   18342   18360       4
   18339   18354  -18375   18360       4   18330   18345   18366   18384       3
   18327   18339   18354   18375       4   18327   18342  -18360   18375       4
   18318   18330   18345   18366       3   18309   18327   18339   18354       4
   18309   18327   18342   18360       4   18300   18318   18330   18345       3
   18291   18309   18327   18339       5   18291   18309   18327   18342       5
   18288   18309   18327   18339       5   18288   18309   18327   18342       5
   18282   18300   18318   18330       3   18279   18264   18282   18300       6
   18276   18261   18273   18288       4   18276   18291  -18309   18288       4
   18276   18291   18309   18327       4   18273   18261   18276   18291       4
   18273   18288  -18309   18291       4   18273   18288   18309   18327       4
   18270   18279   18264   18282       4   18264   18282   18300   18318       8
   18261   18273   18288   18309       4   18261   18276  -18291   18309       4
   18258   18246  -18249   18261       9   18258   18246   18255   18270      10
   18258   18273   18261   18276       4   18258   18273   18288   18309       4
   18255   18243   18252   18264       4   18255   18246   18249   18261      11
   18255   18246   18258   18273      12   18255   18270  -18279   18264       4
   18252   18243   18255   18270       4   18252   18264  -18279   18270       4
   18252   18264   18282   18300       6   18249   18240   18243   18252      13
   18249   18240  -18243   18252      14   18249   18240  -18243   18252      15
   18249   18240  -18243   18255      13   18249   18240  -18243   18255      14
   18249   18240  -18243   18255      15   18249   18240  -18246   18255      16
   18249   18240  -18246   18258      16   18249   18246   18255   18270      17
   18249   18246  -18258   18273      12   18249   18261  -18273   18258       4
   18249   18261   18273   18288       4   18249   18261   18276   18291       4
   18246   18240   18243   18252      18   18246   18240  -18243   18255      18
   18246   18240  -18249   18261      19   18246   18249  -18261   18273      20
   18246   18249   18261   18276      20   18246   18255  -18243   18252       4
   18246   18255   18270   18279       4   18246   18258  -18273   18261      21
   18246   18258   18273   18288      21   18243   18240  -18246   18249      16
   18243   18240  -18246   18255      16   18243   18240   18246   18258      16
   18243   18240  -18249   18246      19   18243   18240   18249   18261      19
   18243   18252   18264   18279       4   18243   18252   18264   18282       4
   18243   18255  -18246   18249      17   18243   18255  -18246   18258      10
   18243   18255  -18270   18279       4   18240   18243   18252   18264       4
   18240   18243  -18255   18246       4   18240   18243   18255   18270       4
   18240   18246  -18249   18261       9   18240   18246  -18255   18243      10
   18240   18246  -18255   18270      10   18240   18246   18258   18273      12
   18240   18249  -18246   18255       9   18240   18249  -18246   18258       9
   18240   18249  -18261   18273      22   18240   18249   18261   18276      22
   18576   18594   18597   18609       3   18558   18576   18594   18597       3
   18537   18558   18576   18594       3   18534   18519   18531   18546       4
   18534   18552  -18567   18546       4   18531   18519   18534   18552       4
   18531   18546  -18567   18552       4   18522   18537   18558   18576       3
   18519   18531   18546   18567       4   18519   18534  -18552   18567       4
   18510   18522   18537   18558       3   18501   18519   18531   18546       4
   18501   18519   18534   18552       4   18492   18510   18522   18537       3
   18483   18501   18519   18531       5   18483   18501   18519   18534       5
   18480   18501   18519   18531       5   18480   18501   18519   18534       5
   18474   18492   18510   18522       3   18471   18456   18474   18492       6
   18468   18453   18465   18480       4   18468   18483  -18501   18480       4
   18468   18483   18501   18519       4   18465   18453   18468   18483       4
   18465   18480  -18501   18483       4   18465   18480   18501   18519       4
   18462   18471   18456   18474       4   18456   18474   18492   18510       8
   18453   18465   18480   18501       4   18453   18468  -18483   18501       4
   18450   18438  -18441   18453       9   18450   18438   18447   18462      10
   18450   18465   18453   18468       4   18450   18465   18480   18501       4
   18447   18435   18444   18456       4   18447   18438   18441   18453      11
   18447   18438   18450   18465      12   18447   18462  -18471   18456       4
   18444   18435   18447   18462       4   18444   18456  -18471   18462       4
   18444   18456   18474   18492       6   18441   18432   18435   18444      13
   18441   18432  -18435   18444      14   18441   18432  -18435   18444      15
   18441   18432  -18435   18447      13   18441   18432  -18435   18447      14
   18441   18432  -18435   18447      15   18441   18432  -18438   18447      16
   18441   18432  -18438   18450      16   18441   18438   18447   18462      17
   18441   18438  -18450   18465      12   18441   18453  -18465   18450       4
   18441   18453   18465   18480       4   18441   18453   18468   18483       4
   18438   18432   18435   18444      18   18438   18432  -18435   18447      18
   18438   18432  -18441   18453      19   18438   18441  -18453   18465      20
   18438   18441   18453   18468      20   18438   18447  -18435   18444       4
   18438   18447   18462   18471       4   18438   18450  -18465   18453      21
   18438   18450   18465   18480      21   18435   18432  -18438   18441      16
   18435   18432  -18438   18447      16   18435   18432   18438   18450      16
   18435   18432  -18441   18438      19   18435   18432   18441   18453      19
   18435   18444   18456   18471       4   18435   18444   18456   18474       4
   18435   18447  -18438   18441      17   18435   18447  -18438   18450      10
   18435   18447  -18462   18471       4   18432   18435   18444   18456       4
   18432   18435  -18447   18438       4   18432   18435   18447   18462       4
   18432   18438  -18441   18453       9   18432   18438  -18447   18435      10
   18432   18438  -18447   18462      10   18432   18438   18450   18465      12
   18432   18441  -18438   18447       9   18432   18441  -18438   18450       9
   18432   18441  -18453   18465      22   18432   18441   18453   18468      22
   18768   18786   18789   18801       3   18750   18768   18786   18789       3
   18729   18750   18768   18786       3   18726   18711   18723   18738       4
   18726   18744  -18759   18738       4   18723   18711   18726   18744       4
   18723   18738  -18759   18744       4   18714   18729   18750   18768       3
   18711   18723   18738   18759       4   18711   18726  -18744   18759       4
   18702   18714   18729   18750       3   18693   18711   18723   18738       4
   18693   18711   18726   18744       4   18684   18702   18714   18729       3
   18675   18693   18711   18723       5   18675   18693   18711   18726       5
   18672   18693   18711   18723       5   18672   18693   18711   18726       5
   18666   18684   18702   18714       3   18663   18648   18666   18684       6
   18660   18645   18657   18672       4   18660   18675  -18693   18672       4
   18660   18675   18693   18711       4   18657   18645   18660   18675       4
   18657   18672  -18693   18675       4   18657   18672   18693   18711       4
   18654   18663   18648   18666       4   18648   18666   18684   18702       8
   18645   18657   18672   18693       4   18645   18660  -18675   18693       4
   18642   18630  -18633   18645       9   18642   18630   18639   18654      10
   18642   18657   18645   18660       4   18642   18657   18672   18693       4
   18639   18627   18636   18648       4   18639   18630   18633   18645      11
   18639   18630   18642   18657      12   18639   18654  -18663   18648       4
   18636   18627   18639   18654       4   18636   18648  -18663   18654       4
   18636   18648   18666   18684       6   18633   18624   18627   18636      13
   18633   18624  -18627   18636      14   18633   18624  -18627   18636      15
   18633   18624  -18627   18639      13   18633   18624  -18627   18639      14
   18633   18624  -18627   18639      15   18633   18624  -18630   18639      16
   18633   18624  -18630   18642      16   18633   18630   18639   18654      17
   18633   18630  -18642   18657      12   18633   18645  -18657   18642       4
   18633   18645   18657   18672       4   18633   18645   18660   18675       4
   18630   18624   18627   18636      18   18630   18624  -18627   18639      18
   18630   18624  -18633   18645      19   18630   18633  -18645   18657      20
   18630   18633   18645   18660      20   18630   18639  -18627   18636       4
   18630   18639   18654   18663       4   18630   18642  -18657   18645      21
   18630   18642   18657   18672      21   18627   18624  -18630   18633      16
   18627   18624  -18630   18639      16   18627   18624   18630   18642      16
   18627   18624  -18633   18630      19   18627   18624   18633   18645      19
   18627   18636   18648   18663       4   18627   18636   18648   18666       4
   18627   18639  -18630   18633      17   18627   18639  -18630   18642      10
   18627   18639  -18654   18663       4   18624   18627   18636   18648       4
   18624   18627  -18639   18630       4   18624   18627   18639   18654       4
   18624   18630  -18633   18645       9   18624   18630  -18639   18627      10
   18624   18630  -18639   18654      10   18624   18630   18642   18657      12
   18624   18633  -18630   18639       9   18624   18633  -18630   18642       9
   18624   18633  -18645   18657      22   18624   18633   18645   18660      22
   18960   18978   18981   18993       3   18942   18960   18978   18981       3
   18921   18942   18960   18978       3   18918   18903   18915   18930       4
   18918   18936  -18951   18930       4   18915   18903   18918   18936       4
   18915   18930  -18951   18936       4   18906   18921   18942   18960       3
   18903   18915   18930   18951       4   18903   18918  -18936   18951       4
   18894   18906   18921   18942       3   18885   18903   18915   18930       4
   18885   18903   18918   18936       4   18876   18894   18906   18921       3
   18867   18885   18903   18915       5   18867   18885   18903   18918       5
   18864   18885   18903   18915       5   18864   18885   18903   18918       5
   18858   18876   18894   18906       3   18855   18840   18858   18876       6
   18852   18837   18849   18864       4   18852   18867  -18885   18864       4
   18852   18867   18885   18903       4   18849   18837   18852   18867       4
   18849   18864  -18885   18867       4   18849   18864   18885   18903       4
   18846   18855   18840   18858       4   18840   18858   18876   18894       8
   18837   18849   18864   18885       4   18837   18852  -18867   18885       4
   18834   18822  -18825   18837       9   18834   18822   18831   18846      10
   18834   18849   18837   18852       4   18834   18849   18864   18885       4
   18831   18819   18828   18840       4   18831   18822   18825   18837      11
   18831   18822   18834   18849      12   18831   18846  -18855   18840       4
   18828   18819   18831   18846       4   18828   18840  -18855   18846       4
   18828   18840   18858   18876       6   18825   18816   18819   18828      13
   18825   18816  -18819   18828      14   18825   18816  -18819   18828      15
   18825   18816  -18819   18831      13   18825   18816  -18819   18831      14
   18825   18816  -18819   18831      15   18825   18816  -18822   18831      16
   18825   18816  -18822   18834      16   18825   18822   18831   18846      17
   18825   18822  -18834   18849      12   18825   18837  -18849   18834       4
   18825   18837   18849   18864       4   18825   18837   18852   18867       4
   18822   18816   18819   18828      18   18822   18816  -18819   18831      18
   18822   18816  -18825   18837      19   18822   18825  -18837   18849      20
   18822   18825   18837   18852      20   18822   18831  -18819   18828       4
   18822   18831   18846   18855       4   18822   18834  -18849   18837      21
   18822   18834   18849   18864      21   18819   18816  -18822   18825      16
   18819   18816  -18822   18831      16   18819   18816   18822   18834      16
   18819   18816  -18825   18822      19   18819   18816   18825   18837      19
   18819   18828   18840   18855       4   18819   18828   18840   18858       4
   18819   18831  -18822   18825      17   18819   18831  -18822   18834      10
   18819   18831  -18846   18855       4   18816   18819   18828   18840       4
   18816   18819  -18831   18822       4   18816   18819   18831   18846       4
   18816   18822  -18825   18837       9   18816   18822  -18831   18819      10
   18816   18822  -18831   18846      10   18816   18822   18834   18849      12
   18816   18825  -18822   18831       9   18816   18825  -18822   18834       9
   18816   18825  -18837   18849      22   18816   18825   18837   18852      22
   19152   19170   19173   19185       3   19134   19152   19170   19173       3
   19113   19134   19152   19170       3   19110   19095   19107   19122       4
   19110   19128  -19143   19122       4   19107   19095   19110   19128       4
   19107   19122  -19143   19128       4   19098   19113   19134   19152       3
   19095   19107   19122   19143       4   19095   19110  -19128   19143       4
   19086   19098   19113   19134       3   19077   19095   19107   19122       4
   19077   19095   19110   19128       4   19068   19086   19098   19113       3
   19059   19077   19095   19107       5   19059   19077   19095   19110       5
   19056   19077   19095   19107       5   19056   19077   19095   19110       5
   19050   19068   19086   19098       3   19047   19032   19050   19068       6
   19044   19029   19041   19056       4   19044   19059  -19077   19056       4
   19044   19059   19077   19095       4   19041   19029   19044   19059       4
   19041   19056  -19077   19059       4   19041   19056   19077   19095       4
   19038   19047   19032   19050       4   19032   19050   19068   19086       8
   19029   19041   19056   19077       4   19029   19044  -19059   19077       4
   19026   19014  -19017   19029       9   19026   19014   19023   19038      10
   19026   19041   19029   19044       4   19026   19041   19056   19077       4
   19023   19011   19020   19032       4   19023   19014   19017   19029      11
   19023   19014   19026   19041      12   19023   19038  -19047   19032       4
   19020   19011   19023   19038       4   19020   19032  -19047   19038       4
   19020   19032   19050   19068       6   19017   19008   19011   19020      13
   19017   19008  -19011   19020      14   19017   19008  -19011   19020      15
   19017   19008  -19011   19023      13   19017   19008  -19011   19023      14
   19017   19008  -19011   19023      15   19017   19008  -19014   19023      16
   19017   19008  -19014   19026      16   19017   19014   19023   19038      17
   19017   19014  -19026   19041      12   19017   19029  -19041   19026       4
   19017   19029   19041   19056       4   19017   19029   19044   19059       4
   19014   19008   19011   19020      18   19014   19008  -19011   19023      18
   19014   19008  -19017   19029      19   19014   19017  -19029   19041      20
   19014   19017   19029   19044      20   19014   19023  -19011   19020       4
   19014   19023   19038   19047       4   19014   19026  -19041   19029      21
   19014   19026   19041   19056      21   19011   19008  -19014   19017      16
   19011   19008  -19014   19023      16   19011   19008   19014   19026      16
   19011   19008  -19017   19014      19   19011   19008   19017   19029      19
   19011   19020   19032   19047       4   19011   19020   19032   19050       4
   19011   19023  -19014   19017      17   19011   19023  -19014   19026      10
   19011   19023  -19038   19047       4   19008   19011   19020   19032       4
   19008   19011  -19023   19014       4   19008   19011   19023   19038       4
   19008   19014  -19017   19029       9   19008   19014  -19023   19011      10
   19008   19014  -19023   19038      10   19008   19014   19026   19041      12
   19008   19017  -19014   19023       9   19008   19017  -19014   19026       9
   19008   19017  -19029   19041      22   19008   19017   19029   19044      22
   19344   19362   19365   19377       3   19326   19344   19362   19365       3
   19305   19326   19344   19362       3   19302   19287   19299   19314       4
   19302   19320  -19335   19314       4   19299   19287   19302   19320       4
   19299   19314  -19335   19320       4   19290   19305   19326   19344       3
   19287   19299   19314   19335       4   19287   19302  -19320   19335       4
   19278   19290   19305   19326       3   19269   19287   19299   19314       4
   19269   19287   19302   19320       4   19260   19278   19290   19305       3
   19251   19269   19287   19299       5   19251   19269   19287   19302       5
   19248   19269   19287   19299       5   19248   19269   19287   19302       5
   19242   19260   19278   19290       3   19239   19224   19242   19260       6
   19236   19221   19233   19248       4   19236   19251  -19269   19248       4
   19236   19251   19269   19287       4   19233   19221   19236   19251       4
   19233   19248  -19269   19251       4   19233   19248   19269   19287       4
   19230   19239   19224   19242       4   19224   19242   19260   19278       8
   19221   19233   19248   19269       4   19221   19236  -19251   19269       4
   19218   19206  -19209   19221       9   19218   19206   19215   19230      10
   19218   19233   19221   19236       4   19218   19233   19248   19269       4
   19215   19203   19212   19224       4   19215   19206   19209   19221      11
   19215   19206   19218   19233      12   19215   19230  -19239   19224       4
   19212   19203   19215   19230       4   19212   19224  -19239   19230       4
   19212   19224   19242   19260       6   19209   19200   19203   19212      13
   19209   19200  -19203   19212      14   19209   19200  -19203   19212      15
   19209   19200  -19203   19215      13   19209   19200  -19203   19215      14
   19209   19200  -19203   19215      15   19209   19200  -19206   19215      16
   19209   19200  -19206   19218      16   19209   19206   19215   19230      17
   19209   19206  -19218   19233      12   19209   19221  -19233   19218       4
   19209   19221   19233   19248       4   19209   19221   19236   19251       4
   19206   19200   19203   19212      18   19206   19200  -19203   19215      18
   19206   19200  -19209   19221      19   19206   19209  -19221   19233      20
   19206   19209   19221   19236      20   19206   19215  -19203   19212       4
   19206   19215   19230   19239       4   19206   19218  -19233   19221      21
   19206   19218   19233   19248      21   19203   19200  -19206   19209      16
   19203   19200  -19206   19215      16   19203   19200   19206   19218      16
   19203   19200  -19209   19206      19   19203   19200   19209   19221      19
   19203   19212   19224   19239       4   19203   19212   19224   19242       4
   19203   19215  -19206   19209      17   19203   19215  -19206   19218      10
   19203   19215  -19230   19239       4   19200   19203   19212   19224       4
   19200   19203  -19215   19206       4   19200   19203   19215   19230       4
   19200   19206  -19209   19221       9   19200   19206  -19215   19203      10
   19200   19206  -19215   19230      10   19200   19206   19218   19233      12
   19200   19209  -19206   19215       9   19200   19209  -19206   19218       9
   19200   19209  -19221   19233      22   19200   19209   19221   19236      22
   19536   19554   19557   19569       3   19518   19536   19554   19557       3
   19497   19518   19536   19554       3   19494   19479   19491   19506       4
   19494   19512  -19527   19506       4   19491   19479   19494   19512       4
   19491   19506  -19527   19512       4   19482   19497   19518   19536       3
   19479   19491   19506   19527       4   19479   19494  -19512   19527       4
   19470   19482   19497   19518       3   19461   19479   19491   19506       4
   19461   19479   19494   19512       4   19452   19470   19482   19497       3
   19443   19461   19479   19491       5   19443   19461   19479   19494       5
   19440   19461   19479   19491       5   19440   19461   19479   19494       5
   19434   19452   19470   19482       3   19431   19416   19434   19452       6
   19428   19413   19425   19440       4   19428   19443  -19461   19440       4
   19428   19443   19461   19479       4   19425   19413   19428   19443       4
   19425   19440  -19461   19443       4   19425   19440   19461   19479       4
   19422   19431   19416   19434       4   19416   19434   19452   19470       8
   19413   19425   19440   19461       4   19413   19428  -19443   19461       4
   19410   19398  -19401   19413       9   19410   19398   19407   19422      10
   19410   19425   19413   19428       4   19410   19425   19440   19461       4
   19407   19395   19404   19416       4   19407   19398   19401   19413      11
   19407   19398   19410   19425      12   19407   19422  -19431   19416       4
   19404   19395   19407   19422       4   19404   19416  -19431   19422       4
   19404   19416   19434   19452       6   19401   19392   19395   19404      13
   19401   19392  -19395   19404      14   19401   19392  -19395   19404      15
   19401   19392  -19395   19407      13   19401   19392  -19395   19407      14
   19401   19392  -19395   19407      15   19401   19392  -19398   19407      16
   19401   19392  -19398   19410      16   19401   19398   19407   19422      17
   19401   19398  -19410   19425      12   19401   19413  -19425   19410       4
   19401   19413   19425   19440       4   19401   19413   19428   19443       4
   19398   19392   19395   19404      18   19398   19392  -19395   19407      18
   19398   19392  -19401   19413      19   19398   19401  -19413   19425      20
   19398   19401   19413   19428      20   19398   19407  -19395   19404       4
   19398   19407   19422   19431       4   19398   19410  -19425   19413      21
   19398   19410   19425   19440      21   19395   19392  -19398   19401      16
   19395   19392  -19398   19407      16   19395   19392   19398   19410      16
   19395   19392  -19401   19398      19   19395   19392   19401   19413      19
   19395   19404   19416   19431       4   19395   19404   19416   19434       4
   19395   19407  -19398   19401      17   19395   19407  -19398   19410      10
   19395   19407  -19422   19431       4   19392   19395   19404   19416       4
   19392   19395  -19407   19398       4   19392   19395   19407   19422       4
   19392   19398  -19401   19413       9   19392   19398  -19407   19395      10
   19392   19398  -19407   19422      10   19392   19398   19410   19425      12
   19392   19401  -19398   19407       9   19392   19401  -19398   19410       9
   19392   19401  -19413   19425      22   19392   19401   19413   19428      22
   19728   19746   19749   19761       3   19710   19728   19746   19749       3
   19689   19710   19728   19746       3   19686   19671   19683   19698       4
   19686   19704  -19719   19698       4   19683   19671   19686   19704       4
   19683   19698  -19719   19704       4   19674   19689   19710   19728       3
   19671   19683   19698   19719       4   19671   19686  -19704   19719       4
   19662   19674   19689   19710       3   19653   19671   19683   19698       4
   19653   19671   19686   19704       4   19644   19662   19674   19689       3
   19635   19653   19671   19683       5   19635   19653   19671   19686       5
   19632   19653   19671   19683       5   19632   19653   19671   19686       5
   19626   19644   19662   19674       3   19623   19608   19626   19644       6
   19620   19605   19617   19632       4   19620   19635  -19653   19632       4
   19620   19635   19653   19671       4   19617   19605   19620   19635       4
   19617   19632  -19653   19635       4   19617   19632   19653   19671       4
   19614   19623   19608   19626       4   19608   19626   19644   19662       8
   19605   19617   19632   19653       4   19605   19620  -19635   19653       4
   19602   19590  -19593   19605       9   19602   19590   19599   19614      10
   19602   19617   19605   19620       4   19602   19617   19632   19653       4
   19599   19587   19596   19608       4   19599   19590   19593   19605      11
   19599   19590   19602   19617      12   19599   19614  -19623   19608       4
   19596   19587   19599   19614       4   19596   19608  -19623   19614       4
   19596   19608   19626   19644       6   19593   19584   19587   19596      13
   19593   19584  -19587   19596      14   19593   19584  -19587   19596      15
   19593   19584  -19587   19599      13   19593   19584  -19587   19599      14
   19593   19584  -19587   19599      15   19593   19584  -19590   19599      16
   19593   19584  -19590   19602      16   19593   19590   19599   19614      17
   19593   19590  -19602   19617      12   19593   19605  -19617   19602       4
   19593   19605   19617   19632       4   19593   19605   19620   19635       4
   19590   19584   19587   19596      18   19590   19584  -19587   19599      18
   19590   19584  -19593   19605      19   19590   19593  -19605   19617      20
   19590   19593   19605   19620      20   19590   19599  -19587   19596       4
   19590   19599   19614   19623       4   19590   19602  -19617   19605      21
   19590   19602   19617   19632      21   19587   19584  -19590   19593      16
   19587   19584  -19590   19599      16   19587   19584   19590   19602      16
   19587   19584  -19593   19590      19   19587   19584   19593   19605      19
   19587   19596   19608   19623       4   19587   19596   19608   19626       4
   19587   19599  -19590   19593      17   19587   19599  -19590   19602      10
   19587   19599  -19614   19623       4   19584   19587   19596   19608       4
   19584   19587  -19599   19590       4   19584   19587   19599   19614       4
   19584   19590  -19593   19605       9   19584   19590  -19599   19587      10
   19584   19590  -19599   19614      10   19584   19590   19602   19617      12
   19584   19593  -19590   19599       9   19584   19593  -19590   19602       9
   19584   19593  -19605   19617      22   19584   19593   19605   19620      22
   19920   19938   19941   19953       3   19902   19920   19938   19941       3
   19881   19902   19920   19938       3   19878   19863   19875   19890       4
   19878   19896  -19911   19890       4   19875   19863   19878   19896       4
   19875   19890  -19911   19896       4   19866   19881   19902   19920       3
   19863   19875   19890   19911       4   19863   19878  -19896   19911       4
   19854   19866   19881   19902       3   19845   19863   19875   19890       4
   19845   19863   19878   19896       4   19836   19854   19866   19881       3
   19827   19845   19863   19875       5   19827   19845   19863   19878       5
   19824   19845   19863   19875       5   19824   19845   19863   19878       5
   19818   19836   19854   19866       3   19815   19800   19818   19836       6
   19812   19797   19809   19824       4   19812   19827  -19845   19824       4
   19812   19827   19845   19863       4   19809   19797   19812   19827       4
   19809   19824  -19845   19827       4   19809   19824   19845   19863       4
   19806   19815   19800   19818       4   19800   19818   19836   19854       8
   19797   19809   19824   19845       4   19797   19812  -19827   19845       4
   19794   19782  -19785   19797       9   19794   19782   19791   19806      10
   19794   19809   19797   19812       4   19794   19809   19824   19845       4
   19791   19779   19788   19800       4   19791   19782   19785   19797      11
   19791   19782   19794   19809      12   19791   19806  -19815   19800       4
   19788   19779   19791   19806       4   19788   19800  -19815   19806       4
   19788   19800   19818   19836       6   19785   19776   19779   19788      13
   19785   19776  -19779   19788      14   19785   19776  -19779   19788      15
   19785   19776  -19779   19791      13   19785   19776  -19779   19791      14
   19785   19776  -19779   19791      15   19785   19776  -19782   19791      16
   19785   19776  -19782   19794      16   19785   19782   19791   19806      17
   19785   19782  -19794   19809      12   19785   19797  -19809   19794       4
   19785   19797   19809   19824       4   19785   19797   19812   19827       4
   19782   19776   19779   19788      18   19782   19776  -19779   19791      18
   19782   19776  -19785   19797      19   19782   19785  -19797   19809      20
   19782   19785   19797   19812      20   19782   19791  -19779   19788       4
   19782   19791   19806   19815       4   19782   19794  -19809   19797      21
   19782   19794   19809   19824      21   19779   19776  -19782   19785      16
   19779   19776  -19782   19791      16   19779   19776   19782   19794      16
   19779   19776  -19785   19782      19   19779   19776   19785   19797      19
   19779   19788   19800   19815       4   19779   19788   19800   19818       4
   19779   19791  -19782   19785      17   19779   19791  -19782   19794      10
   19779   19791  -19806   19815       4   19776   19779   19788   19800       4
   19776   19779  -19791   19782       4   19776   19779   19791   19806       4
   19776   19782  -19785   19797       9   19776   19782  -19791   19779      10
   19776   19782  -19791   19806      10   19776   19782   19794   19809      12
   19776   19785  -19782   19791       9   19776   19785  -19782   19794       9
   19776   19785  -19797   19809      22   19776   19785   19797   19812      22
   20112   20130   20133   20145       3   20094   20112   20130   20133       3
   20073   20094   20112   20130       3   20070   20055   20067   20082       4
   20070   20088  -20103   20082       4   20067   20055   20070   20088       4
   20067   20082  -20103   20088       4   20058   20073   20094   20112       3
   20055   20067   20082   20103       4   20055   20070  -20088   20103       4
   20046   20058   20073   20094       3   20037   20055   20067   20082       4
   20037   20055   20070   20088       4   20028   20046   20058   20073       3
   20019   20037   20055   20067       5   20019   20037   20055   20070       5
   20016   20037   20055   20067       5   20016   20037   20055   20070       5
   20010   20028   20046   20058       3   20007   19992   20010   20028       6
   20004   19989   20001   20016       4   20004   20019  -20037   20016       4
   20004   20019   20037   20055       4   20001   19989   20004   20019       4
   20001   20016  -20037   20019       4   20001   20016   20037   20055       4
   19998   20007   19992   20010       4   19992   20010   20028   20046       8
   19989   20001   20016   20037       4   19989   20004  -20019   20037       4
   19986   19974  -19977   19989       9   19986   19974   19983   19998      10
   19986   20001   19989   20004       4   19986   20001   20016   20037       4
   19983   19971   19980   19992       4   19983   19974   19977   19989      11
   19983   19974   19986   20001      12   19983   19998  -20007   19992       4
   19980   19971   19983   19998       4   19980   19992  -20007   19998       4
   19980   19992   20010   20028       6   19977   19968   19971   19980      13
   19977   19968  -19971   19980      14   19977   19968  -19971   19980      15
   19977   19968  -19971   19983      13   19977   19968  -19971   19983      14
   19977   19968  -19971   19983      15   19977   19968  -19974   19983      16
   19977   19968  -19974   19986      16   19977   19974   19983   19998      17
   19977   19974  -19986   20001      12   19977   19989  -20001   19986       4
   19977   19989   20001   20016       4   19977   19989   20004   20019       4
   19974   19968   19971   19980      18   19974   19968  -19971   19983      18
   19974   19968  -19977   19989      19   19974   19977  -19989   20001      20
   19974   19977   19989   20004      20   19974   19983  -19971   19980       4
   19974   19983   19998   20007       4   19974   19986  -20001   19989      21
   19974   19986   20001   20016      21   19971   19968  -19974   19977      16
   19971   19968  -19974   19983      16   19971   19968   19974   19986      16
   19971   19968  -19977   19974      19   19971   19968   19977   19989      19
   19971   19980   19992   20007       4   19971   19980   19992   20010       4
   19971   19983  -19974   19977      17   19971   19983  -19974   19986      10
   19971   19983  -19998   20007       4   19968   19971   19980   19992       4
   19968   19971  -19983   19974       4   19968   19971   19983   19998       4
   19968   19974  -19977   19989       9   19968   19974  -19983   19971      10
   19968   19974  -19983   19998      10   19968   19974   19986   20001      12
   19968   19977  -19974   19983       9   19968   19977  -19974   19986       9
   19968   19977  -19989   20001      22   19968   19977   19989   20004      22
   20304   20322   20325   20337       3   20286   20304   20322   20325       3
   20265   20286   20304   20322       3   20262   20247   20259   20274       4
   20262   20280  -20295   20274       4   20259   20247   20262   20280       4
   20259   20274  -20295   20280       4   20250   20265   20286   20304       3
   20247   20259   20274   20295       4   20247   20262  -20280   20295       4
   20238   20250   20265   20286       3   20229   20247   20259   20274       4
   20229   20247   20262   20280       4   20220   20238   20250   20265       3
   20211   20229   20247   20259       5   20211   20229   20247   20262       5
   20208   20229   20247   20259       5   20208   20229   20247   20262       5
   20202   20220   20238   20250       3   20199   20184   20202   20220       6
   20196   20181   20193   20208       4   20196   20211  -20229   20208       4
   20196   20211   20229   20247       4   20193   20181   20196   20211       4
   20193   20208  -20229   20211       4   20193   20208   20229   20247       4
   20190   20199   20184   20202       4   20184   20202   20220   20238       8
   20181   20193   20208   20229       4   20181   20196  -20211   20229       4
   20178   20166  -20169   20181       9   20178   20166   20175   20190      10
   20178   20193   20181   20196       4   20178   20193   20208   20229       4
   20175   20163   20172   20184       4   20175   20166   20169   20181      11
   20175   20166   20178   20193      12   20175   20190  -20199   20184       4
   20172   20163   20175   20190       4   20172   20184  -20199   20190       4
   20172   20184   20202   20220       6   20169   20160   20163   20172      13
   20169   20160  -20163   20172      14   20169   20160  -20163   20172      15
   20169   20160  -20163   20175      13   20169   20160  -20163   20175      14
   20169   20160  -20163   20175      15   20169   20160  -20166   20175      16
   20169   20160  -20166   20178      16   20169   20166   20175   20190      17
   20169   20166  -20178   20193      12   20169   20181  -20193   20178       4
   20169   20181   20193   20208       4   20169   20181   20196   20211       4
   20166   20160   20163   20172      18   20166   20160  -20163   20175      18
   20166   20160  -20169   20181      19   20166   20169  -20181   20193      20
   20166   20169   20181   20196      20   20166   20175  -20163   20172       4
   20166   20175   20190   20199       4   20166   20178  -20193   20181      21
   20166   20178   20193   20208      21   20163   20160  -20166   20169      16
   20163   20160  -20166   20175      16   20163   20160   20166   20178      16
   20163   20160  -20169   20166      19   20163   20160   20169   20181      19
   20163   20172   20184   20199       4   20163   20172   20184   20202       4
   20163   20175  -20166   20169      17   20163   20175  -20166   20178      10
   20163   20175  -20190   20199       4   20160   20163   20172   20184       4
   20160   20163  -20175   20166       4   20160   20163   20175   20190       4
   20160   20166  -20169   20181       9   20160   20166  -20175   20163      10
   20160   20166  -20175   20190      10   20160   20166   20178   20193      12
   20160   20169  -20166   20175       9   20160   20169  -20166   20178       9
   20160   20169  -20181   20193      22   20160   20169   20181   20196      22
   20496   20514   20517   20529       3   20478   20496   20514   20517       3
   20457   20478   20496   20514       3   20454   20439   20451   20466       4
   20454   20472  -20487   20466       4   20451   20439   20454   20472       4
   20451   20466  -20487   20472       4   20442   20457   20478   20496       3
   20439   20451   20466   20487       4   20439   20454  -20472   20487       4
   20430   20442   20457   20478       3   20421   20439   20451   20466       4
   20421   20439   20454   20472       4   20412   20430   20442   20457       3
   20403   20421   20439   20451       5   20403   20421   20439   20454       5
   20400   20421   20439   20451       5   20400   20421   20439   20454       5
   20394   20412   20430   20442       3   20391   20376   20394   20412       6
   20388   20373   20385   20400       4   20388   20403  -20421   20400       4
   20388   20403   20421   20439       4   20385   20373   20388   20403       4
   20385   20400  -20421   20403       4   20385   20400   20421   20439       4
   20382   20391   20376   20394       4   20376   20394   20412   20430       8
   20373   20385   20400   20421       4   20373   20388  -20403   20421       4
   20370   20358  -20361   20373       9   20370   20358   20367   20382      10
   20370   20385   20373   20388       4   20370   20385   20400   20421       4
   20367   20355   20364   20376       4   20367   20358   20361   20373      11
   20367   20358   20370   20385      12   20367   20382  -20391   20376       4
   20364   20355   20367   20382       4   20364   20376  -20391   20382       4
   20364   20376   20394   20412       6   20361   20352   20355   20364      13
   20361   20352  -20355   20364      14   20361   20352  -20355   20364      15
   20361   20352  -20355   20367      13   20361   20352  -20355   20367      14
   20361   20352  -20355   20367      15   20361   20352  -20358   20367      16
   20361   20352  -20358   20370      16   20361   20358   20367   20382      17
   20361   20358  -20370   20385      12   20361   20373  -20385   20370       4
   20361   20373   20385   20400       4   20361   20373   20388   20403       4
   20358   20352   20355   20364      18   20358   20352  -20355   20367      18
   20358   20352  -20361   20373      19   20358   20361  -20373   20385      20
   20358   20361   20373   20388      20   20358   20367  -20355   20364       4
   20358   20367   20382   20391       4   20358   20370  -20385   20373      21
   20358   20370   20385   20400      21   20355   20352  -20358   20361      16
   20355   20352  -20358   20367      16   20355   20352   20358   20370      16
   20355   20352  -20361   20358      19   20355   20352   20361   20373      19
   20355   20364   20376   20391       4   20355   20364   20376   20394       4
   20355   20367  -20358   20361      17   20355   20367  -20358   20370      10
   20355   20367  -20382   20391       4   20352   20355   20364   20376       4
   20352   20355  -20367   20358       4   20352   20355   20367   20382       4
   20352   20358  -20361   20373       9   20352   20358  -20367   20355      10
   20352   20358  -20367   20382      10   20352   20358   20370   20385      12
   20352   20361  -20358   20367       9   20352   20361  -20358   20370       9
   20352   20361  -20373   20385      22   20352   20361   20373   20388      22
   20688   20706   20709   20721       3   20670   20688   20706   20709       3
   20649   20670   20688   20706       3   20646   20631   20643   20658       4
   20646   20664  -20679   20658       4   20643   20631   20646   20664       4
   20643   20658  -20679   20664       4   20634   20649   20670   20688       3
   20631   20643   20658   20679       4   20631   20646  -20664   20679       4
   20622   20634   20649   20670       3   20613   20631   20643   20658       4
   20613   20631   20646   20664       4   20604   20622   20634   20649       3
   20595   20613   20631   20643       5   20595   20613   20631   20646       5
   20592   20613   20631   20643       5   20592   20613   20631   20646       5
   20586   20604   20622   20634       3   20583   20568   20586   20604       6
   20580   20565   20577   20592       4   20580   20595  -20613   20592       4
   20580   20595   20613   20631       4   20577   20565   20580   20595       4
   20577   20592  -20613   20595       4   20577   20592   20613   20631       4
   20574   20583   20568   20586       4   20568   20586   20604   20622       8
   20565   20577   20592   20613       4   20565   20580  -20595   20613       4
   20562   20550  -20553   20565       9   20562   20550   20559   20574      10
   20562   20577   20565   20580       4   20562   20577   20592   20613       4
   20559   20547   20556   20568       4   20559   20550   20553   20565      11
   20559   20550   20562   20577      12   20559   20574  -20583   20568       4
   20556   20547   20559   20574       4   20556   20568  -20583   20574       4
   20556   20568   20586   20604       6   20553   20544   20547   20556      13
   20553   20544  -20547   20556      14   20553   20544  -20547   20556      15
   20553   20544  -20547   20559      13   20553   20544  -20547   20559      14
   20553   20544  -20547   20559      15   20553   20544  -20550   20559      16
   20553   20544  -20550   20562      16   20553   20550   20559   20574      17
   20553   20550  -20562   20577      12   20553   20565  -20577   20562       4
   20553   20565   20577   20592       4   20553   20565   20580   20595       4
   20550   20544   20547   20556      18   20550   20544  -20547   20559      18
   20550   20544  -20553   20565      19   20550   20553  -20565   20577      20
   20550   20553   20565   20580      20   20550   20559  -20547   20556       4
   20550   20559   20574   20583       4   20550   20562  -20577   20565      21
   20550   20562   20577   20592      21   20547   20544  -20550   20553      16
   20547   20544  -20550   20559      16   20547   20544   20550   20562      16
   20547   20544  -20553   20550      19   20547   20544   20553   20565      19
   20547   20556   20568   20583       4   20547   20556   20568   20586       4
   20547   20559  -20550   20553      17   20547   20559  -20550   20562      10
   20547   20559  -20574   20583       4   20544   20547   20556   20568       4
   20544   20547  -20559   20550       4   20544   20547   20559   20574       4
   20544   20550  -20553   20565       9   20544   20550  -20559   20547      10
   20544   20550  -20559   20574      10   20544   20550   20562   20577      12
   20544   20553  -20550   20559       9   20544   20553  -20550   20562       9
   20544   20553  -20565   20577      22   20544   20553   20565   20580      22
   20880   20898   20901   20913       3   20862   20880   20898   20901       3
   20841   20862   20880   20898       3   20838   20823   20835   20850       4
   20838   20856  -20871   20850       4   20835   20823   20838   20856       4
   20835   20850  -20871   20856       4   20826   20841   20862   20880       3
   20823   20835   20850   20871       4   20823   20838  -20856   20871       4
   20814   20826   20841   20862       3   20805   20823   20835   20850       4
   20805   20823   20838   20856       4   20796   20814   20826   20841       3
   20787   20805   20823   20835       5   20787   20805   20823   20838       5
   20784   20805   20823   20835       5   20784   20805   20823   20838       5
   20778   20796   20814   20826       3   20775   20760   20778   20796       6
   20772   20757   20769   20784       4   20772   20787  -20805   20784       4
   20772   20787   20805   20823       4   20769   20757   20772   20787       4
   20769   20784  -20805   20787       4   20769   20784   20805   20823       4
   20766   20775   20760   20778       4   20760   20778   20796   20814       8
   20757   20769   20784   20805       4   20757   20772  -20787   20805       4
   20754   20742  -20745   20757       9   20754   20742   20751   20766      10
   20754   20769   20757   20772       4   20754   20769   20784   20805       4
   20751   20739   20748   20760       4   20751   20742   20745   20757      11
   20751   20742   20754   20769      12   20751   20766  -20775   20760       4
   20748   20739   20751   20766       4   20748   20760  -20775   20766       4
   20748   20760   20778   20796       6   20745   20736   20739   20748      13
   20745   20736  -20739   20748      14   20745   20736  -20739   20748      15
   20745   20736  -20739   20751      13   20745   20736  -20739   20751      14
   20745   20736  -20739   20751      15   20745   20736  -20742   20751      16
   20745   20736  -20742   20754      16   20745   20742   20751   20766      17
   20745   20742  -20754   20769      12   20745   20757  -20769   20754       4
   20745   20757   20769   20784       4   20745   20757   20772   20787       4
   20742   20736   20739   20748      18   20742   20736  -20739   20751      18
   20742   20736  -20745   20757      19   20742   20745  -20757   20769      20
   20742   20745   20757   20772      20   20742   20751  -20739   20748       4
   20742   20751   20766   20775       4   20742   20754  -20769   20757      21
   20742   20754   20769   20784      21   20739   20736  -20742   20745      16
   20739   20736  -20742   20751      16   20739   20736   20742   20754      16
   20739   20736  -20745   20742      19   20739   20736   20745   20757      19
   20739   20748   20760   20775       4   20739   20748   20760   20778       4
   20739   20751  -20742   20745      17   20739   20751  -20742   20754      10
   20739   20751  -20766   20775       4   20736   20739   20748   20760       4
   20736   20739  -20751   20742       4   20736   20739   20751   20766       4
   20736   20742  -20745   20757       9   20736   20742  -20751   20739      10
   20736   20742  -20751   20766      10   20736   20742   20754   20769      12
   20736   20745  -20742   20751       9   20736   20745  -20742   20754       9
   20736   20745  -20757   20769      22   20736   20745   20757   20772      22
   21072   21090   21093   21105       3   21054   21072   21090   21093       3
   21033   21054   21072   21090       3   21030   21015   21027   21042       4
   21030   21048  -21063   21042       4   21027   21015   21030   21048       4
   21027   21042  -21063   21048       4   21018   21033   21054   21072       3
   21015   21027   21042   21063       4   21015   21030  -21048   21063       4
   21006   21018   21033   21054       3   20997   21015   21027   21042       4
   20997   21015   21030   21048       4   20988   21006   21018   21033       3
   20979   20997   21015   21027       5   20979   20997   21015   21030       5
   20976   20997   21015   21027       5   20976   20997   21015   21030       5
   20970   20988   21006   21018       3   20967   20952   20970   20988       6
   20964   20949   20961   20976       4   20964   20979  -20997   20976       4
   20964   20979   20997   21015       4   20961   20949   20964   20979       4
   20961   20976  -20997   20979       4   20961   20976   20997   21015       4
   20958   20967   20952   20970       4   20952   20970   20988   21006       8
   20949   20961   20976   20997       4   20949   20964  -20979   20997       4
   20946   20934  -20937   20949       9   20946   20934   20943   20958      10
   20946   20961   20949   20964       4   20946   20961   20976   20997       4
   20943   20931   20940   20952       4   20943   20934   20937   20949      11
   20943   20934   20946   20961      12   20943   20958  -20967   20952       4
   20940   20931   20943   20958       4   20940   20952  -20967   20958       4
   20940   20952   20970   20988       6   20937   20928   20931   20940      13
   20937   20928  -20931   20940      14   20937   20928  -20931   20940      15
   20937   20928  -20931   20943      13   20937   20928  -20931   20943      14
   20937   20928  -20931   20943      15   20937   20928  -20934   20943      16
   20937   20928  -20934   20946      16   20937   20934   20943   20958      17
   20937   20934  -20946   20961      12   20937   20949  -20961   20946       4
   20937   20949   20961   20976       4   20937   20949   20964   20979       4
   20934   20928   20931   20940      18   20934   20928  -20931   20943      18
   20934   20928  -20937   20949      19   20934   20937  -20949   20961      20
   20934   20937   20949   20964      20   20934   20943  -20931   20940       4
   20934   20943   20958   20967       4   20934   20946  -20961   20949      21
   20934   20946   20961   20976      21   20931   20928  -20934   20937      16
   20931   20928  -20934   20943      16   20931   20928   20934   20946      16
   20931   20928  -20937   20934      19   20931   20928   20937   20949      19
   20931   20940   20952   20967       4   20931   20940   20952   20970       4
   20931   20943  -20934   20937      17   20931   20943  -20934   20946      10
   20931   20943  -20958   20967       4   20928   20931   20940   20952       4
   20928   20931  -20943   20934       4   20928   20931   20943   20958       4
   20928   20934  -20937   20949       9   20928   20934  -20943   20931      10
   20928   20934  -20943   20958      10   20928   20934   20946   20961      12
   20928   20937  -20934   20943       9   20928   20937  -20934   20946       9
   20928   20937  -20949   20961      22   20928   20937   20949   20964      22
   21264   21282   21285   21297       3   21246   21264   21282   21285       3
   21225   21246   21264   21282       3   21222   21207   21219   21234       4
   21222   21240  -21255   21234       4   21219   21207   21222   21240       4
   21219   21234  -21255   21240       4   21210   21225   21246   21264       3
   21207   21219   21234   21255       4   21207   21222  -21240   21255       4
   21198   21210   21225   21246       3   21189   21207   21219   21234       4
   21189   21207   21222   21240       4   21180   21198   21210   21225       3
   21171   21189   21207   21219       5   21171   21189   21207   21222       5
   21168   21189   21207   21219       5   21168   21189   21207   21222       5
   21162   21180   21198   21210       3   21159   21144   21162   21180       6
   21156   21141   21153   21168       4   21156   21171  -21189   21168       4
   21156   21171   21189   21207       4   21153   21141   21156   21171       4
   21153   21168  -21189   21171       4   21153   21168   21189   21207       4
   21150   21159   21144   21162       4   21144   21162   21180   21198       8
   21141   21153   21168   21189       4   21141   21156  -21171   21189       4
   21138   21126  -21129   21141       9   21138   21126   21135   21150      10
   21138   21153   21141   21156       4   21138   21153   21168   21189       4
   21135   21123   21132   21144       4   21135   21126   21129   21141      11
   21135   21126   21138   21153      12   21135   21150  -21159   21144       4
   21132   21123   21135   21150       4   21132   21144  -21159   21150       4
   21132   21144   21162   21180       6   21129   21120   21123   21132      13
   21129   21120  -21123   21132      14   21129   21120  -21123   21132      15
   21129   21120  -21123   21135      13   21129   21120  -21123   21135      14
   21129   21120  -21123   21135      15   21129   21120  -21126   21135      16
   21129   21120  -21126   21138      16   21129   21126   21135   21150      17
   21129   21126  -21138   21153      12   21129   21141  -21153   21138       4
   21129   21141   21153   21168       4   21129   21141   21156   21171       4
   21126   21120   21123   21132      18   21126   21120  -21123   21135      18
   21126   21120  -21129   21141      19   21126   21129  -21141   21153      20
   21126   21129   21141   21156      20   21126   21135  -21123   21132       4
   21126   21135   21150   21159       4   21126   21138  -21153   21141      21
   21126   21138   21153   21168      21   21123   21120  -21126   21129      16
   21123   21120  -21126   21135      16   21123   21120   21126   21138      16
   21123   21120  -21129   21126      19   21123   21120   21129   21141      19
   21123   21132   21144   21159       4   21123   21132   21144   21162       4
   21123   21135  -21126   21129      17   21123   21135  -21126   21138      10
   21123   21135  -21150   21159       4   21120   21123   21132   21144       4
   21120   21123  -21135   21126       4   21120   21123   21135   21150       4
   21120   21126  -21129   21141       9   21120   21126  -21135   21123      10
   21120   21126  -21135   21150      10   21120   21126   21138   21153      12
   21120   21129  -21126   21135       9   21120   21129  -21126   21138       9
   21120   21129  -21141   21153      22   21120   21129   21141   21156      22
   21456   21474   21477   21489       3   21438   21456   21474   21477       3
   21417   21438   21456   21474       3   21414   21399   21411   21426       4
   21414   21432  -21447   21426       4   21411   21399   21414   21432       4
   21411   21426  -21447   21432       4   21402   21417   21438   21456       3
   21399   21411   21426   21447       4   21399   21414  -21432   21447       4
   21390   21402   21417   21438       3   21381   21399   21411   21426       4
   21381   21399   21414   21432       4   21372   21390   21402   21417       3
   21363   21381   21399   21411       5   21363   21381   21399   21414       5
   21360   21381   21399   21411       5   21360   21381   21399   21414       5
   21354   21372   21390   21402       3   21351   21336   21354   21372       6
   21348   21333   21345   21360       4   21348   21363  -21381   21360       4
   21348   21363   21381   21399       4   21345   21333   21348   21363       4
   21345   21360  -21381   21363       4   21345   21360   21381   21399       4
   21342   21351   21336   21354       4   21336   21354   21372   21390       8
   21333   21345   21360   21381       4   21333   21348  -21363   21381       4
   21330   21318  -21321   21333       9   21330   21318   21327   21342      10
   21330   21345   21333   21348       4   21330   21345   21360   21381       4
   21327   21315   21324   21336       4   21327   21318   21321   21333      11
   21327   21318   21330   21345      12   21327   21342  -21351   21336       4
   21324   21315   21327   21342       4   21324   21336  -21351   21342       4
   21324   21336   21354   21372       6   21321   21312   21315   21324      13
   21321   21312  -21315   21324      14   21321   21312  -21315   21324      15
   21321   21312  -21315   21327      13   21321   21312  -21315   21327      14
   21321   21312  -21315   21327      15   21321   21312  -21318   21327      16
   21321   21312  -21318   21330      16   21321   21318   21327   21342      17
   21321   21318  -21330   21345      12   21321   21333  -21345   21330       4
   21321   21333   21345   21360       4   21321   21333   21348   21363       4
   21318   21312   21315   21324      18   21318   21312  -21315   21327      18
   21318   21312  -21321   21333      19   21318   21321  -21333   21345      20
   21318   21321   21333   21348      20   21318   21327  -21315   21324       4
   21318   21327   21342   21351       4   21318   21330  -21345   21333      21
   21318   21330   21345   21360      21   21315   21312  -21318   21321      16
   21315   21312  -21318   21327      16   21315   21312   21318   21330      16
   21315   21312  -21321   21318      19   21315   21312   21321   21333      19
   21315   21324   21336   21351       4   21315   21324   21336   21354       4
   21315   21327  -21318   21321      17   21315   21327  -21318   21330      10
   21315   21327  -21342   21351       4   21312   21315   21324   21336       4
   21312   21315  -21327   21318       4   21312   21315   21327   21342       4
   21312   21318  -21321   21333       9   21312   21318  -21327   21315      10
   21312   21318  -21327   21342      10   21312   21318   21330   21345      12
   21312   21321  -21318   21327       9   21312   21321  -21318   21330       9
   21312   21321  -21333   21345      22   21312   21321   21333   21348      22
   21648   21666   21669   21681       3   21630   21648   21666   21669       3
   21609   21630   21648   21666       3   21606   21591   21603   21618       4
   21606   21624  -21639   21618       4   21603   21591   21606   21624       4
   21603   21618  -21639   21624       4   21594   21609   21630   21648       3
   21591   21603   21618   21639       4   21591   21606  -21624   21639       4
   21582   21594   21609   21630       3   21573   21591   21603   21618       4
   21573   21591   21606   21624       4   21564   21582   21594   21609       3
   21555   21573   21591   21603       5   21555   21573   21591   21606       5
   21552   21573   21591   21603       5   21552   21573   21591   21606       5
   21546   21564   21582   21594       3   21543   21528   21546   21564       6
   21540   21525   21537   21552       4   21540   21555  -21573   21552       4
   21540   21555   21573   21591       4   21537   21525   21540   21555       4
   21537   21552  -21573   21555       4   21537   21552   21573   21591       4
   21534   21543   21528   21546       4   21528   21546   21564   21582       8
   21525   21537   21552   21573       4   21525   21540  -21555   21573       4
   21522   21510  -21513   21525       9   21522   21510   21519   21534      10
   21522   21537   21525   21540       4   21522   21537   21552   21573       4
   21519   21507   21516   21528       4   21519   21510   21513   21525      11
   21519   21510   21522   21537      12   21519   21534  -21543   21528       4
   21516   21507   21519   21534       4   21516   21528  -21543   21534       4
   21516   21528   21546   21564       6   21513   21504   21507   21516      13
   21513   21504  -21507   21516      14   21513   21504  -21507   21516      15
   21513   21504  -21507   21519      13   21513   21504  -21507   21519      14
   21513   21504  -21507   21519      15   21513   21504  -21510   21519      16
   21513   21504  -21510   21522      16   21513   21510   21519   21534      17
   21513   21510  -21522   21537      12   21513   21525  -21537   21522       4
   21513   21525   21537   21552       4   21513   21525   21540   21555       4
   21510   21504   21507   21516      18   21510   21504  -21507   21519      18
   21510   21504  -21513   21525      19   21510   21513  -21525   21537      20
   21510   21513   21525   21540      20   21510   21519  -21507   21516       4
   21510   21519   21534   21543       4   21510   21522  -21537   21525      21
   21510   21522   21537   21552      21   21507   21504  -21510   21513      16
   21507   21504  -21510   21519      16   21507   21504   21510   21522      16
   21507   21504  -21513   21510      19   21507   21504   21513   21525      19
   21507   21516   21528   21543       4   21507   21516   21528   21546       4
   21507   21519  -21510   21513      17   21507   21519  -21510   21522      10
   21507   21519  -21534   21543       4   21504   21507   21516   21528       4
   21504   21507  -21519   21510       4   21504   21507   21519   21534       4
   21504   21510  -21513   21525       9   21504   21510  -21519   21507      10
   21504   21510  -21519   21534      10   21504   21510   21522   21537      12
   21504   21513  -21510   21519       9   21504   21513  -21510   21522       9
   21504   21513  -21525   21537      22   21504   21513   21525   21540      22
   21840   21858   21861   21873       3   21822   21840   21858   21861       3
   21801   21822   21840   21858       3   21798   21783   21795   21810       4
   21798   21816  -21831   21810       4   21795   21783   21798   21816       4
   21795   21810  -21831   21816       4   21786   21801   21822   21840       3
   21783   21795   21810   21831       4   21783   21798  -21816   21831       4
   21774   21786   21801   21822       3   21765   21783   21795   21810       4
   21765   21783   21798   21816       4   21756   21774   21786   21801       3
   21747   21765   21783   21795       5   21747   21765   21783   21798       5
   21744   21765   21783   21795       5   21744   21765   21783   21798       5
   21738   21756   21774   21786       3   21735   21720   21738   21756       6
   21732   21717   21729   21744       4   21732   21747  -21765   21744       4
   21732   21747   21765   21783       4   21729   21717   21732   21747       4
   21729   21744  -21765   21747       4   21729   21744   21765   21783       4
   21726   21735   21720   21738       4   21720   21738   21756   21774       8
   21717   21729   21744   21765       4   21717   21732  -21747   21765       4
   21714   21702  -21705   21717       9   21714   21702   21711   21726      10
   21714   21729   21717   21732       4   21714   21729   21744   21765       4
   21711   21699   21708   21720       4   21711   21702   21705   21717      11
   21711   21702   21714   21729      12   21711   21726  -21735   21720       4
   21708   21699   21711   21726       4   21708   21720  -21735   21726       4
   21708   21720   21738   21756       6   21705   21696   21699   21708      13
   21705   21696  -21699   21708      14   21705   21696  -21699   21708      15
   21705   21696  -21699   21711      13   21705   21696  -21699   21711      14
   21705   21696  -21699   21711      15   21705   21696  -21702   21711      16
   21705   21696  -21702   21714      16   21705   21702   21711   21726      17
   21705   21702  -21714   21729      12   21705   21717  -21729   21714       4
   21705   21717   21729   21744       4   21705   21717   21732   21747       4
   21702   21696   21699   21708      18   21702   21696  -21699   21711      18
   21702   21696  -21705   21717      19   21702   21705  -21717   21729      20
   21702   21705   21717   21732      20   21702   21711  -21699   21708       4
   21702   21711   21726   21735       4   21702   21714  -21729   21717      21
   21702   21714   21729   21744      21   21699   21696  -21702   21705      16
   21699   21696  -21702   21711      16   21699   21696   21702   21714      16
   21699   21696  -21705   21702      19   21699   21696   21705   21717      19
   21699   21708   21720   21735       4   21699   21708   21720   21738       4
   21699   21711  -21702   21705      17   21699   21711  -21702   21714      10
   21699   21711  -21726   21735       4   21696   21699   21708   21720       4
   21696   21699  -21711   21702       4   21696   21699   21711   21726       4
   21696   21702  -21705   21717       9   21696   21702  -21711   21699      10
   21696   21702  -21711   21726      10   21696   21702   21714   21729      12
   21696   21705  -21702   21711       9   21696   21705  -21702   21714       9
   21696   21705  -21717   21729      22   21696   21705   21717   21732      22
   22032   22050   22053   22065       3   22014   22032   22050   22053       3
   21993   22014   22032   22050       3   21990   21975   21987   22002       4
   21990   22008  -22023   22002       4   21987   21975   21990   22008       4
   21987   22002  -22023   22008       4   21978   21993   22014   22032       3
   21975   21987   22002   22023       4   21975   21990  -22008   22023       4
   21966   21978   21993   22014       3   21957   21975   21987   22002       4
   21957   21975   21990   22008       4   21948   21966   21978   21993       3
   21939   21957   21975   21987       5   21939   21957   21975   21990       5
   21936   21957   21975   21987       5   21936   21957   21975   21990       5
   21930   21948   21966   21978       3   21927   21912   21930   21948       6
   21924   21909   21921   21936       4   21924   21939  -21957   21936       4
   21924   21939   21957   21975       4   21921   21909   21924   21939       4
   21921   21936  -21957   21939       4   21921   21936   21957   21975       4
   21918   21927   21912   21930       4   21912   21930   21948   21966       8
   21909   21921   21936   21957       4   21909   21924  -21939   21957       4
   21906   21894  -21897   21909       9   21906   21894   21903   21918      10
   21906   21921   21909   21924       4   21906   21921   21936   21957       4
   21903   21891   21900   21912       4   21903   21894   21897   21909      11
   21903   21894   21906   21921      12   21903   21918  -21927   21912       4
   21900   21891   21903   21918       4   21900   21912  -21927   21918       4
   21900   21912   21930   21948       6   21897   21888   21891   21900      13
   21897   21888  -21891   21900      14   21897   21888  -21891   21900      15
   21897   21888  -21891   21903      13   21897   21888  -21891   21903      14
   21897   21888  -21891   21903      15   21897   21888  -21894   21903      16
   21897   21888  -21894   21906      16   21897   21894   21903   21918      17
   21897   21894  -21906   21921      12   21897   21909  -21921   21906       4
   21897   21909   21921   21936       4   21897   21909   21924   21939       4
   21894   21888   21891   21900      18   21894   21888  -21891   21903      18
   21894   21888  -21897   21909      19   21894   21897  -21909   21921      20
   21894   21897   21909   21924      20   21894   21903  -21891   21900       4
   21894   21903   21918   21927       4   21894   21906  -21921   21909      21
   21894   21906   21921   21936      21   21891   21888  -21894   21897      16
   21891   21888  -21894   21903      16   21891   21888   21894   21906      16
   21891   21888  -21897   21894      19   21891   21888   21897   21909      19
   21891   21900   21912   21927       4   21891   21900   21912   21930       4
   21891   21903  -21894   21897      17   21891   21903  -21894   21906      10
   21891   21903  -21918   21927       4   21888   21891   21900   21912       4
   21888   21891  -21903   21894       4   21888   21891   21903   21918       4
   21888   21894  -21897   21909       9   21888   21894  -21903   21891      10
   21888   21894  -21903   21918      10   21888   21894   21906   21921      12
   21888   21897  -21894   21903       9   21888   21897  -21894   21906       9
   21888   21897  -21909   21921      22   21888   21897   21909   21924      22
   22224   22242   22245   22257       3   22206   22224   22242   22245       3
   22185   22206   22224   22242       3   22182   22167   22179   22194       4
   22182   22200  -22215   22194       4   22179   22167   22182   22200       4
   22179   22194  -22215   22200       4   22170   22185   22206   22224       3
   22167   22179   22194   22215       4   22167   22182  -22200   22215       4
   22158   22170   22185   22206       3   22149   22167   22179   22194       4
   22149   22167   22182   22200       4   22140   22158   22170   22185       3
   22131   22149   22167   22179       5   22131   22149   22167   22182       5
   22128   22149   22167   22179       5   22128   22149   22167   22182       5
   22122   22140   22158   22170       3   22119   22104   22122   22140       6
   22116   22101   22113   22128       4   22116   22131  -22149   22128       4
   22116   22131   22149   22167       4   22113   22101   22116   22131       4
   22113   22128  -22149   22131       4   22113   22128   22149   22167       4
   22110   22119   22104   22122       4   22104   22122   22140   22158       8
   22101   22113   22128   22149       4   22101   22116  -22131   22149       4
   22098   22086  -22089   22101       9   22098   22086   22095   22110      10
   22098   22113   22101   22116       4   22098   22113   22128   22149       4
   22095   22083   22092   22104       4   22095   22086   22089   22101      11
   22095   22086   22098   22113      12   22095   22110  -22119   22104       4
   22092   22083   22095   22110       4   22092   22104  -22119   22110       4
   22092   22104   22122   22140       6   22089   22080   22083   22092      13
   22089   22080  -22083   22092      14   22089   22080  -22083   22092      15
   22089   22080  -22083   22095      13   22089   22080  -22083   22095      14
   22089   22080  -22083   22095      15   22089   22080  -22086   22095      16
   22089   22080  -22086   22098      16   22089   22086   22095   22110      17
   22089   22086  -22098   22113      12   22089   22101  -22113   22098       4
   22089   22101   22113   22128       4   22089   22101   22116   22131       4
   22086   22080   22083   22092      18   22086   22080  -22083   22095      18
   22086   22080  -22089   22101      19   22086   22089  -22101   22113      20
   22086   22089   22101   22116      20   22086   22095  -22083   22092       4
   22086   22095   22110   22119       4   22086   22098  -22113   22101      21
   22086   22098   22113   22128      21   22083   22080  -22086   22089      16
   22083   22080  -22086   22095      16   22083   22080   22086   22098      16
   22083   22080  -22089   22086      19   22083   22080   22089   22101      19
   22083   22092   22104   22119       4   22083   22092   22104   22122       4
   22083   22095  -22086   22089      17   22083   22095  -22086   22098      10
   22083   22095  -22110   22119       4   22080   22083   22092   22104       4
   22080   22083  -22095   22086       4   22080   22083   22095   22110       4
   22080   22086  -22089   22101       9   22080   22086  -22095   22083      10
   22080   22086  -22095   22110      10   22080   22086   22098   22113      12
   22080   22089  -22086   22095       9   22080   22089  -22086   22098       9
   22080   22089  -22101   22113      22   22080   22089   22101   22116      22
   22416   22434   22437   22449       3   22398   22416   22434   22437       3
   22377   22398   22416   22434       3   22374   22359   22371   22386       4
   22374   22392  -22407   22386       4   22371   22359   22374   22392       4
   22371   22386  -22407   22392       4   22362   22377   22398   22416       3
   22359   22371   22386   22407       4   22359   22374  -22392   22407       4
   22350   22362   22377   22398       3   22341   22359   22371   22386       4
   22341   22359   22374   22392       4   22332   22350   22362   22377       3
   22323   22341   22359   22371       5   22323   22341   22359   22374       5
   22320   22341   22359   22371       5   22320   22341   22359   22374       5
   22314   22332   22350   22362       3   22311   22296   22314   22332       6
   22308   22293   22305   22320       4   22308   22323  -22341   22320       4
   22308   22323   22341   22359       4   22305   22293   22308   22323       4
   22305   22320  -22341   22323       4   22305   22320   22341   22359       4
   22302   22311   22296   22314       4   22296   22314   22332   22350       8
   22293   22305   22320   22341       4   22293   22308  -22323   22341       4
   22290   22278  -22281   22293       9   22290   22278   22287   22302      10
   22290   22305   22293   22308       4   22290   22305   22320   22341       4
   22287   22275   22284   22296       4   22287   22278   22281   22293      11
   22287   22278   22290   22305      12   22287   22302  -22311   22296       4
   22284   22275   22287   22302       4   22284   22296  -22311   22302       4
   22284   22296   22314   22332       6   22281   22272   22275   22284      13
   22281   22272  -22275   22284      14   22281   22272  -22275   22284      15
   22281   22272  -22275   22287      13   22281   22272  -22275   22287      14
   22281   22272  -22275   22287      15   22281   22272  -22278   22287      16
   22281   22272  -22278   22290      16   22281   22278   22287   22302      17
   22281   22278  -22290   22305      12   22281   22293  -22305   22290       4
   22281   22293   22305   22320       4   22281   22293   22308   22323       4
   22278   22272   22275   22284      18   22278   22272  -22275   22287      18
   22278   22272  -22281   22293      19   22278   22281  -22293   22305      20
   22278   22281   22293   22308      20   22278   22287  -22275   22284       4
   22278   22287   22302   22311       4   22278   22290  -22305   22293      21
   22278   22290   22305   22320      21   22275   22272  -22278   22281      16
   22275   22272  -22278   22287      16   22275   22272   22278   22290      16
   22275   22272  -22281   22278      19   22275   22272   22281   22293      19
   22275   22284   22296   22311       4   22275   22284   22296   22314       4
   22275   22287  -22278   22281      17   22275   22287  -22278   22290      10
   22275   22287  -22302   22311       4   22272   22275   22284   22296       4
   22272   22275  -22287   22278       4   22272   22275   22287   22302       4
   22272   22278  -22281   22293       9   22272   22278  -22287   22275      10
   22272   22278  -22287   22302      10   22272   22278   22290   22305      12
   22272   22281  -22278   22287       9   22272   22281  -22278   22290       9
   22272   22281  -22293   22305      22   22272   22281   22293   22308      22
   22608   22626   22629   22641       3   22590   22608   22626   22629       3
   22569   22590   22608   22626       3   22566   22551   22563   22578       4
   22566   22584  -22599   22578       4   22563   22551   22566   22584       4
   22563   22578  -22599   22584       4   22554   22569   22590   22608       3
   22551   22563   22578   22599       4   22551   22566  -22584   22599       4
   22542   22554   22569   22590       3   22533   22551   22563   22578       4
   22533   22551   22566   22584       4   22524   22542   22554   22569       3
   22515   22533   22551   22563       5   22515   22533   22551   22566       5
   22512   22533   22551   22563       5   22512   22533   22551   22566       5
   22506   22524   22542   22554       3   22503   22488   22506   22524       6
   22500   22485   22497   22512       4   22500   22515  -22533   22512       4
   22500   22515   22533   22551       4   22497   22485   22500   22515       4
   22497   22512  -22533   22515       4   22497   22512   22533   22551       4
   22494   22503   22488   22506       4   22488   22506   22524   22542       8
   22485   22497   22512   22533       4   22485   22500  -22515   22533       4
   22482   22470  -22473   22485       9   22482   22470   22479   22494      10
   22482   22497   22485   22500       4   22482   22497   22512   22533       4
   22479   22467   22476   22488       4   22479   22470   22473   22485      11
   22479   22470   22482   22497      12   22479   22494  -22503   22488       4
   22476   22467   22479   22494       4   22476   22488  -22503   22494       4
   22476   22488   22506   22524       6   22473   22464   22467   22476      13
   22473   22464  -22467   22476      14   22473   22464  -22467   22476      15
   22473   22464  -22467   22479      13   22473   22464  -22467   22479      14
   22473   22464  -22467   22479      15   22473   22464  -22470   22479      16
   22473   22464  -22470   22482      16   22473   22470   22479   22494      17
   22473   22470  -22482   22497      12   22473   22485  -22497   22482       4
   22473   22485   22497   22512       4   22473   22485   22500   22515       4
   22470   22464   22467   22476      18   22470   22464  -22467   22479      18
   22470   22464  -22473   22485      19   22470   22473  -22485   22497      20
   22470   22473   22485   22500      20   22470   22479  -22467   22476       4
   22470   22479   22494   22503       4   22470   22482  -22497   22485      21
   22470   22482   22497   22512      21   22467   22464  -22470   22473      16
   22467   22464  -22470   22479      16   22467   22464   22470   22482      16
   22467   22464  -22473   22470      19   22467   22464   22473   22485      19
   22467   22476   22488   22503       4   22467   22476   22488   22506       4
   22467   22479  -22470   22473      17   22467   22479  -22470   22482      10
   22467   22479  -22494   22503       4   22464   22467   22476   22488       4
   22464   22467  -22479   22470       4   22464   22467   22479   22494       4
   22464   22470  -22473   22485       9   22464   22470  -22479   22467      10
   22464   22470  -22479   22494      10   22464   22470   22482   22497      12
   22464   22473  -22470   22479       9   22464   22473  -22470   22482       9
   22464   22473  -22485   22497      22   22464   22473   22485   22500      22
   22800   22818   22821   22833       3   22782   22800   22818   22821       3
   22761   22782   22800   22818       3   22758   22743   22755   22770       4
   22758   22776  -22791   22770       4   22755   22743   22758   22776       4
   22755   22770  -22791   22776       4   22746   22761   22782   22800       3
   22743   22755   22770   22791       4   22743   22758  -22776   22791       4
   22734   22746   22761   22782       3   22725   22743   22755   22770       4
   22725   22743   22758   22776       4   22716   22734   22746   22761       3
   22707   22725   22743   22755       5   22707   22725   22743   22758       5
   22704   22725   22743   22755       5   22704   22725   22743   22758       5
   22698   22716   22734   22746       3   22695   22680   22698   22716       6
   22692   22677   22689   22704       4   22692   22707  -22725   22704       4
   22692   22707   22725   22743       4   22689   22677   22692   22707       4
   22689   22704  -22725   22707       4   22689   22704   22725   22743       4
   22686   22695   22680   22698       4   22680   22698   22716   22734       8
   22677   22689   22704   22725       4   22677   22692  -22707   22725       4
   22674   22662  -22665   22677       9   22674   22662   22671   22686      10
   22674   22689   22677   22692       4   22674   22689   22704   22725       4
   22671   22659   22668   22680       4   22671   22662   22665   22677      11
   22671   22662   22674   22689      12   22671   22686  -22695   22680       4
   22668   22659   22671   22686       4   22668   22680  -22695   22686       4
   22668   22680   22698   22716       6   22665   22656   22659   22668      13
   22665   22656  -22659   22668      14   22665   22656  -22659   22668      15
   22665   22656  -22659   22671      13   22665   22656  -22659   22671      14
   22665   22656  -22659   22671      15   22665   22656  -22662   22671      16
   22665   22656  -22662   22674      16   22665   22662   22671   22686      17
   22665   22662  -22674   22689      12   22665   22677  -22689   22674       4
   22665   22677   22689   22704       4   22665   22677   22692   22707       4
   22662   22656   22659   22668      18   22662   22656  -22659   22671      18
   22662   22656  -22665   22677      19   22662   22665  -22677   22689      20
   22662   22665   22677   22692      20   22662   22671  -22659   22668       4
   22662   22671   22686   22695       4   22662   22674  -22689   22677      21
   22662   22674   22689   22704      21   22659   22656  -22662   22665      16
   22659   22656  -22662   22671      16   22659   22656   22662   22674      16
   22659   22656  -22665   22662      19   22659   22656   22665   22677      19
   22659   22668   22680   22695       4   22659   22668   22680   22698       4
   22659   22671  -22662   22665      17   22659   22671  -22662   22674      10
   22659   22671  -22686   22695       4   22656   22659   22668   22680       4
   22656   22659  -22671   22662       4   22656   22659   22671   22686       4
   22656   22662  -22665   22677       9   22656   22662  -22671   22659      10
   22656   22662  -22671   22686      10   22656   22662   22674   22689      12
   22656   22665  -22662   22671       9   22656   22665  -22662   22674       9
   22656   22665  -22677   22689      22   22656   22665   22677   22692      22
   22992   23010   23013   23025       3   22974   22992   23010   23013       3
   22953   22974   22992   23010       3   22950   22935   22947   22962       4
   22950   22968  -22983   22962       4   22947   22935   22950   22968       4
   22947   22962  -22983   22968       4   22938   22953   22974   22992       3
   22935   22947   22962   22983       4   22935   22950  -22968   22983       4
   22926   22938   22953   22974       3   22917   22935   22947   22962       4
   22917   22935   22950   22968       4   22908   22926   22938   22953       3
   22899   22917   22935   22947       5   22899   22917   22935   22950       5
   22896   22917   22935   22947       5   22896   22917   22935   22950       5
   22890   22908   22926   22938       3   22887   22872   22890   22908       6
   22884   22869   22881   22896       4   22884   22899  -22917   22896       4
   22884   22899   22917   22935       4   22881   22869   22884   22899       4
   22881   22896  -22917   22899       4   22881   22896   22917   22935       4
   22878   22887   22872   22890       4   22872   22890   22908   22926       8
   22869   22881   22896   22917       4   22869   22884  -22899   22917       4
   22866   22854  -22857   22869       9   22866   22854   22863   22878      10
   22866   22881   22869   22884       4   22866   22881   22896   22917       4
   22863   22851   22860   22872       4   22863   22854   22857   22869      11
   22863   22854   22866   22881      12   22863   22878  -22887   22872       4
   22860   22851   22863   22878       4   22860   22872  -22887   22878       4
   22860   22872   22890   22908       6   22857   22848   22851   22860      13
   22857   22848  -22851   22860      14   22857   22848  -22851   22860      15
   22857   22848  -22851   22863      13   22857   22848  -22851   22863      14
   22857   22848  -22851   22863      15   22857   22848  -22854   22863      16
   22857   22848  -22854   22866      16   22857   22854   22863   22878      17
   22857   22854  -22866   22881      12   22857   22869  -22881   22866       4
   22857   22869   22881   22896       4   22857   22869   22884   22899       4
   22854   22848   22851   22860      18   22854   22848  -22851   22863      18
   22854   22848  -22857   22869      19   22854   22857  -22869   22881      20
   22854   22857   22869   22884      20   22854   22863  -22851   22860       4
   22854   22863   22878   22887       4   22854   22866  -22881   22869      21
   22854   22866   22881   22896      21   22851   22848  -22854   22857      16
   22851   22848  -22854   22863      16   22851   22848   22854   22866      16
   22851   22848  -22857   22854      19   22851   22848   22857   22869      19
   22851   22860   22872   22887       4   22851   22860   22872   22890       4
   22851   22863  -22854   22857      17   22851   22863  -22854   22866      10
   22851   22863  -22878   22887       4   22848   22851   22860   22872       4
   22848   22851  -22863   22854       4   22848   22851   22863   22878       4
   22848   22854  -22857   22869       9   22848   22854  -22863   22851      10
   22848   22854  -22863   22878      10   22848   22854   22866   22881      12
   22848   22857  -22854   22863       9   22848   22857  -22854   22866       9
   22848   22857  -22869   22881      22   22848   22857   22869   22884      22
   23184   23202   23205   23217       3   23166   23184   23202   23205       3
   23145   23166   23184   23202       3   23142   23127   23139   23154       4
   23142   23160  -23175   23154       4   23139   23127   23142   23160       4
   23139   23154  -23175   23160       4   23130   23145   23166   23184       3
   23127   23139   23154   23175       4   23127   23142  -23160   23175       4
   23118   23130   23145   23166       3   23109   23127   23139   23154       4
   23109   23127   23142   23160       4   23100   23118   23130   23145       3
   23091   23109   23127   23139       5   23091   23109   23127   23142       5
   23088   23109   23127   23139       5   23088   23109   23127   23142       5
   23082   23100   23118   23130       3   23079   23064   23082   23100       6
   23076   23061   23073   23088       4   23076   23091  -23109   23088       4
   23076   23091   23109   23127       4   23073   23061   23076   23091       4
   23073   23088  -23109   23091       4   23073   23088   23109   23127       4
   23070   23079   23064   23082       4   23064   23082   23100   23118       8
   23061   23073   23088   23109       4   23061   23076  -23091   23109       4
   23058   23046  -23049   23061       9   23058   23046   23055   23070      10
   23058   23073   23061   23076       4   23058   23073   23088   23109       4
   23055   23043   23052   23064       4   23055   23046   23049   23061      11
   23055   23046   23058   23073      12   23055   23070  -23079   23064       4
   23052   23043   23055   23070       4   23052   23064  -23079   23070       4
   23052   23064   23082   23100       6   23049   23040   23043   23052      13
   23049   23040  -23043   23052      14   23049   23040  -23043   23052      15
   23049   23040  -23043   23055      13   23049   23040  -23043   23055      14
   23049   23040  -23043   23055      15   23049   23040  -23046   23055      16
   23049   23040  -23046   23058      16   23049   23046   23055   23070      17
   23049   23046  -23058   23073      12   23049   23061  -23073   23058       4
   23049   23061   23073   23088       4   23049   23061   23076   23091       4
   23046   23040   23043   23052      18   23046   23040  -23043   23055      18
   23046   23040  -23049   23061      19   23046   23049  -23061   23073      20
   23046   23049   23061   23076      20   23046   23055  -23043   23052       4
   23046   23055   23070   23079       4   23046   23058  -23073   23061      21
   23046   23058   23073   23088      21   23043   23040  -23046   23049      16
   23043   23040  -23046   23055      16   23043   23040   23046   23058      16
   23043   23040  -23049   23046      19   23043   23040   23049   23061      19
   23043   23052   23064   23079       4   23043   23052   23064   23082       4
   23043   23055  -23046   23049      17   23043   23055  -23046   23058      10
   23043   23055  -23070   23079       4   23040   23043   23052   23064       4
   23040   23043  -23055   23046       4   23040   23043   23055   23070       4
   23040   23046  -23049   23061       9   23040   23046  -23055   23043      10
   23040   23046  -23055   23070      10   23040   23046   23058   23073      12
   23040   23049  -23046   23055       9   23040   23049  -23046   23058       9
   23040   23049  -23061   23073      22   23040   23049   23061   23076      22
   23376   23394   23397   23409       3   23358   23376   23394   23397       3
   23337   23358   23376   23394       3   23334   23319   23331   23346       4
   23334   23352  -23367   23346       4   23331   23319   23334   23352       4
   23331   23346  -23367   23352       4   23322   23337   23358   23376       3
   23319   23331   23346   23367       4   23319   23334  -23352   23367       4
   23310   23322   23337   23358       3   23301   23319   23331   23346       4
   23301   23319   23334   23352       4   23292   23310   23322   23337       3
   23283   23301   23319   23331       5   23283   23301   23319   23334       5
   23280   23301   23319   23331       5   23280   23301   23319   23334       5
   23274   23292   23310   23322       3   23271   23256   23274   23292       6
   23268   23253   23265   23280       4   23268   23283  -23301   23280       4
   23268   23283   23301   23319       4   23265   23253   23268   23283       4
   23265   23280  -23301   23283       4   23265   23280   23301   23319       4
   23262   23271   23256   23274       4   23256   23274   23292   23310       8
   23253   23265   23280   23301       4   23253   23268  -23283   23301       4
   23250   23238  -23241   23253       9   23250   23238   23247   23262      10
   23250   23265   23253   23268       4   23250   23265   23280   23301       4
   23247   23235   23244   23256       4   23247   23238   23241   23253      11
   23247   23238   23250   23265      12   23247   23262  -23271   23256       4
   23244   23235   23247   23262       4   23244   23256  -23271   23262       4
   23244   23256   23274   23292       6   23241   23232   23235   23244      13
   23241   23232  -23235   23244      14   23241   23232  -23235   23244      15
   23241   23232  -23235   23247      13   23241   23232  -23235   23247      14
   23241   23232  -23235   23247      15   23241   23232  -23238   23247      16
   23241   23232  -23238   23250      16   23241   23238   23247   23262      17
   23241   23238  -23250   23265      12   23241   23253  -23265   23250       4
   23241   23253   23265   23280       4   23241   23253   23268   23283       4
   23238   23232   23235   23244      18   23238   23232  -23235   23247      18
   23238   23232  -23241   23253      19   23238   23241  -23253   23265      20
   23238   23241   23253   23268      20   23238   23247  -23235   23244       4
   23238   23247   23262   23271       4   23238   23250  -23265   23253      21
   23238   23250   23265   23280      21   23235   23232  -23238   23241      16
   23235   23232  -23238   23247      16   23235   23232   23238   23250      16
   23235   23232  -23241   23238      19   23235   23232   23241   23253      19
   23235   23244   23256   23271       4   23235   23244   23256   23274       4
   23235   23247  -23238   23241      17   23235   23247  -23238   23250      10
   23235   23247  -23262   23271       4   23232   23235   23244   23256       4
   23232   23235  -23247   23238       4   23232   23235   23247   23262       4
   23232   23238  -23241   23253       9   23232   23238  -23247   23235      10
   23232   23238  -23247   23262      10   23232   23238   23250   23265      12
   23232   23241  -23238   23247       9   23232   23241  -23238   23250       9
   23232   23241  -23253   23265      22   23232   23241   23253   23268      22
   23568   23586   23589   23601       3   23550   23568   23586   23589       3
   23529   23550   23568   23586       3   23526   23511   23523   23538       4
   23526   23544  -23559   23538       4   23523   23511   23526   23544       4
   23523   23538  -23559   23544       4   23514   23529   23550   23568       3
   23511   23523   23538   23559       4   23511   23526  -23544   23559       4
   23502   23514   23529   23550       3   23493   23511   23523   23538       4
   23493   23511   23526   23544       4   23484   23502   23514   23529       3
   23475   23493   23511   23523       5   23475   23493   23511   23526       5
   23472   23493   23511   23523       5   23472   23493   23511   23526       5
   23466   23484   23502   23514       3   23463   23448   23466   23484       6
   23460   23445   23457   23472       4   23460   23475  -23493   23472       4
   23460   23475   23493   23511       4   23457   23445   23460   23475       4
   23457   23472  -23493   23475       4   23457   23472   23493   23511       4
   23454   23463   23448   23466       4   23448   23466   23484   23502       8
   23445   23457   23472   23493       4   23445   23460  -23475   23493       4
   23442   23430  -23433   23445       9   23442   23430   23439   23454      10
   23442   23457   23445   23460       4   23442   23457   23472   23493       4
   23439   23427   23436   23448       4   23439   23430   23433   23445      11
   23439   23430   23442   23457      12   23439   23454  -23463   23448       4
   23436   23427   23439   23454       4   23436   23448  -23463   23454       4
   23436   23448   23466   23484       6   23433   23424   23427   23436      13
   23433   23424  -23427   23436      14   23433   23424  -23427   23436      15
   23433   23424  -23427   23439      13   23433   23424  -23427   23439      14
   23433   23424  -23427   23439      15   23433   23424  -23430   23439      16
   23433   23424  -23430   23442      16   23433   23430   23439   23454      17
   23433   23430  -23442   23457      12   23433   23445  -23457   23442       4
   23433   23445   23457   23472       4   23433   23445   23460   23475       4
   23430   23424   23427   23436      18   23430   23424  -23427   23439      18
   23430   23424  -23433   23445      19   23430   23433  -23445   23457      20
   23430   23433   23445   23460      20   23430   23439  -23427   23436       4
   23430   23439   23454   23463       4   23430   23442  -23457   23445      21
   23430   23442   23457   23472      21   23427   23424  -23430   23433      16
   23427   23424  -23430   23439      16   23427   23424   23430   23442      16
   23427   23424  -23433   23430      19   23427   23424   23433   23445      19
   23427   23436   23448   23463       4   23427   23436   23448   23466       4
   23427   23439  -23430   23433      17   23427   23439  -23430   23442      10
   23427   23439  -23454   23463       4   23424   23427   23436   23448       4
   23424   23427  -23439   23430       4   23424   23427   23439   23454       4
   23424   23430  -23433   23445       9   23424   23430  -23439   23427      10
   23424   23430  -23439   23454      10   23424   23430   23442   23457      12
   23424   23433  -23430   23439       9   23424   23433  -23430   23442       9
   23424   23433  -23445   23457      22   23424   23433   23445   23460      22
   23760   23778   23781   23793       3   23742   23760   23778   23781       3
   23721   23742   23760   23778       3   23718   23703   23715   23730       4
   23718   23736  -23751   23730       4   23715   23703   23718   23736       4
   23715   23730  -23751   23736       4   23706   23721   23742   23760       3
   23703   23715   23730   23751       4   23703   23718  -23736   23751       4
   23694   23706   23721   23742       3   23685   23703   23715   23730       4
   23685   23703   23718   23736       4   23676   23694   23706   23721       3
   23667   23685   23703   23715       5   23667   23685   23703   23718       5
   23664   23685   23703   23715       5   23664   23685   23703   23718       5
   23658   23676   23694   23706       3   23655   23640   23658   23676       6
   23652   23637   23649   23664       4   23652   23667  -23685   23664       4
   23652   23667   23685   23703       4   23649   23637   23652   23667       4
   23649   23664  -23685   23667       4   23649   23664   23685   23703       4
   23646   23655   23640   23658       4   23640   23658   23676   23694       8
   23637   23649   23664   23685       4   23637   23652  -23667   23685       4
   23634   23622  -23625   23637       9   23634   23622   23631   23646      10
   23634   23649   23637   23652       4   23634   23649   23664   23685       4
   23631   23619   23628   23640       4   23631   23622   23625   23637      11
   23631   23622   23634   23649      12   23631   23646  -23655   23640       4
   23628   23619   23631   23646       4   23628   23640  -23655   23646       4
   23628   23640   23658   23676       6   23625   23616   23619   23628      13
   23625   23616  -23619   23628      14   23625   23616  -23619   23628      15
   23625   23616  -23619   23631      13   23625   23616  -23619   23631      14
   23625   23616  -23619   23631      15   23625   23616  -23622   23631      16
   23625   23616  -23622   23634      16   23625   23622   23631   23646      17
   23625   23622  -23634   23649      12   23625   23637  -23649   23634       4
   23625   23637   23649   23664       4   23625   23637   23652   23667       4
   23622   23616   23619   23628      18   23622   23616  -23619   23631      18
   23622   23616  -23625   23637      19   23622   23625  -23637   23649      20
   23622   23625   23637   23652      20   23622   23631  -23619   23628       4
   23622   23631   23646   23655       4   23622   23634  -23649   23637      21
   23622   23634   23649   23664      21   23619   23616  -23622   23625      16
   23619   23616  -23622   23631      16   23619   23616   23622   23634      16
   23619   23616  -23625   23622      19   23619   23616   23625   23637      19
   23619   23628   23640   23655       4   23619   23628   23640   23658       4
   23619   23631  -23622   23625      17   23619   23631  -23622   23634      10
   23619   23631  -23646   23655       4   23616   23619   23628   23640       4
   23616   23619  -23631   23622       4   23616   23619   23631   23646       4
   23616   23622  -23625   23637       9   23616   23622  -23631   23619      10
   23616   23622  -23631   23646      10   23616   23622   23634   23649      12
   23616   23625  -23622   23631       9   23616   23625  -23622   23634       9
   23616   23625  -23637   23649      22   23616   23625   23637   23652      22
   23952   23970   23973   23985       3   23934   23952   23970   23973       3
   23913   23934   23952   23970       3   23910   23895   23907   23922       4
   23910   23928  -23943   23922       4   23907   23895   23910   23928       4
   23907   23922  -23943   23928       4   23898   23913   23934   23952       3
   23895   23907   23922   23943       4   23895   23910  -23928   23943       4
   23886   23898   23913   23934       3   23877   23895   23907   23922       4
   23877   23895   23910   23928       4   23868   23886   23898   23913       3
   23859   23877   23895   23907       5   23859   23877   23895   23910       5
   23856   23877   23895   23907       5   23856   23877   23895   23910       5
   23850   23868   23886   23898       3   23847   23832   23850   23868       6
   23844   23829   23841   23856       4   23844   23859  -23877   23856       4
   23844   23859   23877   23895       4   23841   23829   23844   23859       4
   23841   23856  -23877   23859       4   23841   23856   23877   23895       4
   23838   23847   23832   23850       4   23832   23850   23868   23886       8
   23829   23841   23856   23877       4   23829   23844  -23859   23877       4
   23826   23814  -23817   23829       9   23826   23814   23823   23838      10
   23826   23841   23829   23844       4   23826   23841   23856   23877       4
   23823   23811   23820   23832       4   23823   23814   23817   23829      11
   23823   23814   23826   23841      12   23823   23838  -23847   23832       4
   23820   23811   23823   23838       4   23820   23832  -23847   23838       4
   23820   23832   23850   23868       6   23817   23808   23811   23820      13
   23817   23808  -23811   23820      14   23817   23808  -23811   23820      15
   23817   23808  -23811   23823      13   23817   23808  -23811   23823      14
   23817   23808  -23811   23823      15   23817   23808  -23814   23823      16
   23817   23808  -23814   23826      16   23817   23814   23823   23838      17
   23817   23814  -23826   23841      12   23817   23829  -23841   23826       4
   23817   23829   23841   23856       4   23817   23829   23844   23859       4
   23814   23808   23811   23820      18   23814   23808  -23811   23823      18
   23814   23808  -23817   23829      19   23814   23817  -23829   23841      20
   23814   23817   23829   23844      20   23814   23823  -23811   23820       4
   23814   23823   23838   23847       4   23814   23826  -23841   23829      21
   23814   23826   23841   23856      21   23811   23808  -23814   23817      16
   23811   23808  -23814   23823      16   23811   23808   23814   23826      16
   23811   23808  -23817   23814      19   23811   23808   23817   23829      19
   23811   23820   23832   23847       4   23811   23820   23832   23850       4
   23811   23823  -23814   23817      17   23811   23823  -23814   23826      10
   23811   23823  -23838   23847       4   23808   23811   23820   23832       4
   23808   23811  -23823   23814       4   23808   23811   23823   23838       4
   23808   23814  -23817   23829       9   23808   23814  -23823   23811      10
   23808   23814  -23823   23838      10   23808   23814   23826   23841      12
   23808   23817  -23814   23823       9   23808   23817  -23814   23826       9
   23808   23817  -23829   23841      22   23808   23817   23829   23844      22
   24144   24162   24165   24177       3   24126   24144   24162   24165       3
   24105   24126   24144   24162       3   24102   24087   24099   24114       4
   24102   24120  -24135   24114       4   24099   24087   24102   24120       4
   24099   24114  -24135   24120       4   24090   24105   24126   24144       3
   24087   24099   24114   24135       4   24087   24102  -24120   24135       4
   24078   24090   24105   24126       3   24069   24087   24099   24114       4
   24069   24087   24102   24120       4   24060   24078   24090   24105       3
   24051   24069   24087   24099       5   24051   24069   24087   24102       5
   24048   24069   24087   24099       5   24048   24069   24087   24102       5
   24042   24060   24078   24090       3   24039   24024   24042   24060       6
   24036   24021   24033   24048       4   24036   24051  -24069   24048       4
   24036   24051   24069   24087       4   24033   24021   24036   24051       4
   24033   24048  -24069   24051       4   24033   24048   24069   24087       4
   24030   24039   24024   24042       4   24024   24042   24060   24078       8
   24021   24033   24048   24069       4   24021   24036  -24051   24069       4
   24018   24006  -24009   24021       9   24018   24006   24015   24030      10
   24018   24033   24021   24036       4   24018   24033   24048   24069       4
   24015   24003   24012   24024       4   24015   24006   24009   24021      11
   24015   24006   24018   24033      12   24015   24030  -24039   24024       4
   24012   24003   24015   24030       4   24012   24024  -24039   24030       4
   24012   24024   24042   24060       6   24009   24000   24003   24012      13
   24009   24000  -24003   24012      14   24009   24000  -24003   24012      15
   24009   24000  -24003   24015      13   24009   24000  -24003   24015      14
   24009   24000  -24003   24015      15   24009   24000  -24006   24015      16
   24009   24000  -24006   24018      16   24009   24006   24015   24030      17
   24009   24006  -24018   24033      12   24009   24021  -24033   24018       4
   24009   24021   24033   24048       4   24009   24021   24036   24051       4
   24006   24000   24003   24012      18   24006   24000  -24003   24015      18
   24006   24000  -24009   24021      19   24006   24009  -24021   24033      20
   24006   24009   24021   24036      20   24006   24015  -24003   24012       4
   24006   24015   24030   24039       4   24006   24018  -24033   24021      21
   24006   24018   24033   24048      21   24003   24000  -24006   24009      16
   24003   24000  -24006   24015      16   24003   24000   24006   24018      16
   24003   24000  -24009   24006      19   24003   24000   24009   24021      19
   24003   24012   24024   24039       4   24003   24012   24024   24042       4
   24003   24015  -24006   24009      17   24003   24015  -24006   24018      10
   24003   24015  -24030   24039       4   24000   24003   24012   24024       4
   24000   24003  -24015   24006       4   24000   24003   24015   24030       4
   24000   24006  -24009   24021       9   24000   24006  -24015   24003      10
   24000   24006  -24015   24030      10   24000   24006   24018   24033      12
   24000   24009  -24006   24015       9   24000   24009  -24006   24018       9
   24000   24009  -24021   24033      22   24000   24009   24021   24036      22
   24336   24354   24357   24369       3   24318   24336   24354   24357       3
   24297   24318   24336   24354       3   24294   24279   24291   24306       4
   24294   24312  -24327   24306       4   24291   24279   24294   24312       4
   24291   24306  -24327   24312       4   24282   24297   24318   24336       3
   24279   24291   24306   24327       4   24279   24294  -24312   24327       4
   24270   24282   24297   24318       3   24261   24279   24291   24306       4
   24261   24279   24294   24312       4   24252   24270   24282   24297       3
   24243   24261   24279   24291       5   24243   24261   24279   24294       5
   24240   24261   24279   24291       5   24240   24261   24279   24294       5
   24234   24252   24270   24282       3   24231   24216   24234   24252       6
   24228   24213   24225   24240       4   24228   24243  -24261   24240       4
   24228   24243   24261   24279       4   24225   24213   24228   24243       4
   24225   24240  -24261   24243       4   24225   24240   24261   24279       4
   24222   24231   24216   24234       4   24216   24234   24252   24270       8
   24213   24225   24240   24261       4   24213   24228  -24243   24261       4
   24210   24198  -24201   24213       9   24210   24198   24207   24222      10
   24210   24225   24213   24228       4   24210   24225   24240   24261       4
   24207   24195   24204   24216       4   24207   24198   24201   24213      11
   24207   24198   24210   24225      12   24207   24222  -24231   24216       4
   24204   24195   24207   24222       4   24204   24216  -24231   24222       4
   24204   24216   24234   24252       6   24201   24192   24195   24204      13
   24201   24192  -24195   24204      14   24201   24192  -24195   24204      15
   24201   24192  -24195   24207      13   24201   24192  -24195   24207      14
   24201   24192  -24195   24207      15   24201   24192  -24198   24207      16
   24201   24192  -24198   24210      16   24201   24198   24207   24222      17
   24201   24198  -24210   24225      12   24201   24213  -24225   24210       4
   24201   24213   24225   24240       4   24201   24213   24228   24243       4
   24198   24192   24195   24204      18   24198   24192  -24195   24207      18
   24198   24192  -24201   24213      19   24198   24201  -24213   24225      20
   24198   24201   24213   24228      20   24198   24207  -24195   24204       4
   24198   24207   24222   24231       4   24198   24210  -24225   24213      21
   24198   24210   24225   24240      21   24195   24192  -24198   24201      16
   24195   24192  -24198   24207      16   24195   24192   24198   24210      16
   24195   24192  -24201   24198      19   24195   24192   24201   24213      19
   24195   24204   24216   24231       4   24195   24204   24216   24234       4
   24195   24207  -24198   24201      17   24195   24207  -24198   24210      10
   24195   24207  -24222   24231       4   24192   24195   24204   24216       4
   24192   24195  -24207   24198       4   24192   24195   24207   24222       4
   24192   24198  -24201   24213       9   24192   24198  -24207   24195      10
   24192   24198  -24207   24222      10   24192   24198   24210   24225      12
   24192   24201  -24198   24207       9   24192   24201  -24198   24210       9
   24192   24201  -24213   24225      22   24192   24201   24213   24228      22
   24528   24546   24549   24561       3   24510   24528   24546   24549       3
   24489   24510   24528   24546       3   24486   24471   24483   24498       4
   24486   24504  -24519   24498       4   24483   24471   24486   24504       4
   24483   24498  -24519   24504       4   24474   24489   24510   24528       3
   24471   24483   24498   24519       4   24471   24486  -24504   24519       4
   24462   24474   24489   24510       3   24453   24471   24483   24498       4
   24453   24471   24486   24504       4   24444   24462   24474   24489       3
   24435   24453   24471   24483       5   24435   24453   24471   24486       5
   24432   24453   24471   24483       5   24432   24453   24471   24486       5
   24426   24444   24462   24474       3   24423   24408   24426   24444       6
   24420   24405   24417   24432       4   24420   24435  -24453   24432       4
   24420   24435   24453   24471       4   24417   24405   24420   24435       4
   24417   24432  -24453   24435       4   24417   24432   24453   24471       4
   24414   24423   24408   24426       4   24408   24426   24444   24462       8
   24405   24417   24432   24453       4   24405   24420  -24435   24453       4
   24402   24390  -24393   24405       9   24402   24390   24399   24414      10
   24402   24417   24405   24420       4   24402   24417   24432   24453       4
   24399   24387   24396   24408       4   24399   24390   24393   24405      11
   24399   24390   24402   24417      12   24399   24414  -24423   24408       4
   24396   24387   24399   24414       4   24396   24408  -24423   24414       4
   24396   24408   24426   24444       6   24393   24384   24387   24396      13
   24393   24384  -24387   24396      14   24393   24384  -24387   24396      15
   24393   24384  -24387   24399      13   24393   24384  -24387   24399      14
   24393   24384  -24387   24399      15   24393   24384  -24390   24399      16
   24393   24384  -24390   24402      16   24393   24390   24399   24414      17
   24393   24390  -24402   24417      12   24393   24405  -24417   24402       4
   24393   24405   24417   24432       4   24393   24405   24420   24435       4
   24390   24384   24387   24396      18   24390   24384  -24387   24399      18
   24390   24384  -24393   24405      19   24390   24393  -24405   24417      20
   24390   24393   24405   24420      20   24390   24399  -24387   24396       4
   24390   24399   24414   24423       4   24390   24402  -24417   24405      21
   24390   24402   24417   24432      21   24387   24384  -24390   24393      16
   24387   24384  -24390   24399      16   24387   24384   24390   24402      16
   24387   24384  -24393   24390      19   24387   24384   24393   24405      19
   24387   24396   24408   24423       4   24387   24396   24408   24426       4
   24387   24399  -24390   24393      17   24387   24399  -24390   24402      10
   24387   24399  -24414   24423       4   24384   24387   24396   24408       4
   24384   24387  -24399   24390       4   24384   24387   24399   24414       4
   24384   24390  -24393   24405       9   24384   24390  -24399   24387      10
   24384   24390  -24399   24414      10   24384   24390   24402   24417      12
   24384   24393  -24390   24399       9   24384   24393  -24390   24402       9
   24384   24393  -24405   24417      22   24384   24393   24405   24420      22
   24720   24738   24741   24753       3   24702   24720   24738   24741       3
   24681   24702   24720   24738       3   24678   24663   24675   24690       4
   24678   24696  -24711   24690       4   24675   24663   24678   24696       4
   24675   24690  -24711   24696       4   24666   24681   24702   24720       3
   24663   24675   24690   24711       4   24663   24678  -24696   24711       4
   24654   24666   24681   24702       3   24645   24663   24675   24690       4
   24645   24663   24678   24696       4   24636   24654   24666   24681       3
   24627   24645   24663   24675       5   24627   24645   24663   24678       5
   24624   24645   24663   24675       5   24624   24645   24663   24678       5
   24618   24636   24654   24666       3   24615   24600   24618   24636       6
   24612   24597   24609   24624       4   24612   24627  -24645   24624       4
   24612   24627   24645   24663       4   24609   24597   24612   24627       4
   24609   24624  -24645   24627       4   24609   24624   24645   24663       4
   24606   24615   24600   24618       4   24600   24618   24636   24654       8
   24597   24609   24624   24645       4   24597   24612  -24627   24645       4
   24594   24582  -24585   24597       9   24594   24582   24591   24606      10
   24594   24609   24597   24612       4   24594   24609   24624   24645       4
   24591   24579   24588   24600       4   24591   24582   24585   24597      11
   24591   24582   24594   24609      12   24591   24606  -24615   24600       4
   24588   24579   24591   24606       4   24588   24600  -24615   24606       4
   24588   24600   24618   24636       6   24585   24576   24579   24588      13
   24585   24576  -24579   24588      14   24585   24576  -24579   24588      15
   24585   24576  -24579   24591      13   24585   24576  -24579   24591      14
   24585   24576  -24579   24591      15   24585   24576  -24582   24591      16
   24585   24576  -24582   24594      16   24585   24582   24591   24606      17
   24585   24582  -24594   24609      12   24585   24597  -24609   24594       4
   24585   24597   24609   24624       4   24585   24597   24612   24627       4
   24582   24576   24579   24588      18   24582   24576  -24579   24591      18
   24582   24576  -24585   24597      19   24582   24585  -24597   24609      20
   24582   24585   24597   24612      20   24582   24591  -24579   24588       4
   24582   24591   24606   24615       4   24582   24594  -24609   24597      21
   24582   24594   24609   24624      21   24579   24576  -24582   24585      16
   24579   24576  -24582   24591      16   24579   24576   24582   24594      16
   24579   24576  -24585   24582      19   24579   24576   24585   24597      19
   24579   24588   24600   24615       4   24579   24588   24600   24618       4
   24579   24591  -24582   24585      17   24579   24591  -24582   24594      10
   24579   24591  -24606   24615       4   24576   24579   24588   24600       4
   24576   24579  -24591   24582       4   24576   24579   24591   24606       4
   24576   24582  -24585   24597       9   24576   24582  -24591   24579      10
   24576   24582  -24591   24606      10   24576   24582   24594   24609      12
   24576   24585  -24582   24591       9   24576   24585  -24582   24594       9
   24576   24585  -24597   24609      22   24576   24585   24597   24612      22
   24912   24930   24933   24945       3   24894   24912   24930   24933       3
   24873   24894   24912   24930       3   24870   24855   24867   24882       4
   24870   24888  -24903   24882       4   24867   24855   24870   24888       4
   24867   24882  -24903   24888       4   24858   24873   24894   24912       3
   24855   24867   24882   24903       4   24855   24870  -24888   24903       4
   24846   24858   24873   24894       3   24837   24855   24867   24882       4
   24837   24855   24870   24888       4   24828   24846   24858   24873       3
   24819   24837   24855   24867       5   24819   24837   24855   24870       5
   24816   24837   24855   24867       5   24816   24837   24855   24870       5
   24810   24828   24846   24858       3   24807   24792   24810   24828       6
   24804   24789   24801   24816       4   24804   24819  -24837   24816       4
   24804   24819   24837   24855       4   24801   24789   24804   24819       4
   24801   24816  -24837   24819       4   24801   24816   24837   24855       4
   24798   24807   24792   24810       4   24792   24810   24828   24846       8
   24789   24801   24816   24837       4   24789   24804  -24819   24837       4
   24786   24774  -24777   24789       9   24786   24774   24783   24798      10
   24786   24801   24789   24804       4   24786   24801   24816   24837       4
   24783   24771   24780   24792       4   24783   24774   24777   24789      11
   24783   24774   24786   24801      12   24783   24798  -24807   24792       4
   24780   24771   24783   24798       4   24780   24792  -24807   24798       4
   24780   24792   24810   24828       6   24777   24768   24771   24780      13
   24777   24768  -24771   24780      14   24777   24768  -24771   24780      15
   24777   24768  -24771   24783      13   24777   24768  -24771   24783      14
   24777   24768  -24771   24783      15   24777   24768  -24774   24783      16
   24777   24768  -24774   24786      16   24777   24774   24783   24798      17
   24777   24774  -24786   24801      12   24777   24789  -24801   24786       4
   24777   24789   24801   24816       4   24777   24789   24804   24819       4
   24774   24768   24771   24780      18   24774   24768  -24771   24783      18
   24774   24768  -24777   24789      19   24774   24777  -24789   24801      20
   24774   24777   24789   24804      20   24774   24783  -24771   24780       4
   24774   24783   24798   24807       4   24774   24786  -24801   24789      21
   24774   24786   24801   24816      21   24771   24768  -24774   24777      16
   24771   24768  -24774   24783      16   24771   24768   24774   24786      16
   24771   24768  -24777   24774      19   24771   24768   24777   24789      19
   24771   24780   24792   24807       4   24771   24780   24792   24810       4
   24771   24783  -24774   24777      17   24771   24783  -24774   24786      10
   24771   24783  -24798   24807       4   24768   24771   24780   24792       4
   24768   24771  -24783   24774       4   24768   24771   24783   24798       4
   24768   24774  -24777   24789       9   24768   24774  -24783   24771      10
   24768   24774  -24783   24798      10   24768   24774   24786   24801      12
   24768   24777  -24774   24783       9   24768   24777  -24774   24786       9
   24768   24777  -24789   24801      22   24768   24777   24789   24804      22
   25104   25122   25125   25137       3   25086   25104   25122   25125       3
   25065   25086   25104   25122       3   25062   25047   25059   25074       4
   25062   25080  -25095   25074       4   25059   25047   25062   25080       4
   25059   25074  -25095   25080       4   25050   25065   25086   25104       3
   25047   25059   25074   25095       4   25047   25062  -25080   25095       4
   25038   25050   25065   25086       3   25029   25047   25059   25074       4
   25029   25047   25062   25080       4   25020   25038   25050   25065       3
   25011   25029   25047   25059       5   25011   25029   25047   25062       5
   25008   25029   25047   25059       5   25008   25029   25047   25062       5
   25002   25020   25038   25050       3   24999   24984   25002   25020       6
   24996   24981   24993   25008       4   24996   25011  -25029   25008       4
   24996   25011   25029   25047       4   24993   24981   24996   25011       4
   24993   25008  -25029   25011       4   24993   25008   25029   25047       4
   24990   24999   24984   25002       4   24984   25002   25020   25038       8
   24981   24993   25008   25029       4   24981   24996  -25011   25029       4
   24978   24966  -24969   24981       9   24978   24966   24975   24990      10
   24978   24993   24981   24996       4   24978   24993   25008   25029       4
   24975   24963   24972   24984       4   24975   24966   24969   24981      11
   24975   24966   24978   24993      12   24975   24990  -24999   24984       4
   24972   24963   24975   24990       4   24972   24984  -24999   24990       4
   24972   24984   25002   25020       6   24969   24960   24963   24972      13
   24969   24960  -24963   24972      14   24969   24960  -24963   24972      15
   24969   24960  -24963   24975      13   24969   24960  -24963   24975      14
   24969   24960  -24963   24975      15   24969   24960  -24966   24975      16
   24969   24960  -24966   24978      16   24969   24966   24975   24990      17
   24969   24966  -24978   24993      12   24969   24981  -24993   24978       4
   24969   24981   24993   25008       4   24969   24981   24996   25011       4
   24966   24960   24963   24972      18   24966   24960  -24963   24975      18
   24966   24960  -24969   24981      19   24966   24969  -24981   24993      20
   24966   24969   24981   24996      20   24966   24975  -24963   24972       4
   24966   24975   24990   24999       4   24966   24978  -24993   24981      21
   24966   24978   24993   25008      21   24963   24960  -24966   24969      16
   24963   24960  -24966   24975      16   24963   24960   24966   24978      16
   24963   24960  -24969   24966      19   24963   24960   24969   24981      19
   24963   24972   24984   24999       4   24963   24972   24984   25002       4
   24963   24975  -24966   24969      17   24963   24975  -24966   24978      10
   24963   24975  -24990   24999       4   24960   24963   24972   24984       4
   24960   24963  -24975   24966       4   24960   24963   24975   24990       4
   24960   24966  -24969   24981       9   24960   24966  -24975   24963      10
   24960   24966  -24975   24990      10   24960   24966   24978   24993      12
   24960   24969  -24966   24975       9   24960   24969  -24966   24978       9
   24960   24969  -24981   24993      22   24960   24969   24981   24996      22
   25296   25314   25317   25329       3   25278   25296   25314   25317       3
   25257   25278   25296   25314       3   25254   25239   25251   25266       4
   25254   25272  -25287   25266       4   25251   25239   25254   25272       4
   25251   25266  -25287   25272       4   25242   25257   25278   25296       3
   25239   25251   25266   25287       4   25239   25254  -25272   25287       4
   25230   25242   25257   25278       3   25221   25239   25251   25266       4
   25221   25239   25254   25272       4   25212   25230   25242   25257       3
   25203   25221   25239   25251       5   25203   25221   25239   25254       5
   25200   25221   25239   25251       5   25200   25221   25239   25254       5
   25194   25212   25230   25242       3   25191   25176   25194   25212       6
   25188   25173   25185   25200       4   25188   25203  -25221   25200       4
   25188   25203   25221   25239       4   25185   25173   25188   25203       4
   25185   25200  -25221   25203       4   25185   25200   25221   25239       4
   25182   25191   25176   25194       4   25176   25194   25212   25230       8
   25173   25185   25200   25221       4   25173   25188  -25203   25221       4
   25170   25158  -25161   25173       9   25170   25158   25167   25182      10
   25170   25185   25173   25188       4   25170   25185   25200   25221       4
   25167   25155   25164   25176       4   25167   25158   25161   25173      11
   25167   25158   25170   25185      12   25167   25182  -25191   25176       4
   25164   25155   25167   25182       4   25164   25176  -25191   25182       4
   25164   25176   25194   25212       6   25161   25152   25155   25164      13
   25161   25152  -25155   25164      14   25161   25152  -25155   25164      15
   25161   25152  -25155   25167      13   25161   25152  -25155   25167      14
   25161   25152  -25155   25167      15   25161   25152  -25158   25167      16
   25161   25152  -25158   25170      16   25161   25158   25167   25182      17
   25161   25158  -25170   25185      12   25161   25173  -25185   25170       4
   25161   25173   25185   25200       4   25161   25173   25188   25203       4
   25158   25152   25155   25164      18   25158   25152  -25155   25167      18
   25158   25152  -25161   25173      19   25158   25161  -25173   25185      20
   25158   25161   25173   25188      20   25158   25167  -25155   25164       4
   25158   25167   25182   25191       4   25158   25170  -25185   25173      21
   25158   25170   25185   25200      21   25155   25152  -25158   25161      16
   25155   25152  -25158   25167      16   25155   25152   25158   25170      16
   25155   25152  -25161   25158      19   25155   25152   25161   25173      19
   25155   25164   25176   25191       4   25155   25164   25176   25194       4
   25155   25167  -25158   25161      17   25155   25167  -25158   25170      10
   25155   25167  -25182   25191       4   25152   25155   25164   25176       4
   25152   25155  -25167   25158       4   25152   25155   25167   25182       4
   25152   25158  -25161   25173       9   25152   25158  -25167   25155      10
   25152   25158  -25167   25182      10   25152   25158   25170   25185      12
   25152   25161  -25158   25167       9   25152   25161  -25158   25170       9
   25152   25161  -25173   25185      22   25152   25161   25173   25188      22
   25488   25506   25509   25521       3   25470   25488   25506   25509       3
   25449   25470   25488   25506       3   25446   25431   25443   25458       4
   25446   25464  -25479   25458       4   25443   25431   25446   25464       4
   25443   25458  -25479   25464       4   25434   25449   25470   25488       3
   25431   25443   25458   25479       4   25431   25446  -25464   25479       4
   25422   25434   25449   25470       3   25413   25431   25443   25458       4
   25413   25431   25446   25464       4   25404   25422   25434   25449       3
   25395   25413   25431   25443       5   25395   25413   25431   25446       5
   25392   25413   25431   25443       5   25392   25413   25431   25446       5
   25386   25404   25422   25434       3   25383   25368   25386   25404       6
   25380   25365   25377   25392       4   25380   25395  -25413   25392       4
   25380   25395   25413   25431       4   25377   25365   25380   25395       4
   25377   25392  -25413   25395       4   25377   25392   25413   25431       4
   25374   25383   25368   25386       4   25368   25386   25404   25422       8
   25365   25377   25392   25413       4   25365   25380  -25395   25413       4
   25362   25350  -25353   25365       9   25362   25350   25359   25374      10
   25362   25377   25365   25380       4   25362   25377   25392   25413       4
   25359   25347   25356   25368       4   25359   25350   25353   25365      11
   25359   25350   25362   25377      12   25359   25374  -25383   25368       4
   25356   25347   25359   25374       4   25356   25368  -25383   25374       4
   25356   25368   25386   25404       6   25353   25344   25347   25356      13
   25353   25344  -25347   25356      14   25353   25344  -25347   25356      15
   25353   25344  -25347   25359      13   25353   25344  -25347   25359      14
   25353   25344  -25347   25359      15   25353   25344  -25350   25359      16
   25353   25344  -25350   25362      16   25353   25350   25359   25374      17
   25353   25350  -25362   25377      12   25353   25365  -25377   25362       4
   25353   25365   25377   25392       4   25353   25365   25380   25395       4
   25350   25344   25347   25356      18   25350   25344  -25347   25359      18
   25350   25344  -25353   25365      19   25350   25353  -25365   25377      20
   25350   25353   25365   25380      20   25350   25359  -25347   25356       4
   25350   25359   25374   25383       4   25350   25362  -25377   25365      21
   25350   25362   25377   25392      21   25347   25344  -25350   25353      16
   25347   25344  -25350   25359      16   25347   25344   25350   25362      16
   25347   25344  -25353   25350      19   25347   25344   25353   25365      19
   25347   25356   25368   25383       4   25347   25356   25368   25386       4
   25347   25359  -25350   25353      17   25347   25359  -25350   25362      10
   25347   25359  -25374   25383       4   25344   25347   25356   25368       4
   25344   25347  -25359   25350       4   25344   25347   25359   25374       4
   25344   25350  -25353   25365       9   25344   25350  -25359   25347      10
   25344   25350  -25359   25374      10   25344   25350   25362   25377      12
   25344   25353  -25350   25359       9   25344   25353  -25350   25362       9
   25344   25353  -25365   25377      22   25344   25353   25365   25380      22
   25680   25698   25701   25713       3   25662   25680   25698   25701       3
   25641   25662   25680   25698       3   25638   25623   25635   25650       4
   25638   25656  -25671   25650       4   25635   25623   25638   25656       4
   25635   25650  -25671   25656       4   25626   25641   25662   25680       3
   25623   25635   25650   25671       4   25623   25638  -25656   25671       4
   25614   25626   25641   25662       3   25605   25623   25635   25650       4
   25605   25623   25638   25656       4   25596   25614   25626   25641       3
   25587   25605   25623   25635       5   25587   25605   25623   25638       5
   25584   25605   25623   25635       5   25584   25605   25623   25638       5
   25578   25596   25614   25626       3   25575   25560   25578   25596       6
   25572   25557   25569   25584       4   25572   25587  -25605   25584       4
   25572   25587   25605   25623       4   25569   25557   25572   25587       4
   25569   25584  -25605   25587       4   25569   25584   25605   25623       4
   25566   25575   25560   25578       4   25560   25578   25596   25614       8
   25557   25569   25584   25605       4   25557   25572  -25587   25605       4
   25554   25542  -25545   25557       9   25554   25542   25551   25566      10
   25554   25569   25557   25572       4   25554   25569   25584   25605       4
   25551   25539   25548   25560       4   25551   25542   25545   25557      11
   25551   25542   25554   25569      12   25551   25566  -25575   25560       4
   25548   25539   25551   25566       4   25548   25560  -25575   25566       4
   25548   25560   25578   25596       6   25545   25536   25539   25548      13
   25545   25536  -25539   25548      14   25545   25536  -25539   25548      15
   25545   25536  -25539   25551      13   25545   25536  -25539   25551      14
   25545   25536  -25539   25551      15   25545   25536  -25542   25551      16
   25545   25536  -25542   25554      16   25545   25542   25551   25566      17
   25545   25542  -25554   25569      12   25545   25557  -25569   25554       4
   25545   25557   25569   25584       4   25545   25557   25572   25587       4
   25542   25536   25539   25548      18   25542   25536  -25539   25551      18
   25542   25536  -25545   25557      19   25542   25545  -25557   25569      20
   25542   25545   25557   25572      20   25542   25551  -25539   25548       4
   25542   25551   25566   25575       4   25542   25554  -25569   25557      21
   25542   25554   25569   25584      21   25539   25536  -25542   25545      16
   25539   25536  -25542   25551      16   25539   25536   25542   25554      16
   25539   25536  -25545   25542      19   25539   25536   25545   25557      19
   25539   25548   25560   25575       4   25539   25548   25560   25578       4
   25539   25551  -25542   25545      17   25539   25551  -25542   25554      10
   25539   25551  -25566   25575       4   25536   25539   25548   25560       4
   25536   25539  -25551   25542       4   25536   25539   25551   25566       4
   25536   25542  -25545   25557       9   25536   25542  -25551   25539      10
   25536   25542  -25551   25566      10   25536   25542   25554   25569      12
   25536   25545  -25542   25551       9   25536   25545  -25542   25554       9
   25536   25545  -25557   25569      22   25536   25545   25557   25572      22
   25872   25890   25893   25905       3   25854   25872   25890   25893       3
   25833   25854   25872   25890       3   25830   25815   25827   25842       4
   25830   25848  -25863   25842       4   25827   25815   25830   25848       4
   25827   25842  -25863   25848       4   25818   25833   25854   25872       3
   25815   25827   25842   25863       4   25815   25830  -25848   25863       4
   25806   25818   25833   25854       3   25797   25815   25827   25842       4
   25797   25815   25830   25848       4   25788   25806   25818   25833       3
   25779   25797   25815   25827       5   25779   25797   25815   25830       5
   25776   25797   25815   25827       5   25776   25797   25815   25830       5
   25770   25788   25806   25818       3   25767   25752   25770   25788       6
   25764   25749   25761   25776       4   25764   25779  -25797   25776       4
   25764   25779   25797   25815       4   25761   25749   25764   25779       4
   25761   25776  -25797   25779       4   25761   25776   25797   25815       4
   25758   25767   25752   25770       4   25752   25770   25788   25806       8
   25749   25761   25776   25797       4   25749   25764  -25779   25797       4
   25746   25734  -25737   25749       9   25746   25734   25743   25758      10
   25746   25761   25749   25764       4   25746   25761   25776   25797       4
   25743   25731   25740   25752       4   25743   25734   25737   25749      11
   25743   25734   25746   25761      12   25743   25758  -25767   25752       4
   25740   25731   25743   25758       4   25740   25752  -25767   25758       4
   25740   25752   25770   25788       6   25737   25728   25731   25740      13
   25737   25728  -25731   25740      14   25737   25728  -25731   25740      15
   25737   25728  -25731   25743      13   25737   25728  -25731   25743      14
   25737   25728  -25731   25743      15   25737   25728  -25734   25743      16
   25737   25728  -25734   25746      16   25737   25734   25743   25758      17
   25737   25734  -25746   25761      12   25737   25749  -25761   25746       4
   25737   25749   25761   25776       4   25737   25749   25764   25779       4
   25734   25728   25731   25740      18   25734   25728  -25731   25743      18
   25734   25728  -25737   25749      19   25734   25737  -25749   25761      20
   25734   25737   25749   25764      20   25734   25743  -25731   25740       4
   25734   25743   25758   25767       4   25734   25746  -25761   25749      21
   25734   25746   25761   25776      21   25731   25728  -25734   25737      16
   25731   25728  -25734   25743      16   25731   25728   25734   25746      16
   25731   25728  -25737   25734      19   25731   25728   25737   25749      19
   25731   25740   25752   25767       4   25731   25740   25752   25770       4
   25731   25743  -25734   25737      17   25731   25743  -25734   25746      10
   25731   25743  -25758   25767       4   25728   25731   25740   25752       4
   25728   25731  -25743   25734       4   25728   25731   25743   25758       4
   25728   25734  -25737   25749       9   25728   25734  -25743   25731      10
   25728   25734  -25743   25758      10   25728   25734   25746   25761      12
   25728   25737  -25734   25743       9   25728   25737  -25734   25746       9
   25728   25737  -25749   25761      22   25728   25737   25749   25764      22
   26064   26082   26085   26097       3   26046   26064   26082   26085       3
   26025   26046   26064   26082       3   26022   26007   26019   26034       4
   26022   26040  -26055   26034       4   26019   26007   26022   26040       4
   26019   26034  -26055   26040       4   26010   26025   26046   26064       3
   26007   26019   26034   26055       4   26007   26022  -26040   26055       4
   25998   26010   26025   26046       3   25989   26007   26019   26034       4
   25989   26007   26022   26040       4   25980   25998   26010   26025       3
   25971   25989   26007   26019       5   25971   25989   26007   26022       5
   25968   25989   26007   26019       5   25968   25989   26007   26022       5
   25962   25980   25998   26010       3   25959   25944   25962   25980       6
   25956   25941   25953   25968       4   25956   25971  -25989   25968       4
   25956   25971   25989   26007       4   25953   25941   25956   25971       4
   25953   25968  -25989   25971       4   25953   25968   25989   26007       4
   25950   25959   25944   25962       4   25944   25962   25980   25998       8
   25941   25953   25968   25989       4   25941   25956  -25971   25989       4
   25938   25926  -25929   25941       9   25938   25926   25935   25950      10
   25938   25953   25941   25956       4   25938   25953   25968   25989       4
   25935   25923   25932   25944       4   25935   25926   25929   25941      11
   25935   25926   25938   25953      12   25935   25950  -25959   25944       4
   25932   25923   25935   25950       4   25932   25944  -25959   25950       4
   25932   25944   25962   25980       6   25929   25920   25923   25932      13
   25929   25920  -25923   25932      14   25929   25920  -25923   25932      15
   25929   25920  -25923   25935      13   25929   25920  -25923   25935      14
   25929   25920  -25923   25935      15   25929   25920  -25926   25935      16
   25929   25920  -25926   25938      16   25929   25926   25935   25950      17
   25929   25926  -25938   25953      12   25929   25941  -25953   25938       4
   25929   25941   25953   25968       4   25929   25941   25956   25971       4
   25926   25920   25923   25932      18   25926   25920  -25923   25935      18
   25926   25920  -25929   25941      19   25926   25929  -25941   25953      20
   25926   25929   25941   25956      20   25926   25935  -25923   25932       4
   25926   25935   25950   25959       4   25926   25938  -25953   25941      21
   25926   25938   25953   25968      21   25923   25920  -25926   25929      16
   25923   25920  -25926   25935      16   25923   25920   25926   25938      16
   25923   25920  -25929   25926      19   25923   25920   25929   25941      19
   25923   25932   25944   25959       4   25923   25932   25944   25962       4
   25923   25935  -25926   25929      17   25923   25935  -25926   25938      10
   25923   25935  -25950   25959       4   25920   25923   25932   25944       4
   25920   25923  -25935   25926       4   25920   25923   25935   25950       4
   25920   25926  -25929   25941       9   25920   25926  -25935   25923      10
   25920   25926  -25935   25950      10   25920   25926   25938   25953      12
   25920   25929  -25926   25935       9   25920   25929  -25926   25938       9
   25920   25929  -25941   25953      22   25920   25929   25941   25956      22
   26256   26274   26277   26289       3   26238   26256   26274   26277       3
   26217   26238   26256   26274       3   26214   26199   26211   26226       4
   26214   26232  -26247   26226       4   26211   26199   26214   26232       4
   26211   26226  -26247   26232       4   26202   26217   26238   26256       3
   26199   26211   26226   26247       4   26199   26214  -26232   26247       4
   26190   26202   26217   26238       3   26181   26199   26211   26226       4
   26181   26199   26214   26232       4   26172   26190   26202   26217       3
   26163   26181   26199   26211       5   26163   26181   26199   26214       5
   26160   26181   26199   26211       5   26160   26181   26199   26214       5
   26154   26172   26190   26202       3   26151   26136   26154   26172       6
   26148   26133   26145   26160       4   26148   26163  -26181   26160       4
   26148   26163   26181   26199       4   26145   26133   26148   26163       4
   26145   26160  -26181   26163       4   26145   26160   26181   26199       4
   26142   26151   26136   26154       4   26136   26154   26172   26190       8
   26133   26145   26160   26181       4   26133   26148  -26163   26181       4
   26130   26118  -26121   26133       9   26130   26118   26127   26142      10
   26130   26145   26133   26148       4   26130   26145   26160   26181       4
   26127   26115   26124   26136       4   26127   26118   26121   26133      11
   26127   26118   26130   26145      12   26127   26142  -26151   26136       4
   26124   26115   26127   26142       4   26124   26136  -26151   26142       4
   26124   26136   26154   26172       6   26121   26112   26115   26124      13
   26121   26112  -26115   26124      14   26121   26112  -26115   26124      15
   26121   26112  -26115   26127      13   26121   26112  -26115   26127      14
   26121   26112  -26115   26127      15   26121   26112  -26118   26127      16
   26121   26112  -26118   26130      16   26121   26118   26127   26142      17
   26121   26118  -26130   26145      12   26121   26133  -26145   26130       4
   26121   26133   26145   26160       4   26121   26133   26148   26163       4
   26118   26112   26115   26124      18   26118   26112  -26115   26127      18
   26118   26112  -26121   26133      19   26118   26121  -26133   26145      20
   26118   26121   26133   26148      20   26118   26127  -26115   26124       4
   26118   26127   26142   26151       4   26118   26130  -26145   26133      21
   26118   26130   26145   26160      21   26115   26112  -26118   26121      16
   26115   26112  -26118   26127      16   26115   26112   26118   26130      16
   26115   26112  -26121   26118      19   26115   26112   26121   26133      19
   26115   26124   26136   26151       4   26115   26124   26136   26154       4
   26115   26127  -26118   26121      17   26115   26127  -26118   26130      10
   26115   26127  -26142   26151       4   26112   26115   26124   26136       4
   26112   26115  -26127   26118       4   26112   26115   26127   26142       4
   26112   26118  -26121   26133       9   26112   26118  -26127   26115      10
   26112   26118  -26127   26142      10   26112   26118   26130   26145      12
   26112   26121  -26118   26127       9   26112   26121  -26118   26130       9
   26112   26121  -26133   26145      22   26112   26121   26133   26148      22
   26448   26466   26469   26481       3   26430   26448   26466   26469       3
   26409   26430   26448   26466       3   26406   26391   26403   26418       4
   26406   26424  -26439   26418       4   26403   26391   26406   26424       4
   26403   26418  -26439   26424       4   26394   26409   26430   26448       3
   26391   26403   26418   26439       4   26391   26406  -26424   26439       4
   26382   26394   26409   26430       3   26373   26391   26403   26418       4
   26373   26391   26406   26424       4   26364   26382   26394   26409       3
   26355   26373   26391   26403       5   26355   26373   26391   26406       5
   26352   26373   26391   26403       5   26352   26373   26391   26406       5
   26346   26364   26382   26394       3   26343   26328   26346   26364       6
   26340   26325   26337   26352       4   26340   26355  -26373   26352       4
   26340   26355   26373   26391       4   26337   26325   26340   26355       4
   26337   26352  -26373   26355       4   26337   26352   26373   26391       4
   26334   26343   26328   26346       4   26328   26346   26364   26382       8
   26325   26337   26352   26373       4   26325   26340  -26355   26373       4
   26322   26310  -26313   26325       9   26322   26310   26319   26334      10
   26322   26337   26325   26340       4   26322   26337   26352   26373       4
   26319   26307   26316   26328       4   26319   26310   26313   26325      11
   26319   26310   26322   26337      12   26319   26334  -26343   26328       4
   26316   26307   26319   26334       4   26316   26328  -26343   26334       4
   26316   26328   26346   26364       6   26313   26304   26307   26316      13
   26313   26304  -26307   26316      14   26313   26304  -26307   26316      15
   26313   26304  -26307   26319      13   26313   26304  -26307   26319      14
   26313   26304  -26307   26319      15   26313   26304  -26310   26319      16
   26313   26304  -26310   26322      16   26313   26310   26319   26334      17
   26313   26310  -26322   26337      12   26313   26325  -26337   26322       4
   26313   26325   26337   26352       4   26313   26325   26340   26355       4
   26310   26304   26307   26316      18   26310   26304  -26307   26319      18
   26310   26304  -26313   26325      19   26310   26313  -26325   26337      20
   26310   26313   26325   26340      20   26310   26319  -26307   26316       4
   26310   26319   26334   26343       4   26310   26322  -26337   26325      21
   26310   26322   26337   26352      21   26307   26304  -26310   26313      16
   26307   26304  -26310   26319      16   26307   26304   26310   26322      16
   26307   26304  -26313   26310      19   26307   26304   26313   26325      19
   26307   26316   26328   26343       4   26307   26316   26328   26346       4
   26307   26319  -26310   26313      17   26307   26319  -26310   26322      10
   26307   26319  -26334   26343       4   26304   26307   26316   26328       4
   26304   26307  -26319   26310       4   26304   26307   26319   26334       4
   26304   26310  -26313   26325       9   26304   26310  -26319   26307      10
   26304   26310  -26319   26334      10   26304   26310   26322   26337      12
   26304   26313  -26310   26319       9   26304   26313  -26310   26322       9
   26304   26313  -26325   26337      22   26304   26313   26325   26340      22
   26640   26658   26661   26673       3   26622   26640   26658   26661       3
   26601   26622   26640   26658       3   26598   26583   26595   26610       4
   26598   26616  -26631   26610       4   26595   26583   26598   26616       4
   26595   26610  -26631   26616       4   26586   26601   26622   26640       3
   26583   26595   26610   26631       4   26583   26598  -26616   26631       4
   26574   26586   26601   26622       3   26565   26583   26595   26610       4
   26565   26583   26598   26616       4   26556   26574   26586   26601       3
   26547   26565   26583   26595       5   26547   26565   26583   26598       5
   26544   26565   26583   26595       5   26544   26565   26583   26598       5
   26538   26556   26574   26586       3   26535   26520   26538   26556       6
   26532   26517   26529   26544       4   26532   26547  -26565   26544       4
   26532   26547   26565   26583       4   26529   26517   26532   26547       4
   26529   26544  -26565   26547       4   26529   26544   26565   26583       4
   26526   26535   26520   26538       4   26520   26538   26556   26574       8
   26517   26529   26544   26565       4   26517   26532  -26547   26565       4
   26514   26502  -26505   26517       9   26514   26502   26511   26526      10
   26514   26529   26517   26532       4   26514   26529   26544   26565       4
   26511   26499   26508   26520       4   26511   26502   26505   26517      11
   26511   26502   26514   26529      12   26511   26526  -26535   26520       4
   26508   26499   26511   26526       4   26508   26520  -26535   26526       4
   26508   26520   26538   26556       6   26505   26496   26499   26508      13
   26505   26496  -26499   26508      14   26505   26496  -26499   26508      15
   26505   26496  -26499   26511      13   26505   26496  -26499   26511      14
   26505   26496  -26499   26511      15   26505   26496  -26502   26511      16
   26505   26496  -26502   26514      16   26505   26502   26511   26526      17
   26505   26502  -26514   26529      12   26505   26517  -26529   26514       4
   26505   26517   26529   26544       4   26505   26517   26532   26547       4
   26502   26496   26499   26508      18   26502   26496  -26499   26511      18
   26502   26496  -26505   26517      19   26502   26505  -26517   26529      20
   26502   26505   26517   26532      20   26502   26511  -26499   26508       4
   26502   26511   26526   26535       4   26502   26514  -26529   26517      21
   26502   26514   26529   26544      21   26499   26496  -26502   26505      16
   26499   26496  -26502   26511      16   26499   26496   26502   26514      16
   26499   26496  -26505   26502      19   26499   26496   26505   26517      19
   26499   26508   26520   26535       4   26499   26508   26520   26538       4
   26499   26511  -26502   26505      17   26499   26511  -26502   26514      10
   26499   26511  -26526   26535       4   26496   26499   26508   26520       4
   26496   26499  -26511   26502       4   26496   26499   26511   26526       4
   26496   26502  -26505   26517       9   26496   26502  -26511   26499      10
   26496   26502  -26511   26526      10   26496   26502   26514   26529      12
   26496   26505  -26502   26511       9   26496   26505  -26502   26514       9
   26496   26505  -26517   26529      22   26496   26505   26517   26532      22
   26832   26850   26853   26865       3   26814   26832   26850   26853       3
   26793   26814   26832   26850       3   26790   26775   26787   26802       4
   26790   26808  -26823   26802       4   26787   26775   26790   26808       4
   26787   26802  -26823   26808       4   26778   26793   26814   26832       3
   26775   26787   26802   26823       4   26775   26790  -26808   26823       4
   26766   26778   26793   26814       3   26757   26775   26787   26802       4
   26757   26775   26790   26808       4   26748   26766   26778   26793       3
   26739   26757   26775   26787       5   26739   26757   26775   26790       5
   26736   26757   26775   26787       5   26736   26757   26775   26790       5
   26730   26748   26766   26778       3   26727   26712   26730   26748       6
   26724   26709   26721   26736       4   26724   26739  -26757   26736       4
   26724   26739   26757   26775       4   26721   26709   26724   26739       4
   26721   26736  -26757   26739       4   26721   26736   26757   26775       4
   26718   26727   26712   26730       4   26712   26730   26748   26766       8
   26709   26721   26736   26757       4   26709   26724  -26739   26757       4
   26706   26694  -26697   26709       9   26706   26694   26703   26718      10
   26706   26721   26709   26724       4   26706   26721   26736   26757       4
   26703   26691   26700   26712       4   26703   26694   26697   26709      11
   26703   26694   26706   26721      12   26703   26718  -26727   26712       4
   26700   26691   26703   26718       4   26700   26712  -26727   26718       4
   26700   26712   26730   26748       6   26697   26688   26691   26700      13
   26697   26688  -26691   26700      14   26697   26688  -26691   26700      15
   26697   26688  -26691   26703      13   26697   26688  -26691   26703      14
   26697   26688  -26691   26703      15   26697   26688  -26694   26703      16
   26697   26688  -26694   26706      16   26697   26694   26703   26718      17
   26697   26694  -26706   26721      12   26697   26709  -26721   26706       4
   26697   26709   26721   26736       4   26697   26709   26724   26739       4
   26694   26688   26691   26700      18   26694   26688  -26691   26703      18
   26694   26688  -26697   26709      19   26694   26697  -26709   26721      20
   26694   26697   26709   26724      20   26694   26703  -26691   26700       4
   26694   26703   26718   26727       4   26694   26706  -26721   26709      21
   26694   26706   26721   26736      21   26691   26688  -26694   26697      16
   26691   26688  -26694   26703      16   26691   26688   26694   26706      16
   26691   26688  -26697   26694      19   26691   26688   26697   26709      19
   26691   26700   26712   26727       4   26691   26700   26712   26730       4
   26691   26703  -26694   26697      17   26691   26703  -26694   26706      10
   26691   26703  -26718   26727       4   26688   26691   26700   26712       4
   26688   26691  -26703   26694       4   26688   26691   26703   26718       4
   26688   26694  -26697   26709       9   26688   26694  -26703   26691      10
   26688   26694  -26703   26718      10   26688   26694   26706   26721      12
   26688   26697  -26694   26703       9   26688   26697  -26694   26706       9
   26688   26697  -26709   26721      22   26688   26697   26709   26724      22
   27024   27042   27045   27057       3   27006   27024   27042   27045       3
   26985   27006   27024   27042       3   26982   26967   26979   26994       4
   26982   27000  -27015   26994       4   26979   26967   26982   27000       4
   26979   26994  -27015   27000       4   26970   26985   27006   27024       3
   26967   26979   26994   27015       4   26967   26982  -27000   27015       4
   26958   26970   26985   27006       3   26949   26967   26979   26994       4
   26949   26967   26982   27000       4   26940   26958   26970   26985       3
   26931   26949   26967   26979       5   26931   26949   26967   26982       5
   26928   26949   26967   26979       5   26928   26949   26967   26982       5
   26922   26940   26958   26970       3   26919   26904   26922   26940       6
   26916   26901   26913   26928       4   26916   26931  -26949   26928       4
   26916   26931   26949   26967       4   26913   26901   26916   26931       4
   26913   26928  -26949   26931       4   26913   26928   26949   26967       4
   26910   26919   26904   26922       4   26904   26922   26940   26958       8
   26901   26913   26928   26949       4   26901   26916  -26931   26949       4
   26898   26886  -26889   26901       9   26898   26886   26895   26910      10
   26898   26913   26901   26916       4   26898   26913   26928   26949       4
   26895   26883   26892   26904       4   26895   26886   26889   26901      11
   26895   26886   26898   26913      12   26895   26910  -26919   26904       4
   26892   26883   26895   26910       4   26892   26904  -26919   26910       4
   26892   26904   26922   26940       6   26889   26880   26883   26892      13
   26889   26880  -26883   26892      14   26889   26880  -26883   26892      15
   26889   26880  -26883   26895      13   26889   26880  -26883   26895      14
   26889   26880  -26883   26895      15   26889   26880  -26886   26895      16
   26889   26880  -26886   26898      16   26889   26886   26895   26910      17
   26889   26886  -26898   26913      12   26889   26901  -26913   26898       4
   26889   26901   26913   26928       4   26889   26901   26916   26931       4
   26886   26880   26883   26892      18   26886   26880  -26883   26895      18
   26886   26880  -26889   26901      19   26886   26889  -26901   26913      20
   26886   26889   26901   26916      20   26886   26895  -26883   26892       4
   26886   26895   26910   26919       4   26886   26898  -26913   26901      21
   26886   26898   26913   26928      21   26883   26880  -26886   26889      16
   26883   26880  -26886   26895      16   26883   26880   26886   26898      16
   26883   26880  -26889   26886      19   26883   26880   26889   26901      19
   26883   26892   26904   26919       4   26883   26892   26904   26922       4
   26883   26895  -26886   26889      17   26883   26895  -26886   26898      10
   26883   26895  -26910   26919       4   26880   26883   26892   26904       4
   26880   26883  -26895   26886       4   26880   26883   26895   26910       4
   26880   26886  -26889   26901       9   26880   26886  -26895   26883      10
   26880   26886  -26895   26910      10   26880   26886   26898   26913      12
   26880   26889  -26886   26895       9   26880   26889  -26886   26898       9
   26880   26889  -26901   26913      22   26880   26889   26901   26916      22
   27216   27234   27237   27249       3   27198   27216   27234   27237       3
   27177   27198   27216   27234       3   27174   27159   27171   27186       4
   27174   27192  -27207   27186       4   27171   27159   27174   27192       4
   27171   27186  -27207   27192       4   27162   27177   27198   27216       3
   27159   27171   27186   27207       4   27159   27174  -27192   27207       4
   27150   27162   27177   27198       3   27141   27159   27171   27186       4
   27141   27159   27174   27192       4   27132   27150   27162   27177       3
   27123   27141   27159   27171       5   27123   27141   27159   27174       5
   27120   27141   27159   27171       5   27120   27141   27159   27174       5
   27114   27132   27150   27162       3   27111   27096   27114   27132       6
   27108   27093   27105   27120       4   27108   27123  -27141   27120       4
   27108   27123   27141   27159       4   27105   27093   27108   27123       4
   27105   27120  -27141   27123       4   27105   27120   27141   27159       4
   27102   27111   27096   27114       4   27096   27114   27132   27150       8
   27093   27105   27120   27141       4   27093   27108  -27123   27141       4
   27090   27078  -27081   27093       9   27090   27078   27087   27102      10
   27090   27105   27093   27108       4   27090   27105   27120   27141       4
   27087   27075   27084   27096       4   27087   27078   27081   27093      11
   27087   27078   27090   27105      12   27087   27102  -27111   27096       4
   27084   27075   27087   27102       4   27084   27096  -27111   27102       4
   27084   27096   27114   27132       6   27081   27072   27075   27084      13
   27081   27072  -27075   27084      14   27081   27072  -27075   27084      15
   27081   27072  -27075   27087      13   27081   27072  -27075   27087      14
   27081   27072  -27075   27087      15   27081   27072  -27078   27087      16
   27081   27072  -27078   27090      16   27081   27078   27087   27102      17
   27081   27078  -27090   27105      12   27081   27093  -27105   27090       4
   27081   27093   27105   27120       4   27081   27093   27108   27123       4
   27078   27072   27075   27084      18   27078   27072  -27075   27087      18
   27078   27072  -27081   27093      19   27078   27081  -27093   27105      20
   27078   27081   27093   27108      20   27078   27087  -27075   27084       4
   27078   27087   27102   27111       4   27078   27090  -27105   27093      21
   27078   27090   27105   27120      21   27075   27072  -27078   27081      16
   27075   27072  -27078   27087      16   27075   27072   27078   27090      16
   27075   27072  -27081   27078      19   27075   27072   27081   27093      19
   27075   27084   27096   27111       4   27075   27084   27096   27114       4
   27075   27087  -27078   27081      17   27075   27087  -27078   27090      10
   27075   27087  -27102   27111       4   27072   27075   27084   27096       4
   27072   27075  -27087   27078       4   27072   27075   27087   27102       4
   27072   27078  -27081   27093       9   27072   27078  -27087   27075      10
   27072   27078  -27087   27102      10   27072   27078   27090   27105      12
   27072   27081  -27078   27087       9   27072   27081  -27078   27090       9
   27072   27081  -27093   27105      22   27072   27081   27093   27108      22
   27408   27426   27429   27441       3   27390   27408   27426   27429       3
   27369   27390   27408   27426       3   27366   27351   27363   27378       4
   27366   27384  -27399   27378       4   27363   27351   27366   27384       4
   27363   27378  -27399   27384       4   27354   27369   27390   27408       3
   27351   27363   27378   27399       4   27351   27366  -27384   27399       4
   27342   27354   27369   27390       3   27333   27351   27363   27378       4
   27333   27351   27366   27384       4   27324   27342   27354   27369       3
   27315   27333   27351   27363       5   27315   27333   27351   27366       5
   27312   27333   27351   27363       5   27312   27333   27351   27366       5
   27306   27324   27342   27354       3   27303   27288   27306   27324       6
   27300   27285   27297   27312       4   27300   27315  -27333   27312       4
   27300   27315   27333   27351       4   27297   27285   27300   27315       4
   27297   27312  -27333   27315       4   27297   27312   27333   27351       4
   27294   27303   27288   27306       4   27288   27306   27324   27342       8
   27285   27297   27312   27333       4   27285   27300  -27315   27333       4
   27282   27270  -27273   27285       9   27282   27270   27279   27294      10
   27282   27297   27285   27300       4   27282   27297   27312   27333       4
   27279   27267   27276   27288       4   27279   27270   27273   27285      11
   27279   27270   27282   27297      12   27279   27294  -27303   27288       4
   27276   27267   27279   27294       4   27276   27288  -27303   27294       4
   27276   27288   27306   27324       6   27273   27264   27267   27276      13
   27273   27264  -27267   27276      14   27273   27264  -27267   27276      15
   27273   27264  -27267   27279      13   27273   27264  -27267   27279      14
   27273   27264  -27267   27279      15   27273   27264  -27270   27279      16
   27273   27264  -27270   27282      16   27273   27270   27279   27294      17
   27273   27270  -27282   27297      12   27273   27285  -27297   27282       4
   27273   27285   27297   27312       4   27273   27285   27300   27315       4
   27270   27264   27267   27276      18   27270   27264  -27267   27279      18
   27270   27264  -27273   27285      19   27270   27273  -27285   27297      20
   27270   27273   27285   27300      20   27270   27279  -27267   27276       4
   27270   27279   27294   27303       4   27270   27282  -27297   27285      21
   27270   27282   27297   27312      21   27267   27264  -27270   27273      16
   27267   27264  -27270   27279      16   27267   27264   27270   27282      16
   27267   27264  -27273   27270      19   27267   27264   27273   27285      19
   27267   27276   27288   27303       4   27267   27276   27288   27306       4
   27267   27279  -27270   27273      17   27267   27279  -27270   27282      10
   27267   27279  -27294   27303       4   27264   27267   27276   27288       4
   27264   27267  -27279   27270       4   27264   27267   27279   27294       4
   27264   27270  -27273   27285       9   27264   27270  -27279   27267      10
   27264   27270  -27279   27294      10   27264   27270   27282   27297      12
   27264   27273  -27270   27279       9   27264   27273  -27270   27282       9
   27264   27273  -27285   27297      22   27264   27273   27285   27300      22
   27600   27618   27621   27633       3   27582   27600   27618   27621       3
   27561   27582   27600   27618       3   27558   27543   27555   27570       4
   27558   27576  -27591   27570       4   27555   27543   27558   27576       4
   27555   27570  -27591   27576       4   27546   27561   27582   27600       3
   27543   27555   27570   27591       4   27543   27558  -27576   27591       4
   27534   27546   27561   27582       3   27525   27543   27555   27570       4
   27525   27543   27558   27576       4   27516   27534   27546   27561       3
   27507   27525   27543   27555       5   27507   27525   27543   27558       5
   27504   27525   27543   27555       5   27504   27525   27543   27558       5
   27498   27516   27534   27546       3   27495   27480   27498   27516       6
   27492   27477   27489   27504       4   27492   27507  -27525   27504       4
   27492   27507   27525   27543       4   27489   27477   27492   27507       4
   27489   27504  -27525   27507       4   27489   27504   27525   27543       4
   27486   27495   27480   27498       4   27480   27498   27516   27534       8
   27477   27489   27504   27525       4   27477   27492  -27507   27525       4
   27474   27462  -27465   27477       9   27474   27462   27471   27486      10
   27474   27489   27477   27492       4   27474   27489   27504   27525       4
   27471   27459   27468   27480       4   27471   27462   27465   27477      11
   27471   27462   27474   27489      12   27471   27486  -27495   27480       4
   27468   27459   27471   27486       4   27468   27480  -27495   27486       4
   27468   27480   27498   27516       6   27465   27456   27459   27468      13
   27465   27456  -27459   27468      14   27465   27456  -27459   27468      15
   27465   27456  -27459   27471      13   27465   27456  -27459   27471      14
   27465   27456  -27459   27471      15   27465   27456  -27462   27471      16
   27465   27456  -27462   27474      16   27465   27462   27471   27486      17
   27465   27462  -27474   27489      12   27465   27477  -27489   27474       4
   27465   27477   27489   27504       4   27465   27477   27492   27507       4
   27462   27456   27459   27468      18   27462   27456  -27459   27471      18
   27462   27456  -27465   27477      19   27462   27465  -27477   27489      20
   27462   27465   27477   27492      20   27462   27471  -27459   27468       4
   27462   27471   27486   27495       4   27462   27474  -27489   27477      21
   27462   27474   27489   27504      21   27459   27456  -27462   27465      16
   27459   27456  -27462   27471      16   27459   27456   27462   27474      16
   27459   27456  -27465   27462      19   27459   27456   27465   27477      19
   27459   27468   27480   27495       4   27459   27468   27480   27498       4
   27459   27471  -27462   27465      17   27459   27471  -27462   27474      10
   27459   27471  -27486   27495       4   27456   27459   27468   27480       4
   27456   27459  -27471   27462       4   27456   27459   27471   27486       4
   27456   27462  -27465   27477       9   27456   27462  -27471   27459      10
   27456   27462  -27471   27486      10   27456   27462   27474   27489      12
   27456   27465  -27462   27471       9   27456   27465  -27462   27474       9
   27456   27465  -27477   27489      22   27456   27465   27477   27492      22
   27792   27810   27813   27825       3   27774   27792   27810   27813       3
   27753   27774   27792   27810       3   27750   27735   27747   27762       4
   27750   27768  -27783   27762       4   27747   27735   27750   27768       4
   27747   27762  -27783   27768       4   27738   27753   27774   27792       3
   27735   27747   27762   27783       4   27735   27750  -27768   27783       4
   27726   27738   27753   27774       3   27717   27735   27747   27762       4
   27717   27735   27750   27768       4   27708   27726   27738   27753       3
   27699   27717   27735   27747       5   27699   27717   27735   27750       5
   27696   27717   27735   27747       5   27696   27717   27735   27750       5
   27690   27708   27726   27738       3   27687   27672   27690   27708       6
   27684   27669   27681   27696       4   27684   27699  -27717   27696       4
   27684   27699   27717   27735       4   27681   27669   27684   27699       4
   27681   27696  -27717   27699       4   27681   27696   27717   27735       4
   27678   27687   27672   27690       4   27672   27690   27708   27726       8
   27669   27681   27696   27717       4   27669   27684  -27699   27717       4
   27666   27654  -27657   27669       9   27666   27654   27663   27678      10
   27666   27681   27669   27684       4   27666   27681   27696   27717       4
   27663   27651   27660   27672       4   27663   27654   27657   27669      11
   27663   27654   27666   27681      12   27663   27678  -27687   27672       4
   27660   27651   27663   27678       4   27660   27672  -27687   27678       4
   27660   27672   27690   27708       6   27657   27648   27651   27660      13
   27657   27648  -27651   27660      14   27657   27648  -27651   27660      15
   27657   27648  -27651   27663      13   27657   27648  -27651   27663      14
   27657   27648  -27651   27663      15   27657   27648  -27654   27663      16
   27657   27648  -27654   27666      16   27657   27654   27663   27678      17
   27657   27654  -27666   27681      12   27657   27669  -27681   27666       4
   27657   27669   27681   27696       4   27657   27669   27684   27699       4
   27654   27648   27651   27660      18   27654   27648  -27651   27663      18
   27654   27648  -27657   27669      19   27654   27657  -27669   27681      20
   27654   27657   27669   27684      20   27654   27663  -27651   27660       4
   27654   27663   27678   27687       4   27654   27666  -27681   27669      21
   27654   27666   27681   27696      21   27651   27648  -27654   27657      16
   27651   27648  -27654   27663      16   27651   27648   27654   27666      16
   27651   27648  -27657   27654      19   27651   27648   27657   27669      19
   27651   27660   27672   27687       4   27651   27660   27672   27690       4
   27651   27663  -27654   27657      17   27651   27663  -27654   27666      10
   27651   27663  -27678   27687       4   27648   27651   27660   27672       4
   27648   27651  -27663   27654       4   27648   27651   27663   27678       4
   27648   27654  -27657   27669       9   27648   27654  -27663   27651      10
   27648   27654  -27663   27678      10   27648   27654   27666   27681      12
   27648   27657  -27654   27663       9   27648   27657  -27654   27666       9
   27648   27657  -27669   27681      22   27648   27657   27669   27684      22
   27984   28002   28005   28017       3   27966   27984   28002   28005       3
   27945   27966   27984   28002       3   27942   27927   27939   27954       4
   27942   27960  -27975   27954       4   27939   27927   27942   27960       4
   27939   27954  -27975   27960       4   27930   27945   27966   27984       3
   27927   27939   27954   27975       4   27927   27942  -27960   27975       4
   27918   27930   27945   27966       3   27909   27927   27939   27954       4
   27909   27927   27942   27960       4   27900   27918   27930   27945       3
   27891   27909   27927   27939       5   27891   27909   27927   27942       5
   27888   27909   27927   27939       5   27888   27909   27927   27942       5
   27882   27900   27918   27930       3   27879   27864   27882   27900       6
   27876   27861   27873   27888       4   27876   27891  -27909   27888       4
   27876   27891   27909   27927       4   27873   27861   27876   27891       4
   27873   27888  -27909   27891       4   27873   27888   27909   27927       4
   27870   27879   27864   27882       4   27864   27882   27900   27918       8
   27861   27873   27888   27909       4   27861   27876  -27891   27909       4
   27858   27846  -27849   27861       9   27858   27846   27855   27870      10
   27858   27873   27861   27876       4   27858   27873   27888   27909       4
   27855   27843   27852   27864       4   27855   27846   27849   27861      11
   27855   27846   27858   27873      12   27855   27870  -27879   27864       4
   27852   27843   27855   27870       4   27852   27864  -27879   27870       4
   27852   27864   27882   27900       6   27849   27840   27843   27852      13
   27849   27840  -27843   27852      14   27849   27840  -27843   27852      15
   27849   27840  -27843   27855      13   27849   27840  -27843   27855      14
   27849   27840  -27843   27855      15   27849   27840  -27846   27855      16
   27849   27840  -27846   27858      16   27849   27846   27855   27870      17
   27849   27846  -27858   27873      12   27849   27861  -27873   27858       4
   27849   27861   27873   27888       4   27849   27861   27876   27891       4
   27846   27840   27843   27852      18   27846   27840  -27843   27855      18
   27846   27840  -27849   27861      19   27846   27849  -27861   27873      20
   27846   27849   27861   27876      20   27846   27855  -27843   27852       4
   27846   27855   27870   27879       4   27846   27858  -27873   27861      21
   27846   27858   27873   27888      21   27843   27840  -27846   27849      16
   27843   27840  -27846   27855      16   27843   27840   27846   27858      16
   27843   27840  -27849   27846      19   27843   27840   27849   27861      19
   27843   27852   27864   27879       4   27843   27852   27864   27882       4
   27843   27855  -27846   27849      17   27843   27855  -27846   27858      10
   27843   27855  -27870   27879       4   27840   27843   27852   27864       4
   27840   27843  -27855   27846       4   27840   27843   27855   27870       4
   27840   27846  -27849   27861       9   27840   27846  -27855   27843      10
   27840   27846  -27855   27870      10   27840   27846   27858   27873      12
   27840   27849  -27846   27855       9   27840   27849  -27846   27858       9
   27840   27849  -27861   27873      22   27840   27849   27861   27876      22
   28176   28194   28197   28209       3   28158   28176   28194   28197       3
   28137   28158   28176   28194       3   28134   28119   28131   28146       4
   28134   28152  -28167   28146       4   28131   28119   28134   28152       4
   28131   28146  -28167   28152       4   28122   28137   28158   28176       3
   28119   28131   28146   28167       4   28119   28134  -28152   28167       4
   28110   28122   28137   28158       3   28101   28119   28131   28146       4
   28101   28119   28134   28152       4   28092   28110   28122   28137       3
   28083   28101   28119   28131       5   28083   28101   28119   28134       5
   28080   28101   28119   28131       5   28080   28101   28119   28134       5
   28074   28092   28110   28122       3   28071   28056   28074   28092       6
   28068   28053   28065   28080       4   28068   28083  -28101   28080       4
   28068   28083   28101   28119       4   28065   28053   28068   28083       4
   28065   28080  -28101   28083       4   28065   28080   28101   28119       4
   28062   28071   28056   28074       4   28056   28074   28092   28110       8
   28053   28065   28080   28101       4   28053   28068  -28083   28101       4
   28050   28038  -28041   28053       9   28050   28038   28047   28062      10
   28050   28065   28053   28068       4   28050   28065   28080   28101       4
   28047   28035   28044   28056       4   28047   28038   28041   28053      11
   28047   28038   28050   28065      12   28047   28062  -28071   28056       4
   28044   28035   28047   28062       4   28044   28056  -28071   28062       4
   28044   28056   28074   28092       6   28041   28032   28035   28044      13
   28041   28032  -28035   28044      14   28041   28032  -28035   28044      15
   28041   28032  -28035   28047      13   28041   28032  -28035   28047      14
   28041   28032  -28035   28047      15   28041   28032  -28038   28047      16
   28041   28032  -28038   28050      16   28041   28038   28047   28062      17
   28041   28038  -28050   28065      12   28041   28053  -28065   28050       4
   28041   28053   28065   28080       4   28041   28053   28068   28083       4
   28038   28032   28035   28044      18   28038   28032  -28035   28047      18
   28038   28032  -28041   28053      19   28038   28041  -28053   28065      20
   28038   28041   28053   28068      20   28038   28047  -28035   28044       4
   28038   28047   28062   28071       4   28038   28050  -28065   28053      21
   28038   28050   28065   28080      21   28035   28032  -28038   28041      16
   28035   28032  -28038   28047      16   28035   28032   28038   28050      16
   28035   28032  -28041   28038      19   28035   28032   28041   28053      19
   28035   28044   28056   28071       4   28035   28044   28056   28074       4
   28035   28047  -28038   28041      17   28035   28047  -28038   28050      10
   28035   28047  -28062   28071       4   28032   28035   28044   28056       4
   28032   28035  -28047   28038       4   28032   28035   28047   28062       4
   28032   28038  -28041   28053       9   28032   28038  -28047   28035      10
   28032   28038  -28047   28062      10   28032   28038   28050   28065      12
   28032   28041  -28038   28047       9   28032   28041  -28038   28050       9
   28032   28041  -28053   28065      22   28032   28041   28053   28068      22
   28368   28386   28389   28401       3   28350   28368   28386   28389       3
   28329   28350   28368   28386       3   28326   28311   28323   28338       4
   28326   28344  -28359   28338       4   28323   28311   28326   28344       4
   28323   28338  -28359   28344       4   28314   28329   28350   28368       3
   28311   28323   28338   28359       4   28311   28326  -28344   28359       4
   28302   28314   28329   28350       3   28293   28311   28323   28338       4
   28293   28311   28326   28344       4   28284   28302   28314   28329       3
   28275   28293   28311   28323       5   28275   28293   28311   28326       5
   28272   28293   28311   28323       5   28272   28293   28311   28326       5
   28266   28284   28302   28314       3   28263   28248   28266   28284       6
   28260   28245   28257   28272       4   28260   28275  -28293   28272       4
   28260   28275   28293   28311       4   28257   28245   28260   28275       4
   28257   28272  -28293   28275       4   28257   28272   28293   28311       4
   28254   28263   28248   28266       4   28248   28266   28284   28302       8
   28245   28257   28272   28293       4   28245   28260  -28275   28293       4
   28242   28230  -28233   28245       9   28242   28230   28239   28254      10
   28242   28257   28245   28260       4   28242   28257   28272   28293       4
   28239   28227   28236   28248       4   28239   28230   28233   28245      11
   28239   28230   28242   28257      12   28239   28254  -28263   28248       4
   28236   28227   28239   28254       4   28236   28248  -28263   28254       4
   28236   28248   28266   28284       6   28233   28224   28227   28236      13
   28233   28224  -28227   28236      14   28233   28224  -28227   28236      15
   28233   28224  -28227   28239      13   28233   28224  -28227   28239      14
   28233   28224  -28227   28239      15   28233   28224  -28230   28239      16
   28233   28224  -28230   28242      16   28233   28230   28239   28254      17
   28233   28230  -28242   28257      12   28233   28245  -28257   28242       4
   28233   28245   28257   28272       4   28233   28245   28260   28275       4
   28230   28224   28227   28236      18   28230   28224  -28227   28239      18
   28230   28224  -28233   28245      19   28230   28233  -28245   28257      20
   28230   28233   28245   28260      20   28230   28239  -28227   28236       4
   28230   28239   28254   28263       4   28230   28242  -28257   28245      21
   28230   28242   28257   28272      21   28227   28224  -28230   28233      16
   28227   28224  -28230   28239      16   28227   28224   28230   28242      16
   28227   28224  -28233   28230      19   28227   28224   28233   28245      19
   28227   28236   28248   28263       4   28227   28236   28248   28266       4
   28227   28239  -28230   28233      17   28227   28239  -28230   28242      10
   28227   28239  -28254   28263       4   28224   28227   28236   28248       4
   28224   28227  -28239   28230       4   28224   28227   28239   28254       4
   28224   28230  -28233   28245       9   28224   28230  -28239   28227      10
   28224   28230  -28239   28254      10   28224   28230   28242   28257      12
   28224   28233  -28230   28239       9   28224   28233  -28230   28242       9
   28224   28233  -28245   28257      22   28224   28233   28245   28260      22
   28560   28578   28581   28593       3   28542   28560   28578   28581       3
   28521   28542   28560   28578       3   28518   28503   28515   28530       4
   28518   28536  -28551   28530       4   28515   28503   28518   28536       4
   28515   28530  -28551   28536       4   28506   28521   28542   28560       3
   28503   28515   28530   28551       4   28503   28518  -28536   28551       4
   28494   28506   28521   28542       3   28485   28503   28515   28530       4
   28485   28503   28518   28536       4   28476   28494   28506   28521       3
   28467   28485   28503   28515       5   28467   28485   28503   28518       5
   28464   28485   28503   28515       5   28464   28485   28503   28518       5
   28458   28476   28494   28506       3   28455   28440   28458   28476       6
   28452   28437   28449   28464       4   28452   28467  -28485   28464       4
   28452   28467   28485   28503       4   28449   28437   28452   28467       4
   28449   28464  -28485   28467       4   28449   28464   28485   28503       4
   28446   28455   28440   28458       4   28440   28458   28476   28494       8
   28437   28449   28464   28485       4   28437   28452  -28467   28485       4
   28434   28422  -28425   28437       9   28434   28422   28431   28446      10
   28434   28449   28437   28452       4   28434   28449   28464   28485       4
   28431   28419   28428   28440       4   28431   28422   28425   28437      11
   28431   28422   28434   28449      12   28431   28446  -28455   28440       4
   28428   28419   28431   28446       4   28428   28440  -28455   28446       4
   28428   28440   28458   28476       6   28425   28416   28419   28428      13
   28425   28416  -28419   28428      14   28425   28416  -28419   28428      15
   28425   28416  -28419   28431      13   28425   28416  -28419   28431      14
   28425   28416  -28419   28431      15   28425   28416  -28422   28431      16
   28425   28416  -28422   28434      16   28425   28422   28431   28446      17
   28425   28422  -28434   28449      12   28425   28437  -28449   28434       4
   28425   28437   28449   28464       4   28425   28437   28452   28467       4
   28422   28416   28419   28428      18   28422   28416  -28419   28431      18
   28422   28416  -28425   28437      19   28422   28425  -28437   28449      20
   28422   28425   28437   28452      20   28422   28431  -28419   28428       4
   28422   28431   28446   28455       4   28422   28434  -28449   28437      21
   28422   28434   28449   28464      21   28419   28416  -28422   28425      16
   28419   28416  -28422   28431      16   28419   28416   28422   28434      16
   28419   28416  -28425   28422      19   28419   28416   28425   28437      19
   28419   28428   28440   28455       4   28419   28428   28440   28458       4
   28419   28431  -28422   28425      17   28419   28431  -28422   28434      10
   28419   28431  -28446   28455       4   28416   28419   28428   28440       4
   28416   28419  -28431   28422       4   28416   28419   28431   28446       4
   28416   28422  -28425   28437       9   28416   28422  -28431   28419      10
   28416   28422  -28431   28446      10   28416   28422   28434   28449      12
   28416   28425  -28422   28431       9   28416   28425  -28422   28434       9
   28416   28425  -28437   28449      22   28416   28425   28437   28452      22
   28752   28770   28773   28785       3   28734   28752   28770   28773       3
   28713   28734   28752   28770       3   28710   28695   28707   28722       4
   28710   28728  -28743   28722       4   28707   28695   28710   28728       4
   28707   28722  -28743   28728       4   28698   28713   28734   28752       3
   28695   28707   28722   28743       4   28695   28710  -28728   28743       4
   28686   28698   28713   28734       3   28677   28695   28707   28722       4
   28677   28695   28710   28728       4   28668   28686   28698   28713       3
   28659   28677   28695   28707       5   28659   28677   28695   28710       5
   28656   28677   28695   28707       5   28656   28677   28695   28710       5
   28650   28668   28686   28698       3   28647   28632   28650   28668       6
   28644   28629   28641   28656       4   28644   28659  -28677   28656       4
   28644   28659   28677   28695       4   28641   28629   28644   28659       4
   28641   28656  -28677   28659       4   28641   28656   28677   28695       4
   28638   28647   28632   28650       4   28632   28650   28668   28686       8
   28629   28641   28656   28677       4   28629   28644  -28659   28677       4
   28626   28614  -28617   28629       9   28626   28614   28623   28638      10
   28626   28641   28629   28644       4   28626   28641   28656   28677       4
   28623   28611   28620   28632       4   28623   28614   28617   28629      11
   28623   28614   28626   28641      12   28623   28638  -28647   28632       4
   28620   28611   28623   28638       4   28620   28632  -28647   28638       4
   28620   28632   28650   28668       6   28617   28608   28611   28620      13
   28617   28608  -28611   28620      14   28617   28608  -28611   28620      15
   28617   28608  -28611   28623      13   28617   28608  -28611   28623      14
   28617   28608  -28611   28623      15   28617   28608  -28614   28623      16
   28617   28608  -28614   28626      16   28617   28614   28623   28638      17
   28617   28614  -28626   28641      12   28617   28629  -28641   28626       4
   28617   28629   28641   28656       4   28617   28629   28644   28659       4
   28614   28608   28611   28620      18   28614   28608  -28611   28623      18
   28614   28608  -28617   28629      19   28614   28617  -28629   28641      20
   28614   28617   28629   28644      20   28614   28623  -28611   28620       4
   28614   28623   28638   28647       4   28614   28626  -28641   28629      21
   28614   28626   28641   28656      21   28611   28608  -28614   28617      16
   28611   28608  -28614   28623      16   28611   28608   28614   28626      16
   28611   28608  -28617   28614      19   28611   28608   28617   28629      19
   28611   28620   28632   28647       4   28611   28620   28632   28650       4
   28611   28623  -28614   28617      17   28611   28623  -28614   28626      10
   28611   28623  -28638   28647       4   28608   28611   28620   28632       4
   28608   28611  -28623   28614       4   28608   28611   28623   28638       4
   28608   28614  -28617   28629       9   28608   28614  -28623   28611      10
   28608   28614  -28623   28638      10   28608   28614   28626   28641      12
   28608   28617  -28614   28623       9   28608   28617  -28614   28626       9
   28608   28617  -28629   28641      22   28608   28617   28629   28644      22
   28944   28962   28965   28977       3   28926   28944   28962   28965       3
   28905   28926   28944   28962       3   28902   28887   28899   28914       4
   28902   28920  -28935   28914       4   28899   28887   28902   28920       4
   28899   28914  -28935   28920       4   28890   28905   28926   28944       3
   28887   28899   28914   28935       4   28887   28902  -28920   28935       4
   28878   28890   28905   28926       3   28869   28887   28899   28914       4
   28869   28887   28902   28920       4   28860   28878   28890   28905       3
   28851   28869   28887   28899       5   28851   28869   28887   28902       5
   28848   28869   28887   28899       5   28848   28869   28887   28902       5
   28842   28860   28878   28890       3   28839   28824   28842   28860       6
   28836   28821   28833   28848       4   28836   28851  -28869   28848       4
   28836   28851   28869   28887       4   28833   28821   28836   28851       4
   28833   28848  -28869   28851       4   28833   28848   28869   28887       4
   28830   28839   28824   28842       4   28824   28842   28860   28878       8
   28821   28833   28848   28869       4   28821   28836  -28851   28869       4
   28818   28806  -28809   28821       9   28818   28806   28815   28830      10
   28818   28833   28821   28836       4   28818   28833   28848   28869       4
   28815   28803   28812   28824       4   28815   28806   28809   28821      11
   28815   28806   28818   28833      12   28815   28830  -28839   28824       4
   28812   28803   28815   28830       4   28812   28824  -28839   28830       4
   28812   28824   28842   28860       6   28809   28800   28803   28812      13
   28809   28800  -28803   28812      14   28809   28800  -28803   28812      15
   28809   28800  -28803   28815      13   28809   28800  -28803   28815      14
   28809   28800  -28803   28815      15   28809   28800  -28806   28815      16
   28809   28800  -28806   28818      16   28809   28806   28815   28830      17
   28809   28806  -28818   28833      12   28809   28821  -28833   28818       4
   28809   28821   28833   28848       4   28809   28821   28836   28851       4
   28806   28800   28803   28812      18   28806   28800  -28803   28815      18
   28806   28800  -28809   28821      19   28806   28809  -28821   28833      20
   28806   28809   28821   28836      20   28806   28815  -28803   28812       4
   28806   28815   28830   28839       4   28806   28818  -28833   28821      21
   28806   28818   28833   28848      21   28803   28800  -28806   28809      16
   28803   28800  -28806   28815      16   28803   28800   28806   28818      16
   28803   28800  -28809   28806      19   28803   28800   28809   28821      19
   28803   28812   28824   28839       4   28803   28812   28824   28842       4
   28803   28815  -28806   28809      17   28803   28815  -28806   28818      10
   28803   28815  -28830   28839       4   28800   28803   28812   28824       4
   28800   28803  -28815   28806       4   28800   28803   28815   28830       4
   28800   28806  -28809   28821       9   28800   28806  -28815   28803      10
   28800   28806  -28815   28830      10   28800   28806   28818   28833      12
   28800   28809  -28806   28815       9   28800   28809  -28806   28818       9
   28800   28809  -28821   28833      22   28800   28809   28821   28836      22
   29136   29154   29157   29169       3   29118   29136   29154   29157       3
   29097   29118   29136   29154       3   29094   29079   29091   29106       4
   29094   29112  -29127   29106       4   29091   29079   29094   29112       4
   29091   29106  -29127   29112       4   29082   29097   29118   29136       3
   29079   29091   29106   29127       4   29079   29094  -29112   29127       4
   29070   29082   29097   29118       3   29061   29079   29091   29106       4
   29061   29079   29094   29112       4   29052   29070   29082   29097       3
   29043   29061   29079   29091       5   29043   29061   29079   29094       5
   29040   29061   29079   29091       5   29040   29061   29079   29094       5
   29034   29052   29070   29082       3   29031   29016   29034   29052       6
   29028   29013   29025   29040       4   29028   29043  -29061   29040       4
   29028   29043   29061   29079       4   29025   29013   29028   29043       4
   29025   29040  -29061   29043       4   29025   29040   29061   29079       4
   29022   29031   29016   29034       4   29016   29034   29052   29070       8
   29013   29025   29040   29061       4   29013   29028  -29043   29061       4
   29010   28998  -29001   29013       9   29010   28998   29007   29022      10
   29010   29025   29013   29028       4   29010   29025   29040   29061       4
   29007   28995   29004   29016       4   29007   28998   29001   29013      11
   29007   28998   29010   29025      12   29007   29022  -29031   29016       4
   29004   28995   29007   29022       4   29004   29016  -29031   29022       4
   29004   29016   29034   29052       6   29001   28992   28995   29004      13
   29001   28992  -28995   29004      14   29001   28992  -28995   29004      15
   29001   28992  -28995   29007      13   29001   28992  -28995   29007      14
   29001   28992  -28995   29007      15   29001   28992  -28998   29007      16
   29001   28992  -28998   29010      16   29001   28998   29007   29022      17
   29001   28998  -29010   29025      12   29001   29013  -29025   29010       4
   29001   29013   29025   29040       4   29001   29013   29028   29043       4
   28998   28992   28995   29004      18   28998   28992  -28995   29007      18
   28998   28992  -29001   29013      19   28998   29001  -29013   29025      20
   28998   29001   29013   29028      20   28998   29007  -28995   29004       4
   28998   29007   29022   29031       4   28998   29010  -29025   29013      21
   28998   29010   29025   29040      21   28995   28992  -28998   29001      16
   28995   28992  -28998   29007      16   28995   28992   28998   29010      16
   28995   28992  -29001   28998      19   28995   28992   29001   29013      19
   28995   29004   29016   29031       4   28995   29004   29016   29034       4
   28995   29007  -28998   29001      17   28995   29007  -28998   29010      10
   28995   29007  -29022   29031       4   28992   28995   29004   29016       4
   28992   28995  -29007   28998       4   28992   28995   29007   29022       4
   28992   28998  -29001   29013       9   28992   28998  -29007   28995      10
   28992   28998  -29007   29022      10   28992   28998   29010   29025      12
   28992   29001  -28998   29007       9   28992   29001  -28998   29010       9
   28992   29001  -29013   29025      22   28992   29001   29013   29028      22
   29328   29346   29349   29361       3   29310   29328   29346   29349       3
   29289   29310   29328   29346       3   29286   29271   29283   29298       4
   29286   29304  -29319   29298       4   29283   29271   29286   29304       4
   29283   29298  -29319   29304       4   29274   29289   29310   29328       3
   29271   29283   29298   29319       4   29271   29286  -29304   29319       4
   29262   29274   29289   29310       3   29253   29271   29283   29298       4
   29253   29271   29286   29304       4   29244   29262   29274   29289       3
   29235   29253   29271   29283       5   29235   29253   29271   29286       5
   29232   29253   29271   29283       5   29232   29253   29271   29286       5
   29226   29244   29262   29274       3   29223   29208   29226   29244       6
   29220   29205   29217   29232       4   29220   29235  -29253   29232       4
   29220   29235   29253   29271       4   29217   29205   29220   29235       4
   29217   29232  -29253   29235       4   29217   29232   29253   29271       4
   29214   29223   29208   29226       4   29208   29226   29244   29262       8
   29205   29217   29232   29253       4   29205   29220  -29235   29253       4
   29202   29190  -29193   29205       9   29202   29190   29199   29214      10
   29202   29217   29205   29220       4   29202   29217   29232   29253       4
   29199   29187   29196   29208       4   29199   29190   29193   29205      11
   29199   29190   29202   29217      12   29199   29214  -29223   29208       4
   29196   29187   29199   29214       4   29196   29208  -29223   29214       4
   29196   29208   29226   29244       6   29193   29184   29187   29196      13
   29193   29184  -29187   29196      14   29193   29184  -29187   29196      15
   29193   29184  -29187   29199      13   29193   29184  -29187   29199      14
   29193   29184  -29187   29199      15   29193   29184  -29190   29199      16
   29193   29184  -29190   29202      16   29193   29190   29199   29214      17
   29193   29190  -29202   29217      12   29193   29205  -29217   29202       4
   29193   29205   29217   29232       4   29193   29205   29220   29235       4
   29190   29184   29187   29196      18   29190   29184  -29187   29199      18
   29190   29184  -29193   29205      19   29190   29193  -29205   29217      20
   29190   29193   29205   29220      20   29190   29199  -29187   29196       4
   29190   29199   29214   29223       4   29190   29202  -29217   29205      21
   29190   29202   29217   29232      21   29187   29184  -29190   29193      16
   29187   29184  -29190   29199      16   29187   29184   29190   29202      16
   29187   29184  -29193   29190      19   29187   29184   29193   29205      19
   29187   29196   29208   29223       4   29187   29196   29208   29226       4
   29187   29199  -29190   29193      17   29187   29199  -29190   29202      10
   29187   29199  -29214   29223       4   29184   29187   29196   29208       4
   29184   29187  -29199   29190       4   29184   29187   29199   29214       4
   29184   29190  -29193   29205       9   29184   29190  -29199   29187      10
   29184   29190  -29199   29214      10   29184   29190   29202   29217      12
   29184   29193  -29190   29199       9   29184   29193  -29190   29202       9
   29184   29193  -29205   29217      22   29184   29193   29205   29220      22
   29520   29538   29541   29553       3   29502   29520   29538   29541       3
   29481   29502   29520   29538       3   29478   29463   29475   29490       4
   29478   29496  -29511   29490       4   29475   29463   29478   29496       4
   29475   29490  -29511   29496       4   29466   29481   29502   29520       3
   29463   29475   29490   29511       4   29463   29478  -29496   29511       4
   29454   29466   29481   29502       3   29445   29463   29475   29490       4
   29445   29463   29478   29496       4   29436   29454   29466   29481       3
   29427   29445   29463   29475       5   29427   29445   29463   29478       5
   29424   29445   29463   29475       5   29424   29445   29463   29478       5
   29418   29436   29454   29466       3   29415   29400   29418   29436       6
   29412   29397   29409   29424       4   29412   29427  -29445   29424       4
   29412   29427   29445   29463       4   29409   29397   29412   29427       4
   29409   29424  -29445   29427       4   29409   29424   29445   29463       4
   29406   29415   29400   29418       4   29400   29418   29436   29454       8
   29397   29409   29424   29445       4   29397   29412  -29427   29445       4
   29394   29382  -29385   29397       9   29394   29382   29391   29406      10
   29394   29409   29397   29412       4   29394   29409   29424   29445       4
   29391   29379   29388   29400       4   29391   29382   29385   29397      11
   29391   29382   29394   29409      12   29391   29406  -29415   29400       4
   29388   29379   29391   29406       4   29388   29400  -29415   29406       4
   29388   29400   29418   29436       6   29385   29376   29379   29388      13
   29385   29376  -29379   29388      14   29385   29376  -29379   29388      15
   29385   29376  -29379   29391      13   29385   29376  -29379   29391      14
   29385   29376  -29379   29391      15   29385   29376  -29382   29391      16
   29385   29376  -29382   29394      16   29385   29382   29391   29406      17
   29385   29382  -29394   29409      12   29385   29397  -29409   29394       4
   29385   29397   29409   29424       4   29385   29397   29412   29427       4
   29382   29376   29379   29388      18   29382   29376  -29379   29391      18
   29382   29376  -29385   29397      19   29382   29385  -29397   29409      20
   29382   29385   29397   29412      20   29382   29391  -29379   29388       4
   29382   29391   29406   29415       4   29382   29394  -29409   29397      21
   29382   29394   29409   29424      21   29379   29376  -29382   29385      16
   29379   29376  -29382   29391      16   29379   29376   29382   29394      16
   29379   29376  -29385   29382      19   29379   29376   29385   29397      19
   29379   29388   29400   29415       4   29379   29388   29400   29418       4
   29379   29391  -29382   29385      17   29379   29391  -29382   29394      10
   29379   29391  -29406   29415       4   29376   29379   29388   29400       4
   29376   29379  -29391   29382       4   29376   29379   29391   29406       4
   29376   29382  -29385   29397       9   29376   29382  -29391   29379      10
   29376   29382  -29391   29406      10   29376   29382   29394   29409      12
   29376   29385  -29382   29391       9   29376   29385  -29382   29394       9
   29376   29385  -29397   29409      22   29376   29385   29397   29412      22
   29712   29730   29733   29745       3   29694   29712   29730   29733       3
   29673   29694   29712   29730       3   29670   29655   29667   29682       4
   29670   29688  -29703   29682       4   29667   29655   29670   29688       4
   29667   29682  -29703   29688       4   29658   29673   29694   29712       3
   29655   29667   29682   29703       4   29655   29670  -29688   29703       4
   29646   29658   29673   29694       3   29637   29655   29667   29682       4
   29637   29655   29670   29688       4   29628   29646   29658   29673       3
   29619   29637   29655   29667       5   29619   29637   29655   29670       5
   29616   29637   29655   29667       5   29616   29637   29655   29670       5
   29610   29628   29646   29658       3   29607   29592   29610   29628       6
   29604   29589   29601   29616       4   29604   29619  -29637   29616       4
   29604   29619   29637   29655       4   29601   29589   29604   29619       4
   29601   29616  -29637   29619       4   29601   29616   29637   29655       4
   29598   29607   29592   29610       4   29592   29610   29628   29646       8
   29589   29601   29616   29637       4   29589   29604  -29619   29637       4
   29586   29574  -29577   29589       9   29586   29574   29583   29598      10
   29586   29601   29589   29604       4   29586   29601   29616   29637       4
   29583   29571   29580   29592       4   29583   29574   29577   29589      11
   29583   29574   29586   29601      12   29583   29598  -29607   29592       4
   29580   29571   29583   29598       4   29580   29592  -29607   29598       4
   29580   29592   29610   29628       6   29577   29568   29571   29580      13
   29577   29568  -29571   29580      14   29577   29568  -29571   29580      15
   29577   29568  -29571   29583      13   29577   29568  -29571   29583      14
   29577   29568  -29571   29583      15   29577   29568  -29574   29583      16
   29577   29568  -29574   29586      16   29577   29574   29583   29598      17
   29577   29574  -29586   29601      12   29577   29589  -29601   29586       4
   29577   29589   29601   29616       4   29577   29589   29604   29619       4
   29574   29568   29571   29580      18   29574   29568  -29571   29583      18
   29574   29568  -29577   29589      19   29574   29577  -29589   29601      20
   29574   29577   29589   29604      20   29574   29583  -29571   29580       4
   29574   29583   29598   29607       4   29574   29586  -29601   29589      21
   29574   29586   29601   29616      21   29571   29568  -29574   29577      16
   29571   29568  -29574   29583      16   29571   29568   29574   29586      16
   29571   29568  -29577   29574      19   29571   29568   29577   29589      19
   29571   29580   29592   29607       4   29571   29580   29592   29610       4
   29571   29583  -29574   29577      17   29571   29583  -29574   29586      10
   29571   29583  -29598   29607       4   29568   29571   29580   29592       4
   29568   29571  -29583   29574       4   29568   29571   29583   29598       4
   29568   29574  -29577   29589       9   29568   29574  -29583   29571      10
   29568   29574  -29583   29598      10   29568   29574   29586   29601      12
   29568   29577  -29574   29583       9   29568   29577  -29574   29586       9
   29568   29577  -29589   29601      22   29568   29577   29589   29604      22
   29904   29922   29925   29937       3   29886   29904   29922   29925       3
   29865   29886   29904   29922       3   29862   29847   29859   29874       4
   29862   29880  -29895   29874       4   29859   29847   29862   29880       4
   29859   29874  -29895   29880       4   29850   29865   29886   29904       3
   29847   29859   29874   29895       4   29847   29862  -29880   29895       4
   29838   29850   29865   29886       3   29829   29847   29859   29874       4
   29829   29847   29862   29880       4   29820   29838   29850   29865       3
   29811   29829   29847   29859       5   29811   29829   29847   29862       5
   29808   29829   29847   29859       5   29808   29829   29847   29862       5
   29802   29820   29838   29850       3   29799   29784   29802   29820       6
   29796   29781   29793   29808       4   29796   29811  -29829   29808       4
   29796   29811   29829   29847       4   29793   29781   29796   29811       4
   29793   29808  -29829   29811       4   29793   29808   29829   29847       4
   29790   29799   29784   29802       4   29784   29802   29820   29838       8
   29781   29793   29808   29829       4   29781   29796  -29811   29829       4
   29778   29766  -29769   29781       9   29778   29766   29775   29790      10
   29778   29793   29781   29796       4   29778   29793   29808   29829       4
   29775   29763   29772   29784       4   29775   29766   29769   29781      11
   29775   29766   29778   29793      12   29775   29790  -29799   29784       4
   29772   29763   29775   29790       4   29772   29784  -29799   29790       4
   29772   29784   29802   29820       6   29769   29760   29763   29772      13
   29769   29760  -29763   29772      14   29769   29760  -29763   29772      15
   29769   29760  -29763   29775      13   29769   29760  -29763   29775      14
   29769   29760  -29763   29775      15   29769   29760  -29766   29775      16
   29769   29760  -29766   29778      16   29769   29766   29775   29790      17
   29769   29766  -29778   29793      12   29769   29781  -29793   29778       4
   29769   29781   29793   29808       4   29769   29781   29796   29811       4
   29766   29760   29763   29772      18   29766   29760  -29763   29775      18
   29766   29760  -29769   29781      19   29766   29769  -29781   29793      20
   29766   29769   29781   29796      20   29766   29775  -29763   29772       4
   29766   29775   29790   29799       4   29766   29778  -29793   29781      21
   29766   29778   29793   29808      21   29763   29760  -29766   29769      16
   29763   29760  -29766   29775      16   29763   29760   29766   29778      16
   29763   29760  -29769   29766      19   29763   29760   29769   29781      19
   29763   29772   29784   29799       4   29763   29772   29784   29802       4
   29763   29775  -29766   29769      17   29763   29775  -29766   29778      10
   29763   29775  -29790   29799       4   29760   29763   29772   29784       4
   29760   29763  -29775   29766       4   29760   29763   29775   29790       4
   29760   29766  -29769   29781       9   29760   29766  -29775   29763      10
   29760   29766  -29775   29790      10   29760   29766   29778   29793      12
   29760   29769  -29766   29775       9   29760   29769  -29766   29778       9
   29760   29769  -29781   29793      22   29760   29769   29781   29796      22
   30096   30114   30117   30129       3   30078   30096   30114   30117       3
   30057   30078   30096   30114       3   30054   30039   30051   30066       4
   30054   30072  -30087   30066       4   30051   30039   30054   30072       4
   30051   30066  -30087   30072       4   30042   30057   30078   30096       3
   30039   30051   30066   30087       4   30039   30054  -30072   30087       4
   30030   30042   30057   30078       3   30021   30039   30051   30066       4
   30021   30039   30054   30072       4   30012   30030   30042   30057       3
   30003   30021   30039   30051       5   30003   30021   30039   30054       5
   30000   30021   30039   30051       5   30000   30021   30039   30054       5
   29994   30012   30030   30042       3   29991   29976   29994   30012       6
   29988   29973   29985   30000       4   29988   30003  -30021   30000       4
   29988   30003   30021   30039       4   29985   29973   29988   30003       4
   29985   30000  -30021   30003       4   29985   30000   30021   30039       4
   29982   29991   29976   29994       4   29976   29994   30012   30030       8
   29973   29985   30000   30021       4   29973   29988  -30003   30021       4
   29970   29958  -29961   29973       9   29970   29958   29967   29982      10
   29970   29985   29973   29988       4   29970   29985   30000   30021       4
   29967   29955   29964   29976       4   29967   29958   29961   29973      11
   29967   29958   29970   29985      12   29967   29982  -29991   29976       4
   29964   29955   29967   29982       4   29964   29976  -29991   29982       4
   29964   29976   29994   30012       6   29961   29952   29955   29964      13
   29961   29952  -29955   29964      14   29961   29952  -29955   29964      15
   29961   29952  -29955   29967      13   29961   29952  -29955   29967      14
   29961   29952  -29955   29967      15   29961   29952  -29958   29967      16
   29961   29952  -29958   29970      16   29961   29958   29967   29982      17
   29961   29958  -29970   29985      12   29961   29973  -29985   29970       4
   29961   29973   29985   30000       4   29961   29973   29988   30003       4
   29958   29952   29955   29964      18   29958   29952  -29955   29967      18
   29958   29952  -29961   29973      19   29958   29961  -29973   29985      20
   29958   29961   29973   29988      20   29958   29967  -29955   29964       4
   29958   29967   29982   29991       4   29958   29970  -29985   29973      21
   29958   29970   29985   30000      21   29955   29952  -29958   29961      16
   29955   29952  -29958   29967      16   29955   29952   29958   29970      16
   29955   29952  -29961   29958      19   29955   29952   29961   29973      19
   29955   29964   29976   29991       4   29955   29964   29976   29994       4
   29955   29967  -29958   29961      17   29955   29967  -29958   29970      10
   29955   29967  -29982   29991       4   29952   29955   29964   29976       4
   29952   29955  -29967   29958       4   29952   29955   29967   29982       4
   29952   29958  -29961   29973       9   29952   29958  -29967   29955      10
   29952   29958  -29967   29982      10   29952   29958   29970   29985      12
   29952   29961  -29958   29967       9   29952   29961  -29958   29970       9
   29952   29961  -29973   29985      22   29952   29961   29973   29988      22
   30288   30306   30309   30321       3   30270   30288   30306   30309       3
   30249   30270   30288   30306       3   30246   30231   30243   30258       4
   30246   30264  -30279   30258       4   30243   30231   30246   30264       4
   30243   30258  -30279   30264       4   30234   30249   30270   30288       3
   30231   30243   30258   30279       4   30231   30246  -30264   30279       4
   30222   30234   30249   30270       3   30213   30231   30243   30258       4
   30213   30231   30246   30264       4   30204   30222   30234   30249       3
   30195   30213   30231   30243       5   30195   30213   30231   30246       5
   30192   30213   30231   30243       5   30192   30213   30231   30246       5
   30186   30204   30222   30234       3   30183   30168   30186   30204       6
   30180   30165   30177   30192       4   30180   30195  -30213   30192       4
   30180   30195   30213   30231       4   30177   30165   30180   30195       4
   30177   30192  -30213   30195       4   30177   30192   30213   30231       4
   30174   30183   30168   30186       4   30168   30186   30204   30222       8
   30165   30177   30192   30213       4   30165   30180  -30195   30213       4
   30162   30150  -30153   30165       9   30162   30150   30159   30174      10
   30162   30177   30165   30180       4   30162   30177   30192   30213       4
   30159   30147   30156   30168       4   30159   30150   30153   30165      11
   30159   30150   30162   30177      12   30159   30174  -30183   30168       4
   30156   30147   30159   30174       4   30156   30168  -30183   30174       4
   30156   30168   30186   30204       6   30153   30144   30147   30156      13
   30153   30144  -30147   30156      14   30153   30144  -30147   30156      15
   30153   30144  -30147   30159      13   30153   30144  -30147   30159      14
   30153   30144  -30147   30159      15   30153   30144  -30150   30159      16
   30153   30144  -30150   30162      16   30153   30150   30159   30174      17
   30153   30150  -30162   30177      12   30153   30165  -30177   30162       4
   30153   30165   30177   30192       4   30153   30165   30180   30195       4
   30150   30144   30147   30156      18   30150   30144  -30147   30159      18
   30150   30144  -30153   30165      19   30150   30153  -30165   30177      20
   30150   30153   30165   30180      20   30150   30159  -30147   30156       4
   30150   30159   30174   30183       4   30150   30162  -30177   30165      21
   30150   30162   30177   30192      21   30147   30144  -30150   30153      16
   30147   30144  -30150   30159      16   30147   30144   30150   30162      16
   30147   30144  -30153   30150      19   30147   30144   30153   30165      19
   30147   30156   30168   30183       4   30147   30156   30168   30186       4
   30147   30159  -30150   30153      17   30147   30159  -30150   30162      10
   30147   30159  -30174   30183       4   30144   30147   30156   30168       4
   30144   30147  -30159   30150       4   30144   30147   30159   30174       4
   30144   30150  -30153   30165       9   30144   30150  -30159   30147      10
   30144   30150  -30159   30174      10   30144   30150   30162   30177      12
   30144   30153  -30150   30159       9   30144   30153  -30150   30162       9
   30144   30153  -30165   30177      22   30144   30153   30165   30180      22
   30480   30498   30501   30513       3   30462   30480   30498   30501       3
   30441   30462   30480   30498       3   30438   30423   30435   30450       4
   30438   30456  -30471   30450       4   30435   30423   30438   30456       4
   30435   30450  -30471   30456       4   30426   30441   30462   30480       3
   30423   30435   30450   30471       4   30423   30438  -30456   30471       4
   30414   30426   30441   30462       3   30405   30423   30435   30450       4
   30405   30423   30438   30456       4   30396   30414   30426   30441       3
   30387   30405   30423   30435       5   30387   30405   30423   30438       5
   30384   30405   30423   30435       5   30384   30405   30423   30438       5
   30378   30396   30414   30426       3   30375   30360   30378   30396       6
   30372   30357   30369   30384       4   30372   30387  -30405   30384       4
   30372   30387   30405   30423       4   30369   30357   30372   30387       4
   30369   30384  -30405   30387       4   30369   30384   30405   30423       4
   30366   30375   30360   30378       4   30360   30378   30396   30414       8
   30357   30369   30384   30405       4   30357   30372  -30387   30405       4
   30354   30342  -30345   30357       9   30354   30342   30351   30366      10
   30354   30369   30357   30372       4   30354   30369   30384   30405       4
   30351   30339   30348   30360       4   30351   30342   30345   30357      11
   30351   30342   30354   30369      12   30351   30366  -30375   30360       4
   30348   30339   30351   30366       4   30348   30360  -30375   30366       4
   30348   30360   30378   30396       6   30345   30336   30339   30348      13
   30345   30336  -30339   30348      14   30345   30336  -30339   30348      15
   30345   30336  -30339   30351      13   30345   30336  -30339   30351      14
   30345   30336  -30339   30351      15   30345   30336  -30342   30351      16
   30345   30336  -30342   30354      16   30345   30342   30351   30366      17
   30345   30342  -30354   30369      12   30345   30357  -30369   30354       4
   30345   30357   30369   30384       4   30345   30357   30372   30387       4
   30342   30336   30339   30348      18   30342   30336  -30339   30351      18
   30342   30336  -30345   30357      19   30342   30345  -30357   30369      20
   30342   30345   30357   30372      20   30342   30351  -30339   30348       4
   30342   30351   30366   30375       4   30342   30354  -30369   30357      21
   30342   30354   30369   30384      21   30339   30336  -30342   30345      16
   30339   30336  -30342   30351      16   30339   30336   30342   30354      16
   30339   30336  -30345   30342      19   30339   30336   30345   30357      19
   30339   30348   30360   30375       4   30339   30348   30360   30378       4
   30339   30351  -30342   30345      17   30339   30351  -30342   30354      10
   30339   30351  -30366   30375       4   30336   30339   30348   30360       4
   30336   30339  -30351   30342       4   30336   30339   30351   30366       4
   30336   30342  -30345   30357       9   30336   30342  -30351   30339      10
   30336   30342  -30351   30366      10   30336   30342   30354   30369      12
   30336   30345  -30342   30351       9   30336   30345  -30342   30354       9
   30336   30345  -30357   30369      22   30336   30345   30357   30372      22
   30672   30690   30693   30705       3   30654   30672   30690   30693       3
   30633   30654   30672   30690       3   30630   30615   30627   30642       4
   30630   30648  -30663   30642       4   30627   30615   30630   30648       4
   30627   30642  -30663   30648       4   30618   30633   30654   30672       3
   30615   30627   30642   30663       4   30615   30630  -30648   30663       4
   30606   30618   30633   30654       3   30597   30615   30627   30642       4
   30597   30615   30630   30648       4   30588   30606   30618   30633       3
   30579   30597   30615   30627       5   30579   30597   30615   30630       5
   30576   30597   30615   30627       5   30576   30597   30615   30630       5
   30570   30588   30606   30618       3   30567   30552   30570   30588       6
   30564   30549   30561   30576       4   30564   30579  -30597   30576       4
   30564   30579   30597   30615       4   30561   30549   30564   30579       4
   30561   30576  -30597   30579       4   30561   30576   30597   30615       4
   30558   30567   30552   30570       4   30552   30570   30588   30606       8
   30549   30561   30576   30597       4   30549   30564  -30579   30597       4
   30546   30534  -30537   30549       9   30546   30534   30543   30558      10
   30546   30561   30549   30564       4   30546   30561   30576   30597       4
   30543   30531   30540   30552       4   30543   30534   30537   30549      11
   30543   30534   30546   30561      12   30543   30558  -30567   30552       4
   30540   30531   30543   30558       4   30540   30552  -30567   30558       4
   30540   30552   30570   30588       6   30537   30528   30531   30540      13
   30537   30528  -30531   30540      14   30537   30528  -30531   30540      15
   30537   30528  -30531   30543      13   30537   30528  -30531   30543      14
   30537   30528  -30531   30543      15   30537   30528  -30534   30543      16
   30537   30528  -30534   30546      16   30537   30534   30543   30558      17
   30537   30534  -30546   30561      12   30537   30549  -30561   30546       4
   30537   30549   30561   30576       4   30537   30549   30564   30579       4
   30534   30528   30531   30540      18   30534   30528  -30531   30543      18
   30534   30528  -30537   30549      19   30534   30537  -30549   30561      20
   30534   30537   30549   30564      20   30534   30543  -30531   30540       4
   30534   30543   30558   30567       4   30534   30546  -30561   30549      21
   30534   30546   30561   30576      21   30531   30528  -30534   30537      16
   30531   30528  -30534   30543      16   30531   30528   30534   30546      16
   30531   30528  -30537   30534      19   30531   30528   30537   30549      19
   30531   30540   30552   30567       4   30531   30540   30552   30570       4
   30531   30543  -30534   30537      17   30531   30543  -30534   30546      10
   30531   30543  -30558   30567       4   30528   30531   30540   30552       4
   30528   30531  -30543   30534       4   30528   30531   30543   30558       4
   30528   30534  -30537   30549       9   30528   30534  -30543   30531      10
   30528   30534  -30543   30558      10   30528   30534   30546   30561      12
   30528   30537  -30534   30543       9   30528   30537  -30534   30546       9
   30528   30537  -30549   30561      22   30528   30537   30549   30564      22
   30864   30882   30885   30897       3   30846   30864   30882   30885       3
   30825   30846   30864   30882       3   30822   30807   30819   30834       4
   30822   30840  -30855   30834       4   30819   30807   30822   30840       4
   30819   30834  -30855   30840       4   30810   30825   30846   30864       3
   30807   30819   30834   30855       4   30807   30822  -30840   30855       4
   30798   30810   30825   30846       3   30789   30807   30819   30834       4
   30789   30807   30822   30840       4   30780   30798   30810   30825       3
   30771   30789   30807   30819       5   30771   30789   30807   30822       5
   30768   30789   30807   30819       5   30768   30789   30807   30822       5
   30762   30780   30798   30810       3   30759   30744   30762   30780       6
   30756   30741   30753   30768       4   30756   30771  -30789   30768       4
   30756   30771   30789   30807       4   30753   30741   30756   30771       4
   30753   30768  -30789   30771       4   30753   30768   30789   30807       4
   30750   30759   30744   30762       4   30744   30762   30780   30798       8
   30741   30753   30768   30789       4   30741   30756  -30771   30789       4
   30738   30726  -30729   30741       9   30738   30726   30735   30750      10
   30738   30753   30741   30756       4   30738   30753   30768   30789       4
   30735   30723   30732   30744       4   30735   30726   30729   30741      11
   30735   30726   30738   30753      12   30735   30750  -30759   30744       4
   30732   30723   30735   30750       4   30732   30744  -30759   30750       4
   30732   30744   30762   30780       6   30729   30720   30723   30732      13
   30729   30720  -30723   30732      14   30729   30720  -30723   30732      15
   30729   30720  -30723   30735      13   30729   30720  -30723   30735      14
   30729   30720  -30723   30735      15   30729   30720  -30726   30735      16
   30729   30720  -30726   30738      16   30729   30726   30735   30750      17
   30729   30726  -30738   30753      12   30729   30741  -30753   30738       4
   30729   30741   30753   30768       4   30729   30741   30756   30771       4
   30726   30720   30723   30732      18   30726   30720  -30723   30735      18
   30726   30720  -30729   30741      19   30726   30729  -30741   30753      20
   30726   30729   30741   30756      20   30726   30735  -30723   30732       4
   30726   30735   30750   30759       4   30726   30738  -30753   30741      21
   30726   30738   30753   30768      21   30723   30720  -30726   30729      16
   30723   30720  -30726   30735      16   30723   30720   30726   30738      16
   30723   30720  -30729   30726      19   30723   30720   30729   30741      19
   30723   30732   30744   30759       4   30723   30732   30744   30762       4
   30723   30735  -30726   30729      17   30723   30735  -30726   30738      10
   30723   30735  -30750   30759       4   30720   30723   30732   30744       4
   30720   30723  -30735   30726       4   30720   30723   30735   30750       4
   30720   30726  -30729   30741       9   30720   30726  -30735   30723      10
   30720   30726  -30735   30750      10   30720   30726   30738   30753      12
   30720   30729  -30726   30735       9   30720   30729  -30726   30738       9
   30720   30729  -30741   30753      22   30720   30729   30741   30756      22
   31056   31074   31077   31089       3   31038   31056   31074   31077       3
   31017   31038   31056   31074       3   31014   30999   31011   31026       4
   31014   31032  -31047   31026       4   31011   30999   31014   31032       4
   31011   31026  -31047   31032       4   31002   31017   31038   31056       3
   30999   31011   31026   31047       4   30999   31014  -31032   31047       4
   30990   31002   31017   31038       3   30981   30999   31011   31026       4
   30981   30999   31014   31032       4   30972   30990   31002   31017       3
   30963   30981   30999   31011       5   30963   30981   30999   31014       5
   30960   30981   30999   31011       5   30960   30981   30999   31014       5
   30954   30972   30990   31002       3   30951   30936   30954   30972       6
   30948   30933   30945   30960       4   30948   30963  -30981   30960       4
   30948   30963   30981   30999       4   30945   30933   30948   30963       4
   30945   30960  -30981   30963       4   30945   30960   30981   30999       4
   30942   30951   30936   30954       4   30936   30954   30972   30990       8
   30933   30945   30960   30981       4   30933   30948  -30963   30981       4
   30930   30918  -30921   30933       9   30930   30918   30927   30942      10
   30930   30945   30933   30948       4   30930   30945   30960   30981       4
   30927   30915   30924   30936       4   30927   30918   30921   30933      11
   30927   30918   30930   30945      12   30927   30942  -30951   30936       4
   30924   30915   30927   30942       4   30924   30936  -30951   30942       4
   30924   30936   30954   30972       6   30921   30912   30915   30924      13
   30921   30912  -30915   30924      14   30921   30912  -30915   30924      15
   30921   30912  -30915   30927      13   30921   30912  -30915   30927      14
   30921   30912  -30915   30927      15   30921   30912  -30918   30927      16
   30921   30912  -30918   30930      16   30921   30918   30927   30942      17
   30921   30918  -30930   30945      12   30921   30933  -30945   30930       4
   30921   30933   30945   30960       4   30921   30933   30948   30963       4
   30918   30912   30915   30924      18   30918   30912  -30915   30927      18
   30918   30912  -30921   30933      19   30918   30921  -30933   30945      20
   30918   30921   30933   30948      20   30918   30927  -30915   30924       4
   30918   30927   30942   30951       4   30918   30930  -30945   30933      21
   30918   30930   30945   30960      21   30915   30912  -30918   30921      16
   30915   30912  -30918   30927      16   30915   30912   30918   30930      16
   30915   30912  -30921   30918      19   30915   30912   30921   30933      19
   30915   30924   30936   30951       4   30915   30924   30936   30954       4
   30915   30927  -30918   30921      17   30915   30927  -30918   30930      10
   30915   30927  -30942   30951       4   30912   30915   30924   30936       4
   30912   30915  -30927   30918       4   30912   30915   30927   30942       4
   30912   30918  -30921   30933       9   30912   30918  -30927   30915      10
   30912   30918  -30927   30942      10   30912   30918   30930   30945      12
   30912   30921  -30918   30927       9   30912   30921  -30918   30930       9
   30912   30921  -30933   30945      22   30912   30921   30933   30948      22
   31248   31266   31269   31281       3   31230   31248   31266   31269       3
   31209   31230   31248   31266       3   31206   31191   31203   31218       4
   31206   31224  -31239   31218       4   31203   31191   31206   31224       4
   31203   31218  -31239   31224       4   31194   31209   31230   31248       3
   31191   31203   31218   31239       4   31191   31206  -31224   31239       4
   31182   31194   31209   31230       3   31173   31191   31203   31218       4
   31173   31191   31206   31224       4   31164   31182   31194   31209       3
   31155   31173   31191   31203       5   31155   31173   31191   31206       5
   31152   31173   31191   31203       5   31152   31173   31191   31206       5
   31146   31164   31182   31194       3   31143   31128   31146   31164       6
   31140   31125   31137   31152       4   31140   31155  -31173   31152       4
   31140   31155   31173   31191       4   31137   31125   31140   31155       4
   31137   31152  -31173   31155       4   31137   31152   31173   31191       4
   31134   31143   31128   31146       4   31128   31146   31164   31182       8
   31125   31137   31152   31173       4   31125   31140  -31155   31173       4
   31122   31110  -31113   31125       9   31122   31110   31119   31134      10
   31122   31137   31125   31140       4   31122   31137   31152   31173       4
   31119   31107   31116   31128       4   31119   31110   31113   31125      11
   31119   31110   31122   31137      12   31119   31134  -31143   31128       4
   31116   31107   31119   31134       4   31116   31128  -31143   31134       4
   31116   31128   31146   31164       6   31113   31104   31107   31116      13
   31113   31104  -31107   31116      14   31113   31104  -31107   31116      15
   31113   31104  -31107   31119      13   31113   31104  -31107   31119      14
   31113   31104  -31107   31119      15   31113   31104  -31110   31119      16
   31113   31104  -31110   31122      16   31113   31110   31119   31134      17
   31113   31110  -31122   31137      12   31113   31125  -31137   31122       4
   31113   31125   31137   31152       4   31113   31125   31140   31155       4
   31110   31104   31107   31116      18   31110   31104  -31107   31119      18
   31110   31104  -31113   31125      19   31110   31113  -31125   31137      20
   31110   31113   31125   31140      20   31110   31119  -31107   31116       4
   31110   31119   31134   31143       4   31110   31122  -31137   31125      21
   31110   31122   31137   31152      21   31107   31104  -31110   31113      16
   31107   31104  -31110   31119      16   31107   31104   31110   31122      16
   31107   31104  -31113   31110      19   31107   31104   31113   31125      19
   31107   31116   31128   31143       4   31107   31116   31128   31146       4
   31107   31119  -31110   31113      17   31107   31119  -31110   31122      10
   31107   31119  -31134   31143       4   31104   31107   31116   31128       4
   31104   31107  -31119   31110       4   31104   31107   31119   31134       4
   31104   31110  -31113   31125       9   31104   31110  -31119   31107      10
   31104   31110  -31119   31134      10   31104   31110   31122   31137      12
   31104   31113  -31110   31119       9   31104   31113  -31110   31122       9
   31104   31113  -31125   31137      22   31104   31113   31125   31140      22
   31440   31458   31461   31473       3   31422   31440   31458   31461       3
   31401   31422   31440   31458       3   31398   31383   31395   31410       4
   31398   31416  -31431   31410       4   31395   31383   31398   31416       4
   31395   31410  -31431   31416       4   31386   31401   31422   31440       3
   31383   31395   31410   31431       4   31383   31398  -31416   31431       4
   31374   31386   31401   31422       3   31365   31383   31395   31410       4
   31365   31383   31398   31416       4   31356   31374   31386   31401       3
   31347   31365   31383   31395       5   31347   31365   31383   31398       5
   31344   31365   31383   31395       5   31344   31365   31383   31398       5
   31338   31356   31374   31386       3   31335   31320   31338   31356       6
   31332   31317   31329   31344       4   31332   31347  -31365   31344       4
   31332   31347   31365   31383       4   31329   31317   31332   31347       4
   31329   31344  -31365   31347       4   31329   31344   31365   31383       4
   31326   31335   31320   31338       4   31320   31338   31356   31374       8
   31317   31329   31344   31365       4   31317   31332  -31347   31365       4
   31314   31302  -31305   31317       9   31314   31302   31311   31326      10
   31314   31329   31317   31332       4   31314   31329   31344   31365       4
   31311   31299   31308   31320       4   31311   31302   31305   31317      11
   31311   31302   31314   31329      12   31311   31326  -31335   31320       4
   31308   31299   31311   31326       4   31308   31320  -31335   31326       4
   31308   31320   31338   31356       6   31305   31296   31299   31308      13
   31305   31296  -31299   31308      14   31305   31296  -31299   31308      15
   31305   31296  -31299   31311      13   31305   31296  -31299   31311      14
   31305   31296  -31299   31311      15   31305   31296  -31302   31311      16
   31305   31296  -31302   31314      16   31305   31302   31311   31326      17
   31305   31302  -31314   31329      12   31305   31317  -31329   31314       4
   31305   31317   31329   31344       4   31305   31317   31332   31347       4
   31302   31296   31299   31308      18   31302   31296  -31299   31311      18
   31302   31296  -31305   31317      19   31302   31305  -31317   31329      20
   31302   31305   31317   31332      20   31302   31311  -31299   31308       4
   31302   31311   31326   31335       4   31302   31314  -31329   31317      21
   31302   31314   31329   31344      21   31299   31296  -31302   31305      16
   31299   31296  -31302   31311      16   31299   31296   31302   31314      16
   31299   31296  -31305   31302      19   31299   31296   31305   31317      19
   31299   31308   31320   31335       4   31299   31308   31320   31338       4
   31299   31311  -31302   31305      17   31299   31311  -31302   31314      10
   31299   31311  -31326   31335       4   31296   31299   31308   31320       4
   31296   31299  -31311   31302       4   31296   31299   31311   31326       4
   31296   31302  -31305   31317       9   31296   31302  -31311   31299      10
   31296   31302  -31311   31326      10   31296   31302   31314   31329      12
   31296   31305  -31302   31311       9   31296   31305  -31302   31314       9
   31296   31305  -31317   31329      22   31296   31305   31317   31332      22
   31632   31650   31653   31665       3   31614   31632   31650   31653       3
   31593   31614   31632   31650       3   31590   31575   31587   31602       4
   31590   31608  -31623   31602       4   31587   31575   31590   31608       4
   31587   31602  -31623   31608       4   31578   31593   31614   31632       3
   31575   31587   31602   31623       4   31575   31590  -31608   31623       4
   31566   31578   31593   31614       3   31557   31575   31587   31602       4
   31557   31575   31590   31608       4   31548   31566   31578   31593       3
   31539   31557   31575   31587       5   31539   31557   31575   31590       5
   31536   31557   31575   31587       5   31536   31557   31575   31590       5
   31530   31548   31566   31578       3   31527   31512   31530   31548       6
   31524   31509   31521   31536       4   31524   31539  -31557   31536       4
   31524   31539   31557   31575       4   31521   31509   31524   31539       4
   31521   31536  -31557   31539       4   31521   31536   31557   31575       4
   31518   31527   31512   31530       4   31512   31530   31548   31566       8
   31509   31521   31536   31557       4   31509   31524  -31539   31557       4
   31506   31494  -31497   31509       9   31506   31494   31503   31518      10
   31506   31521   31509   31524       4   31506   31521   31536   31557       4
   31503   31491   31500   31512       4   31503   31494   31497   31509      11
   31503   31494   31506   31521      12   31503   31518  -31527   31512       4
   31500   31491   31503   31518       4   31500   31512  -31527   31518       4
   31500   31512   31530   31548       6   31497   31488   31491   31500      13
   31497   31488  -31491   31500      14   31497   31488  -31491   31500      15
   31497   31488  -31491   31503      13   31497   31488  -31491   31503      14
   31497   31488  -31491   31503      15   31497   31488  -31494   31503      16
   31497   31488  -31494   31506      16   31497   31494   31503   31518      17
   31497   31494  -31506   31521      12   31497   31509  -31521   31506       4
   31497   31509   31521   31536       4   31497   31509   31524   31539       4
   31494   31488   31491   31500      18   31494   31488  -31491   31503      18
   31494   31488  -31497   31509      19   31494   31497  -31509   31521      20
   31494   31497   31509   31524      20   31494   31503  -31491   31500       4
   31494   31503   31518   31527       4   31494   31506  -31521   31509      21
   31494   31506   31521   31536      21   31491   31488  -31494   31497      16
   31491   31488  -31494   31503      16   31491   31488   31494   31506      16
   31491   31488  -31497   31494      19   31491   31488   31497   31509      19
   31491   31500   31512   31527       4   31491   31500   31512   31530       4
   31491   31503  -31494   31497      17   31491   31503  -31494   31506      10
   31491   31503  -31518   31527       4   31488   31491   31500   31512       4
   31488   31491  -31503   31494       4   31488   31491   31503   31518       4
   31488   31494  -31497   31509       9   31488   31494  -31503   31491      10
   31488   31494  -31503   31518      10   31488   31494   31506   31521      12
   31488   31497  -31494   31503       9   31488   31497  -31494   31506       9
   31488   31497  -31509   31521      22   31488   31497   31509   31524      22
   31824   31842   31845   31857       3   31806   31824   31842   31845       3
   31785   31806   31824   31842       3   31782   31767   31779   31794       4
   31782   31800  -31815   31794       4   31779   31767   31782   31800       4
   31779   31794  -31815   31800       4   31770   31785   31806   31824       3
   31767   31779   31794   31815       4   31767   31782  -31800   31815       4
   31758   31770   31785   31806       3   31749   31767   31779   31794       4
   31749   31767   31782   31800       4   31740   31758   31770   31785       3
   31731   31749   31767   31779       5   31731   31749   31767   31782       5
   31728   31749   31767   31779       5   31728   31749   31767   31782       5
   31722   31740   31758   31770       3   31719   31704   31722   31740       6
   31716   31701   31713   31728       4   31716   31731  -31749   31728       4
   31716   31731   31749   31767       4   31713   31701   31716   31731       4
   31713   31728  -31749   31731       4   31713   31728   31749   31767       4
   31710   31719   31704   31722       4   31704   31722   31740   31758       8
   31701   31713   31728   31749       4   31701   31716  -31731   31749       4
   31698   31686  -31689   31701       9   31698   31686   31695   31710      10
   31698   31713   31701   31716       4   31698   31713   31728   31749       4
   31695   31683   31692   31704       4   31695   31686   31689   31701      11
   31695   31686   31698   31713      12   31695   31710  -31719   31704       4
   31692   31683   31695   31710       4   31692   31704  -31719   31710       4
   31692   31704   31722   31740       6   31689   31680   31683   31692      13
   31689   31680  -31683   31692      14   31689   31680  -31683   31692      15
   31689   31680  -31683   31695      13   31689   31680  -31683   31695      14
   31689   31680  -31683   31695      15   31689   31680  -31686   31695      16
   31689   31680  -31686   31698      16   31689   31686   31695   31710      17
   31689   31686  -31698   31713      12   31689   31701  -31713   31698       4
   31689   31701   31713   31728       4   31689   31701   31716   31731       4
   31686   31680   31683   31692      18   31686   31680  -31683   31695      18
   31686   31680  -31689   31701      19   31686   31689  -31701   31713      20
   31686   31689   31701   31716      20   31686   31695  -31683   31692       4
   31686   31695   31710   31719       4   31686   31698  -31713   31701      21
   31686   31698   31713   31728      21   31683   31680  -31686   31689      16
   31683   31680  -31686   31695      16   31683   31680   31686   31698      16
   31683   31680  -31689   31686      19   31683   31680   31689   31701      19
   31683   31692   31704   31719       4   31683   31692   31704   31722       4
   31683   31695  -31686   31689      17   31683   31695  -31686   31698      10
   31683   31695  -31710   31719       4   31680   31683   31692   31704       4
   31680   31683  -31695   31686       4   31680   31683   31695   31710       4
   31680   31686  -31689   31701       9   31680   31686  -31695   31683      10
   31680   31686  -31695   31710      10   31680   31686   31698   31713      12
   31680   31689  -31686   31695       9   31680   31689  -31686   31698       9
   31680   31689  -31701   31713      22   31680   31689   31701   31716      22
   32016   32034   32037   32049       3   31998   32016   32034   32037       3
   31977   31998   32016   32034       3   31974   31959   31971   31986       4
   31974   31992  -32007   31986       4   31971   31959   31974   31992       4
   31971   31986  -32007   31992       4   31962   31977   31998   32016       3
   31959   31971   31986   32007       4   31959   31974  -31992   32007       4
   31950   31962   31977   31998       3   31941   31959   31971   31986       4
   31941   31959   31974   31992       4   31932   31950   31962   31977       3
   31923   31941   31959   31971       5   31923   31941   31959   31974       5
   31920   31941   31959   31971       5   31920   31941   31959   31974       5
   31914   31932   31950   31962       3   31911   31896   31914   31932       6
   31908   31893   31905   31920       4   31908   31923  -31941   31920       4
   31908   31923   31941   31959       4   31905   31893   31908   31923       4
   31905   31920  -31941   31923       4   31905   31920   31941   31959       4
   31902   31911   31896   31914       4   31896   31914   31932   31950       8
   31893   31905   31920   31941       4   31893   31908  -31923   31941       4
   31890   31878  -31881   31893       9   31890   31878   31887   31902      10
   31890   31905   31893   31908       4   31890   31905   31920   31941       4
   31887   31875   31884   31896       4   31887   31878   31881   31893      11
   31887   31878   31890   31905      12   31887   31902  -31911   31896       4
   31884   31875   31887   31902       4   31884   31896  -31911   31902       4
   31884   31896   31914   31932       6   31881   31872   31875   31884      13
   31881   31872  -31875   31884      14   31881   31872  -31875   31884      15
   31881   31872  -31875   31887      13   31881   31872  -31875   31887      14
   31881   31872  -31875   31887      15   31881   31872  -31878   31887      16
   31881   31872  -31878   31890      16   31881   31878   31887   31902      17
   31881   31878  -31890   31905      12   31881   31893  -31905   31890       4
   31881   31893   31905   31920       4   31881   31893   31908   31923       4
   31878   31872   31875   31884      18   31878   31872  -31875   31887      18
   31878   31872  -31881   31893      19   31878   31881  -31893   31905      20
   31878   31881   31893   31908      20   31878   31887  -31875   31884       4
   31878   31887   31902   31911       4   31878   31890  -31905   31893      21
   31878   31890   31905   31920      21   31875   31872  -31878   31881      16
   31875   31872  -31878   31887      16   31875   31872   31878   31890      16
   31875   31872  -31881   31878      19   31875   31872   31881   31893      19
   31875   31884   31896   31911       4   31875   31884   31896   31914       4
   31875   31887  -31878   31881      17   31875   31887  -31878   31890      10
   31875   31887  -31902   31911       4   31872   31875   31884   31896       4
   31872   31875  -31887   31878       4   31872   31875   31887   31902       4
   31872   31878  -31881   31893       9   31872   31878  -31887   31875      10
   31872   31878  -31887   31902      10   31872   31878   31890   31905      12
   31872   31881  -31878   31887       9   31872   31881  -31878   31890       9
   31872   31881  -31893   31905      22   31872   31881   31893   31908      22
   32208   32226   32229   32241       3   32190   32208   32226   32229       3
   32169   32190   32208   32226       3   32166   32151   32163   32178       4
   32166   32184  -32199   32178       4   32163   32151   32166   32184       4
   32163   32178  -32199   32184       4   32154   32169   32190   32208       3
   32151   32163   32178   32199       4   32151   32166  -32184   32199       4
   32142   32154   32169   32190       3   32133   32151   32163   32178       4
   32133   32151   32166   32184       4   32124   32142   32154   32169       3
   32115   32133   32151   32163       5   32115   32133   32151   32166       5
   32112   32133   32151   32163       5   32112   32133   32151   32166       5
   32106   32124   32142   32154       3   32103   32088   32106   32124       6
   32100   32085   32097   32112       4   32100   32115  -32133   32112       4
   32100   32115   32133   32151       4   32097   32085   32100   32115       4
   32097   32112  -32133   32115       4   32097   32112   32133   32151       4
   32094   32103   32088   32106       4   32088   32106   32124   32142       8
   32085   32097   32112   32133       4   32085   32100  -32115   32133       4
   32082   32070  -32073   32085       9   32082   32070   32079   32094      10
   32082   32097   32085   32100       4   32082   32097   32112   32133       4
   32079   32067   32076   32088       4   32079   32070   32073   32085      11
   32079   32070   32082   32097      12   32079   32094  -32103   32088       4
   32076   32067   32079   32094       4   32076   32088  -32103   32094       4
   32076   32088   32106   32124       6   32073   32064   32067   32076      13
   32073   32064  -32067   32076      14   32073   32064  -32067   32076      15
   32073   32064  -32067   32079      13   32073   32064  -32067   32079      14
   32073   32064  -32067   32079      15   32073   32064  -32070   32079      16
   32073   32064  -32070   32082      16   32073   32070   32079   32094      17
   32073   32070  -32082   32097      12   32073   32085  -32097   32082       4
   32073   32085   32097   32112       4   32073   32085   32100   32115       4
   32070   32064   32067   32076      18   32070   32064  -32067   32079      18
   32070   32064  -32073   32085      19   32070   32073  -32085   32097      20
   32070   32073   32085   32100      20   32070   32079  -32067   32076       4
   32070   32079   32094   32103       4   32070   32082  -32097   32085      21
   32070   32082   32097   32112      21   32067   32064  -32070   32073      16
   32067   32064  -32070   32079      16   32067   32064   32070   32082      16
   32067   32064  -32073   32070      19   32067   32064   32073   32085      19
   32067   32076   32088   32103       4   32067   32076   32088   32106       4
   32067   32079  -32070   32073      17   32067   32079  -32070   32082      10
   32067   32079  -32094   32103       4   32064   32067   32076   32088       4
   32064   32067  -32079   32070       4   32064   32067   32079   32094       4
   32064   32070  -32073   32085       9   32064   32070  -32079   32067      10
   32064   32070  -32079   32094      10   32064   32070   32082   32097      12
   32064   32073  -32070   32079       9   32064   32073  -32070   32082       9
   32064   32073  -32085   32097      22   32064   32073   32085   32100      22
   32400   32418   32421   32433       3   32382   32400   32418   32421       3
   32361   32382   32400   32418       3   32358   32343   32355   32370       4
   32358   32376  -32391   32370       4   32355   32343   32358   32376       4
   32355   32370  -32391   32376       4   32346   32361   32382   32400       3
   32343   32355   32370   32391       4   32343   32358  -32376   32391       4
   32334   32346   32361   32382       3   32325   32343   32355   32370       4
   32325   32343   32358   32376       4   32316   32334   32346   32361       3
   32307   32325   32343   32355       5   32307   32325   32343   32358       5
   32304   32325   32343   32355       5   32304   32325   32343   32358       5
   32298   32316   32334   32346       3   32295   32280   32298   32316       6
   32292   32277   32289   32304       4   32292   32307  -32325   32304       4
   32292   32307   32325   32343       4   32289   32277   32292   32307       4
   32289   32304  -32325   32307       4   32289   32304   32325   32343       4
   32286   32295   32280   32298       4   32280   32298   32316   32334       8
   32277   32289   32304   32325       4   32277   32292  -32307   32325       4
   32274   32262  -32265   32277       9   32274   32262   32271   32286      10
   32274   32289   32277   32292       4   32274   32289   32304   32325       4
   32271   32259   32268   32280       4   32271   32262   32265   32277      11
   32271   32262   32274   32289      12   32271   32286  -32295   32280       4
   32268   32259   32271   32286       4   32268   32280  -32295   32286       4
   32268   32280   32298   32316       6   32265   32256   32259   32268      13
   32265   32256  -32259   32268      14   32265   32256  -32259   32268      15
   32265   32256  -32259   32271      13   32265   32256  -32259   32271      14
   32265   32256  -32259   32271      15   32265   32256  -32262   32271      16
   32265   32256  -32262   32274      16   32265   32262   32271   32286      17
   32265   32262  -32274   32289      12   32265   32277  -32289   32274       4
   32265   32277   32289   32304       4   32265   32277   32292   32307       4
   32262   32256   32259   32268      18   32262   32256  -32259   32271      18
   32262   32256  -32265   32277      19   32262   32265  -32277   32289      20
   32262   32265   32277   32292      20   32262   32271  -32259   32268       4
   32262   32271   32286   32295       4   32262   32274  -32289   32277      21
   32262   32274   32289   32304      21   32259   32256  -32262   32265      16
   32259   32256  -32262   32271      16   32259   32256   32262   32274      16
   32259   32256  -32265   32262      19   32259   32256   32265   32277      19
   32259   32268   32280   32295       4   32259   32268   32280   32298       4
   32259   32271  -32262   32265      17   32259   32271  -32262   32274      10
   32259   32271  -32286   32295       4   32256   32259   32268   32280       4
   32256   32259  -32271   32262       4   32256   32259   32271   32286       4
   32256   32262  -32265   32277       9   32256   32262  -32271   32259      10
   32256   32262  -32271   32286      10   32256   32262   32274   32289      12
   32256   32265  -32262   32271       9   32256   32265  -32262   32274       9
   32256   32265  -32277   32289      22   32256   32265   32277   32292      22
   32592   32610   32613   32625       3   32574   32592   32610   32613       3
   32553   32574   32592   32610       3   32550   32535   32547   32562       4
   32550   32568  -32583   32562       4   32547   32535   32550   32568       4
   32547   32562  -32583   32568       4   32538   32553   32574   32592       3
   32535   32547   32562   32583       4   32535   32550  -32568   32583       4
   32526   32538   32553   32574       3   32517   32535   32547   32562       4
   32517   32535   32550   32568       4   32508   32526   32538   32553       3
   32499   32517   32535   32547       5   32499   32517   32535   32550       5
   32496   32517   32535   32547       5   32496   32517   32535   32550       5
   32490   32508   32526   32538       3   32487   32472   32490   32508       6
   32484   32469   32481   32496       4   32484   32499  -32517   32496       4
   32484   32499   32517   32535       4   32481   32469   32484   32499       4
   32481   32496  -32517   32499       4   32481   32496   32517   32535       4
   32478   32487   32472   32490       4   32472   32490   32508   32526       8
   32469   32481   32496   32517       4   32469   32484  -32499   32517       4
   32466   32454  -32457   32469       9   32466   32454   32463   32478      10
   32466   32481   32469   32484       4   32466   32481   32496   32517       4
   32463   32451   32460   32472       4   32463   32454   32457   32469      11
   32463   32454   32466   32481      12   32463   32478  -32487   32472       4
   32460   32451   32463   32478       4   32460   32472  -32487   32478       4
   32460   32472   32490   32508       6   32457   32448   32451   32460      13
   32457   32448  -32451   32460      14   32457   32448  -32451   32460      15
   32457   32448  -32451   32463      13   32457   32448  -32451   32463      14
   32457   32448  -32451   32463      15   32457   32448  -32454   32463      16
   32457   32448  -32454   32466      16   32457   32454   32463   32478      17
   32457   32454  -32466   32481      12   32457   32469  -32481   32466       4
   32457   32469   32481   32496       4   32457   32469   32484   32499       4
   32454   32448   32451   32460      18   32454   32448  -32451   32463      18
   32454   32448  -32457   32469      19   32454   32457  -32469   32481      20
   32454   32457   32469   32484      20   32454   32463  -32451   32460       4
   32454   32463   32478   32487       4   32454   32466  -32481   32469      21
   32454   32466   32481   32496      21   32451   32448  -32454   32457      16
   32451   32448  -32454   32463      16   32451   32448   32454   32466      16
   32451   32448  -32457   32454      19   32451   32448   32457   32469      19
   32451   32460   32472   32487       4   32451   32460   32472   32490       4
   32451   32463  -32454   32457      17   32451   32463  -32454   32466      10
   32451   32463  -32478   32487       4   32448   32451   32460   32472       4
   32448   32451  -32463   32454       4   32448   32451   32463   32478       4
   32448   32454  -32457   32469       9   32448   32454  -32463   32451      10
   32448   32454  -32463   32478      10   32448   32454   32466   32481      12
   32448   32457  -32454   32463       9   32448   32457  -32454   32466       9
   32448   32457  -32469   32481      22   32448   32457   32469   32484      22
   32784   32802   32805   32817       3   32766   32784   32802   32805       3
   32745   32766   32784   32802       3   32742   32727   32739   32754       4
   32742   32760  -32775   32754       4   32739   32727   32742   32760       4
   32739   32754  -32775   32760       4   32730   32745   32766   32784       3
   32727   32739   32754   32775       4   32727   32742  -32760   32775       4
   32718   32730   32745   32766       3   32709   32727   32739   32754       4
   32709   32727   32742   32760       4   32700   32718   32730   32745       3
   32691   32709   32727   32739       5   32691   32709   32727   32742       5
   32688   32709   32727   32739       5   32688   32709   32727   32742       5
   32682   32700   32718   32730       3   32679   32664   32682   32700       6
   32676   32661   32673   32688       4   32676   32691  -32709   32688       4
   32676   32691   32709   32727       4   32673   32661   32676   32691       4
   32673   32688  -32709   32691       4   32673   32688   32709   32727       4
   32670   32679   32664   32682       4   32664   32682   32700   32718       8
   32661   32673   32688   32709       4   32661   32676  -32691   32709       4
   32658   32646  -32649   32661       9   32658   32646   32655   32670      10
   32658   32673   32661   32676       4   32658   32673   32688   32709       4
   32655   32643   32652   32664       4   32655   32646   32649   32661      11
   32655   32646   32658   32673      12   32655   32670  -32679   32664       4
   32652   32643   32655   32670       4   32652   32664  -32679   32670       4
   32652   32664   32682   32700       6   32649   32640   32643   32652      13
   32649   32640  -32643   32652      14   32649   32640  -32643   32652      15
   32649   32640  -32643   32655      13   32649   32640  -32643   32655      14
   32649   32640  -32643   32655      15   32649   32640  -32646   32655      16
   32649   32640  -32646   32658      16   32649   32646   32655   32670      17
   32649   32646  -32658   32673      12   32649   32661  -32673   32658       4
   32649   32661   32673   32688       4   32649   32661   32676   32691       4
   32646   32640   32643   32652      18   32646   32640  -32643   32655      18
   32646   32640  -32649   32661      19   32646   32649  -32661   32673      20
   32646   32649   32661   32676      20   32646   32655  -32643   32652       4
   32646   32655   32670   32679       4   32646   32658  -32673   32661      21
   32646   32658   32673   32688      21   32643   32640  -32646   32649      16
   32643   32640  -32646   32655      16   32643   32640   32646   32658      16
   32643   32640  -32649   32646      19   32643   32640   32649   32661      19
   32643   32652   32664   32679       4   32643   32652   32664   32682       4
   32643   32655  -32646   32649      17   32643   32655  -32646   32658      10
   32643   32655  -32670   32679       4   32640   32643   32652   32664       4
   32640   32643  -32655   32646       4   32640   32643   32655   32670       4
   32640   32646  -32649   32661       9   32640   32646  -32655   32643      10
   32640   32646  -32655   32670      10   32640   32646   32658   32673      12
   32640   32649  -32646   32655       9   32640   32649  -32646   32658       9
   32640   32649  -32661   32673      22   32640   32649   32661   32676      22
   32976   32994   32997   33009       3   32958   32976   32994   32997       3
   32937   32958   32976   32994       3   32934   32919   32931   32946       4
   32934   32952  -32967   32946       4   32931   32919   32934   32952       4
   32931   32946  -32967   32952       4   32922   32937   32958   32976       3
   32919   32931   32946   32967       4   32919   32934  -32952   32967       4
   32910   32922   32937   32958       3   32901   32919   32931   32946       4
   32901   32919   32934   32952       4   32892   32910   32922   32937       3
   32883   32901   32919   32931       5   32883   32901   32919   32934       5
   32880   32901   32919   32931       5   32880   32901   32919   32934       5
   32874   32892   32910   32922       3   32871   32856   32874   32892       6
   32868   32853   32865   32880       4   32868   32883  -32901   32880       4
   32868   32883   32901   32919       4   32865   32853   32868   32883       4
   32865   32880  -32901   32883       4   32865   32880   32901   32919       4
   32862   32871   32856   32874       4   32856   32874   32892   32910       8
   32853   32865   32880   32901       4   32853   32868  -32883   32901       4
   32850   32838  -32841   32853       9   32850   32838   32847   32862      10
   32850   32865   32853   32868       4   32850   32865   32880   32901       4
   32847   32835   32844   32856       4   32847   32838   32841   32853      11
   32847   32838   32850   32865      12   32847   32862  -32871   32856       4
   32844   32835   32847   32862       4   32844   32856  -32871   32862       4
   32844   32856   32874   32892       6   32841   32832   32835   32844      13
   32841   32832  -32835   32844      14   32841   32832  -32835   32844      15
   32841   32832  -32835   32847      13   32841   32832  -32835   32847      14
   32841   32832  -32835   32847      15   32841   32832  -32838   32847      16
   32841   32832  -32838   32850      16   32841   32838   32847   32862      17
   32841   32838  -32850   32865      12   32841   32853  -32865   32850       4
   32841   32853   32865   32880       4   32841   32853   32868   32883       4
   32838   32832   32835   32844      18   32838   32832  -32835   32847      18
   32838   32832  -32841   32853      19   32838   32841  -32853   32865      20
   32838   32841   32853   32868      20   32838   32847  -32835   32844       4
   32838   32847   32862   32871       4   32838   32850  -32865   32853      21
   32838   32850   32865   32880      21   32835   32832  -32838   32841      16
   32835   32832  -32838   32847      16   32835   32832   32838   32850      16
   32835   32832  -32841   32838      19   32835   32832   32841   32853      19
   32835   32844   32856   32871       4   32835   32844   32856   32874       4
   32835   32847  -32838   32841      17   32835   32847  -32838   32850      10
   32835   32847  -32862   32871       4   32832   32835   32844   32856       4
   32832   32835  -32847   32838       4   32832   32835   32847   32862       4
   32832   32838  -32841   32853       9   32832   32838  -32847   32835      10
   32832   32838  -32847   32862      10   32832   32838   32850   32865      12
   32832   32841  -32838   32847       9   32832   32841  -32838   32850       9
   32832   32841  -32853   32865      22   32832   32841   32853   32868      22
   33168   33186   33189   33201       3   33150   33168   33186   33189       3
   33129   33150   33168   33186       3   33126   33111   33123   33138       4
   33126   33144  -33159   33138       4   33123   33111   33126   33144       4
   33123   33138  -33159   33144       4   33114   33129   33150   33168       3
   33111   33123   33138   33159       4   33111   33126  -33144   33159       4
   33102   33114   33129   33150       3   33093   33111   33123   33138       4
   33093   33111   33126   33144       4   33084   33102   33114   33129       3
   33075   33093   33111   33123       5   33075   33093   33111   33126       5
   33072   33093   33111   33123       5   33072   33093   33111   33126       5
   33066   33084   33102   33114       3   33063   33048   33066   33084       6
   33060   33045   33057   33072       4   33060   33075  -33093   33072       4
   33060   33075   33093   33111       4   33057   33045   33060   33075       4
   33057   33072  -33093   33075       4   33057   33072   33093   33111       4
   33054   33063   33048   33066       4   33048   33066   33084   33102       8
   33045   33057   33072   33093       4   33045   33060  -33075   33093       4
   33042   33030  -33033   33045       9   33042   33030   33039   33054      10
   33042   33057   33045   33060       4   33042   33057   33072   33093       4
   33039   33027   33036   33048       4   33039   33030   33033   33045      11
   33039   33030   33042   33057      12   33039   33054  -33063   33048       4
   33036   33027   33039   33054       4   33036   33048  -33063   33054       4
   33036   33048   33066   33084       6   33033   33024   33027   33036      13
   33033   33024  -33027   33036      14   33033   33024  -33027   33036      15
   33033   33024  -33027   33039      13   33033   33024  -33027   33039      14
   33033   33024  -33027   33039      15   33033   33024  -33030   33039      16
   33033   33024  -33030   33042      16   33033   33030   33039   33054      17
   33033   33030  -33042   33057      12   33033   33045  -33057   33042       4
   33033   33045   33057   33072       4   33033   33045   33060   33075       4
   33030   33024   33027   33036      18   33030   33024  -33027   33039      18
   33030   33024  -33033   33045      19   33030   33033  -33045   33057      20
   33030   33033   33045   33060      20   33030   33039  -33027   33036       4
   33030   33039   33054   33063       4   33030   33042  -33057   33045      21
   33030   33042   33057   33072      21   33027   33024  -33030   33033      16
   33027   33024  -33030   33039      16   33027   33024   33030   33042      16
   33027   33024  -33033   33030      19   33027   33024   33033   33045      19
   33027   33036   33048   33063       4   33027   33036   33048   33066       4
   33027   33039  -33030   33033      17   33027   33039  -33030   33042      10
   33027   33039  -33054   33063       4   33024   33027   33036   33048       4
   33024   33027  -33039   33030       4   33024   33027   33039   33054       4
   33024   33030  -33033   33045       9   33024   33030  -33039   33027      10
   33024   33030  -33039   33054      10   33024   33030   33042   33057      12
   33024   33033  -33030   33039       9   33024   33033  -33030   33042       9
   33024   33033  -33045   33057      22   33024   33033   33045   33060      22
   33360   33378   33381   33393       3   33342   33360   33378   33381       3
   33321   33342   33360   33378       3   33318   33303   33315   33330       4
   33318   33336  -33351   33330       4   33315   33303   33318   33336       4
   33315   33330  -33351   33336       4   33306   33321   33342   33360       3
   33303   33315   33330   33351       4   33303   33318  -33336   33351       4
   33294   33306   33321   33342       3   33285   33303   33315   33330       4
   33285   33303   33318   33336       4   33276   33294   33306   33321       3
   33267   33285   33303   33315       5   33267   33285   33303   33318       5
   33264   33285   33303   33315       5   33264   33285   33303   33318       5
   33258   33276   33294   33306       3   33255   33240   33258   33276       6
   33252   33237   33249   33264       4   33252   33267  -33285   33264       4
   33252   33267   33285   33303       4   33249   33237   33252   33267       4
   33249   33264  -33285   33267       4   33249   33264   33285   33303       4
   33246   33255   33240   33258       4   33240   33258   33276   33294       8
   33237   33249   33264   33285       4   33237   33252  -33267   33285       4
   33234   33222  -33225   33237       9   33234   33222   33231   33246      10
   33234   33249   33237   33252       4   33234   33249   33264   33285       4
   33231   33219   33228   33240       4   33231   33222   33225   33237      11
   33231   33222   33234   33249      12   33231   33246  -33255   33240       4
   33228   33219   33231   33246       4   33228   33240  -33255   33246       4
   33228   33240   33258   33276       6   33225   33216   33219   33228      13
   33225   33216  -33219   33228      14   33225   33216  -33219   33228      15
   33225   33216  -33219   33231      13   33225   33216  -33219   33231      14
   33225   33216  -33219   33231      15   33225   33216  -33222   33231      16
   33225   33216  -33222   33234      16   33225   33222   33231   33246      17
   33225   33222  -33234   33249      12   33225   33237  -33249   33234       4
   33225   33237   33249   33264       4   33225   33237   33252   33267       4
   33222   33216   33219   33228      18   33222   33216  -33219   33231      18
   33222   33216  -33225   33237      19   33222   33225  -33237   33249      20
   33222   33225   33237   33252      20   33222   33231  -33219   33228       4
   33222   33231   33246   33255       4   33222   33234  -33249   33237      21
   33222   33234   33249   33264      21   33219   33216  -33222   33225      16
   33219   33216  -33222   33231      16   33219   33216   33222   33234      16
   33219   33216  -33225   33222      19   33219   33216   33225   33237      19
   33219   33228   33240   33255       4   33219   33228   33240   33258       4
   33219   33231  -33222   33225      17   33219   33231  -33222   33234      10
   33219   33231  -33246   33255       4   33216   33219   33228   33240       4
   33216   33219  -33231   33222       4   33216   33219   33231   33246       4
   33216   33222  -33225   33237       9   33216   33222  -33231   33219      10
   33216   33222  -33231   33246      10   33216   33222   33234   33249      12
   33216   33225  -33222   33231       9   33216   33225  -33222   33234       9
   33216   33225  -33237   33249      22   33216   33225   33237   33252      22
   33552   33570   33573   33585       3   33534   33552   33570   33573       3
   33513   33534   33552   33570       3   33510   33495   33507   33522       4
   33510   33528  -33543   33522       4   33507   33495   33510   33528       4
   33507   33522  -33543   33528       4   33498   33513   33534   33552       3
   33495   33507   33522   33543       4   33495   33510  -33528   33543       4
   33486   33498   33513   33534       3   33477   33495   33507   33522       4
   33477   33495   33510   33528       4   33468   33486   33498   33513       3
   33459   33477   33495   33507       5   33459   33477   33495   33510       5
   33456   33477   33495   33507       5   33456   33477   33495   33510       5
   33450   33468   33486   33498       3   33447   33432   33450   33468       6
   33444   33429   33441   33456       4   33444   33459  -33477   33456       4
   33444   33459   33477   33495       4   33441   33429   33444   33459       4
   33441   33456  -33477   33459       4   33441   33456   33477   33495       4
   33438   33447   33432   33450       4   33432   33450   33468   33486       8
   33429   33441   33456   33477       4   33429   33444  -33459   33477       4
   33426   33414  -33417   33429       9   33426   33414   33423   33438      10
   33426   33441   33429   33444       4   33426   33441   33456   33477       4
   33423   33411   33420   33432       4   33423   33414   33417   33429      11
   33423   33414   33426   33441      12   33423   33438  -33447   33432       4
   33420   33411   33423   33438       4   33420   33432  -33447   33438       4
   33420   33432   33450   33468       6   33417   33408   33411   33420      13
   33417   33408  -33411   33420      14   33417   33408  -33411   33420      15
   33417   33408  -33411   33423      13   33417   33408  -33411   33423      14
   33417   33408  -33411   33423      15   33417   33408  -33414   33423      16
   33417   33408  -33414   33426      16   33417   33414   33423   33438      17
   33417   33414  -33426   33441      12   33417   33429  -33441   33426       4
   33417   33429   33441   33456       4   33417   33429   33444   33459       4
   33414   33408   33411   33420      18   33414   33408  -33411   33423      18
   33414   33408  -33417   33429      19   33414   33417  -33429   33441      20
   33414   33417   33429   33444      20   33414   33423  -33411   33420       4
   33414   33423   33438   33447       4   33414   33426  -33441   33429      21
   33414   33426   33441   33456      21   33411   33408  -33414   33417      16
   33411   33408  -33414   33423      16   33411   33408   33414   33426      16
   33411   33408  -33417   33414      19   33411   33408   33417   33429      19
   33411   33420   33432   33447       4   33411   33420   33432   33450       4
   33411   33423  -33414   33417      17   33411   33423  -33414   33426      10
   33411   33423  -33438   33447       4   33408   33411   33420   33432       4
   33408   33411  -33423   33414       4   33408   33411   33423   33438       4
   33408   33414  -33417   33429       9   33408   33414  -33423   33411      10
   33408   33414  -33423   33438      10   33408   33414   33426   33441      12
   33408   33417  -33414   33423       9   33408   33417  -33414   33426       9
   33408   33417  -33429   33441      22   33408   33417   33429   33444      22
   33744   33762   33765   33777       3   33726   33744   33762   33765       3
   33705   33726   33744   33762       3   33702   33687   33699   33714       4
   33702   33720  -33735   33714       4   33699   33687   33702   33720       4
   33699   33714  -33735   33720       4   33690   33705   33726   33744       3
   33687   33699   33714   33735       4   33687   33702  -33720   33735       4
   33678   33690   33705   33726       3   33669   33687   33699   33714       4
   33669   33687   33702   33720       4   33660   33678   33690   33705       3
   33651   33669   33687   33699       5   33651   33669   33687   33702       5
   33648   33669   33687   33699       5   33648   33669   33687   33702       5
   33642   33660   33678   33690       3   33639   33624   33642   33660       6
   33636   33621   33633   33648       4   33636   33651  -33669   33648       4
   33636   33651   33669   33687       4   33633   33621   33636   33651       4
   33633   33648  -33669   33651       4   33633   33648   33669   33687       4
   33630   33639   33624   33642       4   33624   33642   33660   33678       8
   33621   33633   33648   33669       4   33621   33636  -33651   33669       4
   33618   33606  -33609   33621       9   33618   33606   33615   33630      10
   33618   33633   33621   33636       4   33618   33633   33648   33669       4
   33615   33603   33612   33624       4   33615   33606   33609   33621      11
   33615   33606   33618   33633      12   33615   33630  -33639   33624       4
   33612   33603   33615   33630       4   33612   33624  -33639   33630       4
   33612   33624   33642   33660       6   33609   33600   33603   33612      13
   33609   33600  -33603   33612      14   33609   33600  -33603   33612      15
   33609   33600  -33603   33615      13   33609   33600  -33603   33615      14
   33609   33600  -33603   33615      15   33609   33600  -33606   33615      16
   33609   33600  -33606   33618      16   33609   33606   33615   33630      17
   33609   33606  -33618   33633      12   33609   33621  -33633   33618       4
   33609   33621   33633   33648       4   33609   33621   33636   33651       4
   33606   33600   33603   33612      18   33606   33600  -33603   33615      18
   33606   33600  -33609   33621      19   33606   33609  -33621   33633      20
   33606   33609   33621   33636      20   33606   33615  -33603   33612       4
   33606   33615   33630   33639       4   33606   33618  -33633   33621      21
   33606   33618   33633   33648      21   33603   33600  -33606   33609      16
   33603   33600  -33606   33615      16   33603   33600   33606   33618      16
   33603   33600  -33609   33606      19   33603   33600   33609   33621      19
   33603   33612   33624   33639       4   33603   33612   33624   33642       4
   33603   33615  -33606   33609      17   33603   33615  -33606   33618      10
   33603   33615  -33630   33639       4   33600   33603   33612   33624       4
   33600   33603  -33615   33606       4   33600   33603   33615   33630       4
   33600   33606  -33609   33621       9   33600   33606  -33615   33603      10
   33600   33606  -33615   33630      10   33600   33606   33618   33633      12
   33600   33609  -33606   33615       9   33600   33609  -33606   33618       9
   33600   33609  -33621   33633      22   33600   33609   33621   33636      22
   33936   33954   33957   33969       3   33918   33936   33954   33957       3
   33897   33918   33936   33954       3   33894   33879   33891   33906       4
   33894   33912  -33927   33906       4   33891   33879   33894   33912       4
   33891   33906  -33927   33912       4   33882   33897   33918   33936       3
   33879   33891   33906   33927       4   33879   33894  -33912   33927       4
   33870   33882   33897   33918       3   33861   33879   33891   33906       4
   33861   33879   33894   33912       4   33852   33870   33882   33897       3
   33843   33861   33879   33891       5   33843   33861   33879   33894       5
   33840   33861   33879   33891       5   33840   33861   33879   33894       5
   33834   33852   33870   33882       3   33831   33816   33834   33852       6
   33828   33813   33825   33840       4   33828   33843  -33861   33840       4
   33828   33843   33861   33879       4   33825   33813   33828   33843       4
   33825   33840  -33861   33843       4   33825   33840   33861   33879       4
   33822   33831   33816   33834       4   33816   33834   33852   33870       8
   33813   33825   33840   33861       4   33813   33828  -33843   33861       4
   33810   33798  -33801   33813       9   33810   33798   33807   33822      10
   33810   33825   33813   33828       4   33810   33825   33840   33861       4
   33807   33795   33804   33816       4   33807   33798   33801   33813      11
   33807   33798   33810   33825      12   33807   33822  -33831   33816       4
   33804   33795   33807   33822       4   33804   33816  -33831   33822       4
   33804   33816   33834   33852       6   33801   33792   33795   33804      13
   33801   33792  -33795   33804      14   33801   33792  -33795   33804      15
   33801   33792  -33795   33807      13   33801   33792  -33795   33807      14
   33801   33792  -33795   33807      15   33801   33792  -33798   33807      16
   33801   33792  -33798   33810      16   33801   33798   33807   33822      17
   33801   33798  -33810   33825      12   33801   33813  -33825   33810       4
   33801   33813   33825   33840       4   33801   33813   33828   33843       4
   33798   33792   33795   33804      18   33798   33792  -33795   33807      18
   33798   33792  -33801   33813      19   33798   33801  -33813   33825      20
   33798   33801   33813   33828      20   33798   33807  -33795   33804       4
   33798   33807   33822   33831       4   33798   33810  -33825   33813      21
   33798   33810   33825   33840      21   33795   33792  -33798   33801      16
   33795   33792  -33798   33807      16   33795   33792   33798   33810      16
   33795   33792  -33801   33798      19   33795   33792   33801   33813      19
   33795   33804   33816   33831       4   33795   33804   33816   33834       4
   33795   33807  -33798   33801      17   33795   33807  -33798   33810      10
   33795   33807  -33822   33831       4   33792   33795   33804   33816       4
   33792   33795  -33807   33798       4   33792   33795   33807   33822       4
   33792   33798  -33801   33813       9   33792   33798  -33807   33795      10
   33792   33798  -33807   33822      10   33792   33798   33810   33825      12
   33792   33801  -33798   33807       9   33792   33801  -33798   33810       9
   33792   33801  -33813   33825      22   33792   33801   33813   33828      22
   34128   34146   34149   34161       3   34110   34128   34146   34149       3
   34089   34110   34128   34146       3   34086   34071   34083   34098       4
   34086   34104  -34119   34098       4   34083   34071   34086   34104       4
   34083   34098  -34119   34104       4   34074   34089   34110   34128       3
   34071   34083   34098   34119       4   34071   34086  -34104   34119       4
   34062   34074   34089   34110       3   34053   34071   34083   34098       4
   34053   34071   34086   34104       4   34044   34062   34074   34089       3
   34035   34053   34071   34083       5   34035   34053   34071   34086       5
   34032   34053   34071   34083       5   34032   34053   34071   34086       5
   34026   34044   34062   34074       3   34023   34008   34026   34044       6
   34020   34005   34017   34032       4   34020   34035  -34053   34032       4
   34020   34035   34053   34071       4   34017   34005   34020   34035       4
   34017   34032  -34053   34035       4   34017   34032   34053   34071       4
   34014   34023   34008   34026       4   34008   34026   34044   34062       8
   34005   34017   34032   34053       4   34005   34020  -34035   34053       4
   34002   33990  -33993   34005       9   34002   33990   33999   34014      10
   34002   34017   34005   34020       4   34002   34017   34032   34053       4
   33999   33987   33996   34008       4   33999   33990   33993   34005      11
   33999   33990   34002   34017      12   33999   34014  -34023   34008       4
   33996   33987   33999   34014       4   33996   34008  -34023   34014       4
   33996   34008   34026   34044       6   33993   33984   33987   33996      13
   33993   33984  -33987   33996      14   33993   33984  -33987   33996      15
   33993   33984  -33987   33999      13   33993   33984  -33987   33999      14
   33993   33984  -33987   33999      15   33993   33984  -33990   33999      16
   33993   33984  -33990   34002      16   33993   33990   33999   34014      17
   33993   33990  -34002   34017      12   33993   34005  -34017   34002       4
   33993   34005   34017   34032       4   33993   34005   34020   34035       4
   33990   33984   33987   33996      18   33990   33984  -33987   33999      18
   33990   33984  -33993   34005      19   33990   33993  -34005   34017      20
   33990   33993   34005   34020      20   33990   33999  -33987   33996       4
   33990   33999   34014   34023       4   33990   34002  -34017   34005      21
   33990   34002   34017   34032      21   33987   33984  -33990   33993      16
   33987   33984  -33990   33999      16   33987   33984   33990   34002      16
   33987   33984  -33993   33990      19   33987   33984   33993   34005      19
   33987   33996   34008   34023       4   33987   33996   34008   34026       4
   33987   33999  -33990   33993      17   33987   33999  -33990   34002      10
   33987   33999  -34014   34023       4   33984   33987   33996   34008       4
   33984   33987  -33999   33990       4   33984   33987   33999   34014       4
   33984   33990  -33993   34005       9   33984   33990  -33999   33987      10
   33984   33990  -33999   34014      10   33984   33990   34002   34017      12
   33984   33993  -33990   33999       9   33984   33993  -33990   34002       9
   33984   33993  -34005   34017      22   33984   33993   34005   34020      22
   34320   34338   34341   34353       3   34302   34320   34338   34341       3
   34281   34302   34320   34338       3   34278   34263   34275   34290       4
   34278   34296  -34311   34290       4   34275   34263   34278   34296       4
   34275   34290  -34311   34296       4   34266   34281   34302   34320       3
   34263   34275   34290   34311       4   34263   34278  -34296   34311       4
   34254   34266   34281   34302       3   34245   34263   34275   34290       4
   34245   34263   34278   34296       4   34236   34254   34266   34281       3
   34227   34245   34263   34275       5   34227   34245   34263   34278       5
   34224   34245   34263   34275       5   34224   34245   34263   34278       5
   34218   34236   34254   34266       3   34215   34200   34218   34236       6
   34212   34197   34209   34224       4   34212   34227  -34245   34224       4
   34212   34227   34245   34263       4   34209   34197   34212   34227       4
   34209   34224  -34245   34227       4   34209   34224   34245   34263       4
   34206   34215   34200   34218       4   34200   34218   34236   34254       8
   34197   34209   34224   34245       4   34197   34212  -34227   34245       4
   34194   34182  -34185   34197       9   34194   34182   34191   34206      10
   34194   34209   34197   34212       4   34194   34209   34224   34245       4
   34191   34179   34188   34200       4   34191   34182   34185   34197      11
   34191   34182   34194   34209      12   34191   34206  -34215   34200       4
   34188   34179   34191   34206       4   34188   34200  -34215   34206       4
   34188   34200   34218   34236       6   34185   34176   34179   34188      13
   34185   34176  -34179   34188      14   34185   34176  -34179   34188      15
   34185   34176  -34179   34191      13   34185   34176  -34179   34191      14
   34185   34176  -34179   34191      15   34185   34176  -34182   34191      16
   34185   34176  -34182   34194      16   34185   34182   34191   34206      17
   34185   34182  -34194   34209      12   34185   34197  -34209   34194       4
   34185   34197   34209   34224       4   34185   34197   34212   34227       4
   34182   34176   34179   34188      18   34182   34176  -34179   34191      18
   34182   34176  -34185   34197      19   34182   34185  -34197   34209      20
   34182   34185   34197   34212      20   34182   34191  -34179   34188       4
   34182   34191   34206   34215       4   34182   34194  -34209   34197      21
   34182   34194   34209   34224      21   34179   34176  -34182   34185      16
   34179   34176  -34182   34191      16   34179   34176   34182   34194      16
   34179   34176  -34185   34182      19   34179   34176   34185   34197      19
   34179   34188   34200   34215       4   34179   34188   34200   34218       4
   34179   34191  -34182   34185      17   34179   34191  -34182   34194      10
   34179   34191  -34206   34215       4   34176   34179   34188   34200       4
   34176   34179  -34191   34182       4   34176   34179   34191   34206       4
   34176   34182  -34185   34197       9   34176   34182  -34191   34179      10
   34176   34182  -34191   34206      10   34176   34182   34194   34209      12
   34176   34185  -34182   34191       9   34176   34185  -34182   34194       9
   34176   34185  -34197   34209      22   34176   34185   34197   34212      22
   34512   34530   34533   34545       3   34494   34512   34530   34533       3
   34473   34494   34512   34530       3   34470   34455   34467   34482       4
   34470   34488  -34503   34482       4   34467   34455   34470   34488       4
   34467   34482  -34503   34488       4   34458   34473   34494   34512       3
   34455   34467   34482   34503       4   34455   34470  -34488   34503       4
   34446   34458   34473   34494       3   34437   34455   34467   34482       4
   34437   34455   34470   34488       4   34428   34446   34458   34473       3
   34419   34437   34455   34467       5   34419   34437   34455   34470       5
   34416   34437   34455   34467       5   34416   34437   34455   34470       5
   34410   34428   34446   34458       3   34407   34392   34410   34428       6
   34404   34389   34401   34416       4   34404   34419  -34437   34416       4
   34404   34419   34437   34455       4   34401   34389   34404   34419       4
   34401   34416  -34437   34419       4   34401   34416   34437   34455       4
   34398   34407   34392   34410       4   34392   34410   34428   34446       8
   34389   34401   34416   34437       4   34389   34404  -34419   34437       4
   34386   34374  -34377   34389       9   34386   34374   34383   34398      10
   34386   34401   34389   34404       4   34386   34401   34416   34437       4
   34383   34371   34380   34392       4   34383   34374   34377   34389      11
   34383   34374   34386   34401      12   34383   34398  -34407   34392       4
   34380   34371   34383   34398       4   34380   34392  -34407   34398       4
   34380   34392   34410   34428       6   34377   34368   34371   34380      13
   34377   34368  -34371   34380      14   34377   34368  -34371   34380      15
   34377   34368  -34371   34383      13   34377   34368  -34371   34383      14
   34377   34368  -34371   34383      15   34377   34368  -34374   34383      16
   34377   34368  -34374   34386      16   34377   34374   34383   34398      17
   34377   34374  -34386   34401      12   34377   34389  -34401   34386       4
   34377   34389   34401   34416       4   34377   34389   34404   34419       4
   34374   34368   34371   34380      18   34374   34368  -34371   34383      18
   34374   34368  -34377   34389      19   34374   34377  -34389   34401      20
   34374   34377   34389   34404      20   34374   34383  -34371   34380       4
   34374   34383   34398   34407       4   34374   34386  -34401   34389      21
   34374   34386   34401   34416      21   34371   34368  -34374   34377      16
   34371   34368  -34374   34383      16   34371   34368   34374   34386      16
   34371   34368  -34377   34374      19   34371   34368   34377   34389      19
   34371   34380   34392   34407       4   34371   34380   34392   34410       4
   34371   34383  -34374   34377      17   34371   34383  -34374   34386      10
   34371   34383  -34398   34407       4   34368   34371   34380   34392       4
   34368   34371  -34383   34374       4   34368   34371   34383   34398       4
   34368   34374  -34377   34389       9   34368   34374  -34383   34371      10
   34368   34374  -34383   34398      10   34368   34374   34386   34401      12
   34368   34377  -34374   34383       9   34368   34377  -34374   34386       9
   34368   34377  -34389   34401      22   34368   34377   34389   34404      22
   34704   34722   34725   34737       3   34686   34704   34722   34725       3
   34665   34686   34704   34722       3   34662   34647   34659   34674       4
   34662   34680  -34695   34674       4   34659   34647   34662   34680       4
   34659   34674  -34695   34680       4   34650   34665   34686   34704       3
   34647   34659   34674   34695       4   34647   34662  -34680   34695       4
   34638   34650   34665   34686       3   34629   34647   34659   34674       4
   34629   34647   34662   34680       4   34620   34638   34650   34665       3
   34611   34629   34647   34659       5   34611   34629   34647   34662       5
   34608   34629   34647   34659       5   34608   34629   34647   34662       5
   34602   34620   34638   34650       3   34599   34584   34602   34620       6
   34596   34581   34593   34608       4   34596   34611  -34629   34608       4
   34596   34611   34629   34647       4   34593   34581   34596   34611       4
   34593   34608  -34629   34611       4   34593   34608   34629   34647       4
   34590   34599   34584   34602       4   34584   34602   34620   34638       8
   34581   34593   34608   34629       4   34581   34596  -34611   34629       4
   34578   34566  -34569   34581       9   34578   34566   34575   34590      10
   34578   34593   34581   34596       4   34578   34593   34608   34629       4
   34575   34563   34572   34584       4   34575   34566   34569   34581      11
   34575   34566   34578   34593      12   34575   34590  -34599   34584       4
   34572   34563   34575   34590       4   34572   34584  -34599   34590       4
   34572   34584   34602   34620       6   34569   34560   34563   34572      13
   34569   34560  -34563   34572      14   34569   34560  -34563   34572      15
   34569   34560  -34563   34575      13   34569   34560  -34563   34575      14
   34569   34560  -34563   34575      15   34569   34560  -34566   34575      16
   34569   34560  -34566   34578      16   34569   34566   34575   34590      17
   34569   34566  -34578   34593      12   34569   34581  -34593   34578       4
   34569   34581   34593   34608       4   34569   34581   34596   34611       4
   34566   34560   34563   34572      18   34566   34560  -34563   34575      18
   34566   34560  -34569   34581      19   34566   34569  -34581   34593      20
   34566   34569   34581   34596      20   34566   34575  -34563   34572       4
   34566   34575   34590   34599       4   34566   34578  -34593   34581      21
   34566   34578   34593   34608      21   34563   34560  -34566   34569      16
   34563   34560  -34566   34575      16   34563   34560   34566   34578      16
   34563   34560  -34569   34566      19   34563   34560   34569   34581      19
   34563   34572   34584   34599       4   34563   34572   34584   34602       4
   34563   34575  -34566   34569      17   34563   34575  -34566   34578      10
   34563   34575  -34590   34599       4   34560   34563   34572   34584       4
   34560   34563  -34575   34566       4   34560   34563   34575   34590       4
   34560   34566  -34569   34581       9   34560   34566  -34575   34563      10
   34560   34566  -34575   34590      10   34560   34566   34578   34593      12
   34560   34569  -34566   34575       9   34560   34569  -34566   34578       9
   34560   34569  -34581   34593      22   34560   34569   34581   34596      22
   34896   34914   34917   34929       3   34878   34896   34914   34917       3
   34857   34878   34896   34914       3   34854   34839   34851   34866       4
   34854   34872  -34887   34866       4   34851   34839   34854   34872       4
   34851   34866  -34887   34872       4   34842   34857   34878   34896       3
   34839   34851   34866   34887       4   34839   34854  -34872   34887       4
   34830   34842   34857   34878       3   34821   34839   34851   34866       4
   34821   34839   34854   34872       4   34812   34830   34842   34857       3
   34803   34821   34839   34851       5   34803   34821   34839   34854       5
   34800   34821   34839   34851       5   34800   34821   34839   34854       5
   34794   34812   34830   34842       3   34791   34776   34794   34812       6
   34788   34773   34785   34800       4   34788   34803  -34821   34800       4
   34788   34803   34821   34839       4   34785   34773   34788   34803       4
   34785   34800  -34821   34803       4   34785   34800   34821   34839       4
   34782   34791   34776   34794       4   34776   34794   34812   34830       8
   34773   34785   34800   34821       4   34773   34788  -34803   34821       4
   34770   34758  -34761   34773       9   34770   34758   34767   34782      10
   34770   34785   34773   34788       4   34770   34785   34800   34821       4
   34767   34755   34764   34776       4   34767   34758   34761   34773      11
   34767   34758   34770   34785      12   34767   34782  -34791   34776       4
   34764   34755   34767   34782       4   34764   34776  -34791   34782       4
   34764   34776   34794   34812       6   34761   34752   34755   34764      13
   34761   34752  -34755   34764      14   34761   34752  -34755   34764      15
   34761   34752  -34755   34767      13   34761   34752  -34755   34767      14
   34761   34752  -34755   34767      15   34761   34752  -34758   34767      16
   34761   34752  -34758   34770      16   34761   34758   34767   34782      17
   34761   34758  -34770   34785      12   34761   34773  -34785   34770       4
   34761   34773   34785   34800       4   34761   34773   34788   34803       4
   34758   34752   34755   34764      18   34758   34752  -34755   34767      18
   34758   34752  -34761   34773      19   34758   34761  -34773   34785      20
   34758   34761   34773   34788      20   34758   34767  -34755   34764       4
   34758   34767   34782   34791       4   34758   34770  -34785   34773      21
   34758   34770   34785   34800      21   34755   34752  -34758   34761      16
   34755   34752  -34758   34767      16   34755   34752   34758   34770      16
   34755   34752  -34761   34758      19   34755   34752   34761   34773      19
   34755   34764   34776   34791       4   34755   34764   34776   34794       4
   34755   34767  -34758   34761      17   34755   34767  -34758   34770      10
   34755   34767  -34782   34791       4   34752   34755   34764   34776       4
   34752   34755  -34767   34758       4   34752   34755   34767   34782       4
   34752   34758  -34761   34773       9   34752   34758  -34767   34755      10
   34752   34758  -34767   34782      10   34752   34758   34770   34785      12
   34752   34761  -34758   34767       9   34752   34761  -34758   34770       9
   34752   34761  -34773   34785      22   34752   34761   34773   34788      22
   35088   35106   35109   35121       3   35070   35088   35106   35109       3
   35049   35070   35088   35106       3   35046   35031   35043   35058       4
   35046   35064  -35079   35058       4   35043   35031   35046   35064       4
   35043   35058  -35079   35064       4   35034   35049   35070   35088       3
   35031   35043   35058   35079       4   35031   35046  -35064   35079       4
   35022   35034   35049   35070       3   35013   35031   35043   35058       4
   35013   35031   35046   35064       4   35004   35022   35034   35049       3
   34995   35013   35031   35043       5   34995   35013   35031   35046       5
   34992   35013   35031   35043       5   34992   35013   35031   35046       5
   34986   35004   35022   35034       3   34983   34968   34986   35004       6
   34980   34965   34977   34992       4   34980   34995  -35013   34992       4
   34980   34995   35013   35031       4   34977   34965   34980   34995       4
   34977   34992  -35013   34995       4   34977   34992   35013   35031       4
   34974   34983   34968   34986       4   34968   34986   35004   35022       8
   34965   34977   34992   35013       4   34965   34980  -34995   35013       4
   34962   34950  -34953   34965       9   34962   34950   34959   34974      10
   34962   34977   34965   34980       4   34962   34977   34992   35013       4
   34959   34947   34956   34968       4   34959   34950   34953   34965      11
   34959   34950   34962   34977      12   34959   34974  -34983   34968       4
   34956   34947   34959   34974       4   34956   34968  -34983   34974       4
   34956   34968   34986   35004       6   34953   34944   34947   34956      13
   34953   34944  -34947   34956      14   34953   34944  -34947   34956      15
   34953   34944  -34947   34959      13   34953   34944  -34947   34959      14
   34953   34944  -34947   34959      15   34953   34944  -34950   34959      16
   34953   34944  -34950   34962      16   34953   34950   34959   34974      17
   34953   34950  -34962   34977      12   34953   34965  -34977   34962       4
   34953   34965   34977   34992       4   34953   34965   34980   34995       4
   34950   34944   34947   34956      18   34950   34944  -34947   34959      18
   34950   34944  -34953   34965      19   34950   34953  -34965   34977      20
   34950   34953   34965   34980      20   34950   34959  -34947   34956       4
   34950   34959   34974   34983       4   34950   34962  -34977   34965      21
   34950   34962   34977   34992      21   34947   34944  -34950   34953      16
   34947   34944  -34950   34959      16   34947   34944   34950   34962      16
   34947   34944  -34953   34950      19   34947   34944   34953   34965      19
   34947   34956   34968   34983       4   34947   34956   34968   34986       4
   34947   34959  -34950   34953      17   34947   34959  -34950   34962      10
   34947   34959  -34974   34983       4   34944   34947   34956   34968       4
   34944   34947  -34959   34950       4   34944   34947   34959   34974       4
   34944   34950  -34953   34965       9   34944   34950  -34959   34947      10
   34944   34950  -34959   34974      10   34944   34950   34962   34977      12
   34944   34953  -34950   34959       9   34944   34953  -34950   34962       9
   34944   34953  -34965   34977      22   34944   34953   34965   34980      22
   35280   35298   35301   35313       3   35262   35280   35298   35301       3
   35241   35262   35280   35298       3   35238   35223   35235   35250       4
   35238   35256  -35271   35250       4   35235   35223   35238   35256       4
   35235   35250  -35271   35256       4   35226   35241   35262   35280       3
   35223   35235   35250   35271       4   35223   35238  -35256   35271       4
   35214   35226   35241   35262       3   35205   35223   35235   35250       4
   35205   35223   35238   35256       4   35196   35214   35226   35241       3
   35187   35205   35223   35235       5   35187   35205   35223   35238       5
   35184   35205   35223   35235       5   35184   35205   35223   35238       5
   35178   35196   35214   35226       3   35175   35160   35178   35196       6
   35172   35157   35169   35184       4   35172   35187  -35205   35184       4
   35172   35187   35205   35223       4   35169   35157   35172   35187       4
   35169   35184  -35205   35187       4   35169   35184   35205   35223       4
   35166   35175   35160   35178       4   35160   35178   35196   35214       8
   35157   35169   35184   35205       4   35157   35172  -35187   35205       4
   35154   35142  -35145   35157       9   35154   35142   35151   35166      10
   35154   35169   35157   35172       4   35154   35169   35184   35205       4
   35151   35139   35148   35160       4   35151   35142   35145   35157      11
   35151   35142   35154   35169      12   35151   35166  -35175   35160       4
   35148   35139   35151   35166       4   35148   35160  -35175   35166       4
   35148   35160   35178   35196       6   35145   35136   35139   35148      13
   35145   35136  -35139   35148      14   35145   35136  -35139   35148      15
   35145   35136  -35139   35151      13   35145   35136  -35139   35151      14
   35145   35136  -35139   35151      15   35145   35136  -35142   35151      16
   35145   35136  -35142   35154      16   35145   35142   35151   35166      17
   35145   35142  -35154   35169      12   35145   35157  -35169   35154       4
   35145   35157   35169   35184       4   35145   35157   35172   35187       4
   35142   35136   35139   35148      18   35142   35136  -35139   35151      18
   35142   35136  -35145   35157      19   35142   35145  -35157   35169      20
   35142   35145   35157   35172      20   35142   35151  -35139   35148       4
   35142   35151   35166   35175       4   35142   35154  -35169   35157      21
   35142   35154   35169   35184      21   35139   35136  -35142   35145      16
   35139   35136  -35142   35151      16   35139   35136   35142   35154      16
   35139   35136  -35145   35142      19   35139   35136   35145   35157      19
   35139   35148   35160   35175       4   35139   35148   35160   35178       4
   35139   35151  -35142   35145      17   35139   35151  -35142   35154      10
   35139   35151  -35166   35175       4   35136   35139   35148   35160       4
   35136   35139  -35151   35142       4   35136   35139   35151   35166       4
   35136   35142  -35145   35157       9   35136   35142  -35151   35139      10
   35136   35142  -35151   35166      10   35136   35142   35154   35169      12
   35136   35145  -35142   35151       9   35136   35145  -35142   35154       9
   35136   35145  -35157   35169      22   35136   35145   35157   35172      22
   35472   35490   35493   35505       3   35454   35472   35490   35493       3
   35433   35454   35472   35490       3   35430   35415   35427   35442       4
   35430   35448  -35463   35442       4   35427   35415   35430   35448       4
   35427   35442  -35463   35448       4   35418   35433   35454   35472       3
   35415   35427   35442   35463       4   35415   35430  -35448   35463       4
   35406   35418   35433   35454       3   35397   35415   35427   35442       4
   35397   35415   35430   35448       4   35388   35406   35418   35433       3
   35379   35397   35415   35427       5   35379   35397   35415   35430       5
   35376   35397   35415   35427       5   35376   35397   35415   35430       5
   35370   35388   35406   35418       3   35367   35352   35370   35388       6
   35364   35349   35361   35376       4   35364   35379  -35397   35376       4
   35364   35379   35397   35415       4   35361   35349   35364   35379       4
   35361   35376  -35397   35379       4   35361   35376   35397   35415       4
   35358   35367   35352   35370       4   35352   35370   35388   35406       8
   35349   35361   35376   35397       4   35349   35364  -35379   35397       4
   35346   35334  -35337   35349       9   35346   35334   35343   35358      10
   35346   35361   35349   35364       4   35346   35361   35376   35397       4
   35343   35331   35340   35352       4   35343   35334   35337   35349      11
   35343   35334   35346   35361      12   35343   35358  -35367   35352       4
   35340   35331   35343   35358       4   35340   35352  -35367   35358       4
   35340   35352   35370   35388       6   35337   35328   35331   35340      13
   35337   35328  -35331   35340      14   35337   35328  -35331   35340      15
   35337   35328  -35331   35343      13   35337   35328  -35331   35343      14
   35337   35328  -35331   35343      15   35337   35328  -35334   35343      16
   35337   35328  -35334   35346      16   35337   35334   35343   35358      17
   35337   35334  -35346   35361      12   35337   35349  -35361   35346       4
   35337   35349   35361   35376       4   35337   35349   35364   35379       4
   35334   35328   35331   35340      18   35334   35328  -35331   35343      18
   35334   35328  -35337   35349      19   35334   35337  -35349   35361      20
   35334   35337   35349   35364      20   35334   35343  -35331   35340       4
   35334   35343   35358   35367       4   35334   35346  -35361   35349      21
   35334   35346   35361   35376      21   35331   35328  -35334   35337      16
   35331   35328  -35334   35343      16   35331   35328   35334   35346      16
   35331   35328  -35337   35334      19   35331   35328   35337   35349      19
   35331   35340   35352   35367       4   35331   35340   35352   35370       4
   35331   35343  -35334   35337      17   35331   35343  -35334   35346      10
   35331   35343  -35358   35367       4   35328   35331   35340   35352       4
   35328   35331  -35343   35334       4   35328   35331   35343   35358       4
   35328   35334  -35337   35349       9   35328   35334  -35343   35331      10
   35328   35334  -35343   35358      10   35328   35334   35346   35361      12
   35328   35337  -35334   35343       9   35328   35337  -35334   35346       9
   35328   35337  -35349   35361      22   35328   35337   35349   35364      22
   35664   35682   35685   35697       3   35646   35664   35682   35685       3
   35625   35646   35664   35682       3   35622   35607   35619   35634       4
   35622   35640  -35655   35634       4   35619   35607   35622   35640       4
   35619   35634  -35655   35640       4   35610   35625   35646   35664       3
   35607   35619   35634   35655       4   35607   35622  -35640   35655       4
   35598   35610   35625   35646       3   35589   35607   35619   35634       4
   35589   35607   35622   35640       4   35580   35598   35610   35625       3
   35571   35589   35607   35619       5   35571   35589   35607   35622       5
   35568   35589   35607   35619       5   35568   35589   35607   35622       5
   35562   35580   35598   35610       3   35559   35544   35562   35580       6
   35556   35541   35553   35568       4   35556   35571  -35589   35568       4
   35556   35571   35589   35607       4   35553   35541   35556   35571       4
   35553   35568  -35589   35571       4   35553   35568   35589   35607       4
   35550   35559   35544   35562       4   35544   35562   35580   35598       8
   35541   35553   35568   35589       4   35541   35556  -35571   35589       4
   35538   35526  -35529   35541       9   35538   35526   35535   35550      10
   35538   35553   35541   35556       4   35538   35553   35568   35589       4
   35535   35523   35532   35544       4   35535   35526   35529   35541      11
   35535   35526   35538   35553      12   35535   35550  -35559   35544       4
   35532   35523   35535   35550       4   35532   35544  -35559   35550       4
   35532   35544   35562   35580       6   35529   35520   35523   35532      13
   35529   35520  -35523   35532      14   35529   35520  -35523   35532      15
   35529   35520  -35523   35535      13   35529   35520  -35523   35535      14
   35529   35520  -35523   35535      15   35529   35520  -35526   35535      16
   35529   35520  -35526   35538      16   35529   35526   35535   35550      17
   35529   35526  -35538   35553      12   35529   35541  -35553   35538       4
   35529   35541   35553   35568       4   35529   35541   35556   35571       4
   35526   35520   35523   35532      18   35526   35520  -35523   35535      18
   35526   35520  -35529   35541      19   35526   35529  -35541   35553      20
   35526   35529   35541   35556      20   35526   35535  -35523   35532       4
   35526   35535   35550   35559       4   35526   35538  -35553   35541      21
   35526   35538   35553   35568      21   35523   35520  -35526   35529      16
   35523   35520  -35526   35535      16   35523   35520   35526   35538      16
   35523   35520  -35529   35526      19   35523   35520   35529   35541      19
   35523   35532   35544   35559       4   35523   35532   35544   35562       4
   35523   35535  -35526   35529      17   35523   35535  -35526   35538      10
   35523   35535  -35550   35559       4   35520   35523   35532   35544       4
   35520   35523  -35535   35526       4   35520   35523   35535   35550       4
   35520   35526  -35529   35541       9   35520   35526  -35535   35523      10
   35520   35526  -35535   35550      10   35520   35526   35538   35553      12
   35520   35529  -35526   35535       9   35520   35529  -35526   35538       9
   35520   35529  -35541   35553      22   35520   35529   35541   35556      22
   35856   35874   35877   35889       3   35838   35856   35874   35877       3
   35817   35838   35856   35874       3   35814   35799   35811   35826       4
   35814   35832  -35847   35826       4   35811   35799   35814   35832       4
   35811   35826  -35847   35832       4   35802   35817   35838   35856       3
   35799   35811   35826   35847       4   35799   35814  -35832   35847       4
   35790   35802   35817   35838       3   35781   35799   35811   35826       4
   35781   35799   35814   35832       4   35772   35790   35802   35817       3
   35763   35781   35799   35811       5   35763   35781   35799   35814       5
   35760   35781   35799   35811       5   35760   35781   35799   35814       5
   35754   35772   35790   35802       3   35751   35736   35754   35772       6
   35748   35733   35745   35760       4   35748   35763  -35781   35760       4
   35748   35763   35781   35799       4   35745   35733   35748   35763       4
   35745   35760  -35781   35763       4   35745   35760   35781   35799       4
   35742   35751   35736   35754       4   35736   35754   35772   35790       8
   35733   35745   35760   35781       4   35733   35748  -35763   35781       4
   35730   35718  -35721   35733       9   35730   35718   35727   35742      10
   35730   35745   35733   35748       4   35730   35745   35760   35781       4
   35727   35715   35724   35736       4   35727   35718   35721   35733      11
   35727   35718   35730   35745      12   35727   35742  -35751   35736       4
   35724   35715   35727   35742       4   35724   35736  -35751   35742       4
   35724   35736   35754   35772       6   35721   35712   35715   35724      13
   35721   35712  -35715   35724      14   35721   35712  -35715   35724      15
   35721   35712  -35715   35727      13   35721   35712  -35715   35727      14
   35721   35712  -35715   35727      15   35721   35712  -35718   35727      16
   35721   35712  -35718   35730      16   35721   35718   35727   35742      17
   35721   35718  -35730   35745      12   35721   35733  -35745   35730       4
   35721   35733   35745   35760       4   35721   35733   35748   35763       4
   35718   35712   35715   35724      18   35718   35712  -35715   35727      18
   35718   35712  -35721   35733      19   35718   35721  -35733   35745      20
   35718   35721   35733   35748      20   35718   35727  -35715   35724       4
   35718   35727   35742   35751       4   35718   35730  -35745   35733      21
   35718   35730   35745   35760      21   35715   35712  -35718   35721      16
   35715   35712  -35718   35727      16   35715   35712   35718   35730      16
   35715   35712  -35721   35718      19   35715   35712   35721   35733      19
   35715   35724   35736   35751       4   35715   35724   35736   35754       4
   35715   35727  -35718   35721      17   35715   35727  -35718   35730      10
   35715   35727  -35742   35751       4   35712   35715   35724   35736       4
   35712   35715  -35727   35718       4   35712   35715   35727   35742       4
   35712   35718  -35721   35733       9   35712   35718  -35727   35715      10
   35712   35718  -35727   35742      10   35712   35718   35730   35745      12
   35712   35721  -35718   35727       9   35712   35721  -35718   35730       9
   35712   35721  -35733   35745      22   35712   35721   35733   35748      22
   36048   36066   36069   36081       3   36030   36048   36066   36069       3
   36009   36030   36048   36066       3   36006   35991   36003   36018       4
   36006   36024  -36039   36018       4   36003   35991   36006   36024       4
   36003   36018  -36039   36024       4   35994   36009   36030   36048       3
   35991   36003   36018   36039       4   35991   36006  -36024   36039       4
   35982   35994   36009   36030       3   35973   35991   36003   36018       4
   35973   35991   36006   36024       4   35964   35982   35994   36009       3
   35955   35973   35991   36003       5   35955   35973   35991   36006       5
   35952   35973   35991   36003       5   35952   35973   35991   36006       5
   35946   35964   35982   35994       3   35943   35928   35946   35964       6
   35940   35925   35937   35952       4   35940   35955  -35973   35952       4
   35940   35955   35973   35991       4   35937   35925   35940   35955       4
   35937   35952  -35973   35955       4   35937   35952   35973   35991       4
   35934   35943   35928   35946       4   35928   35946   35964   35982       8
   35925   35937   35952   35973       4   35925   35940  -35955   35973       4
   35922   35910  -35913   35925       9   35922   35910   35919   35934      10
   35922   35937   35925   35940       4   35922   35937   35952   35973       4
   35919   35907   35916   35928       4   35919   35910   35913   35925      11
   35919   35910   35922   35937      12   35919   35934  -35943   35928       4
   35916   35907   35919   35934       4   35916   35928  -35943   35934       4
   35916   35928   35946   35964       6   35913   35904   35907   35916      13
   35913   35904  -35907   35916      14   35913   35904  -35907   35916      15
   35913   35904  -35907   35919      13   35913   35904  -35907   35919      14
   35913   35904  -35907   35919      15   35913   35904  -35910   35919      16
   35913   35904  -35910   35922      16   35913   35910   35919   35934      17
   35913   35910  -35922   35937      12   35913   35925  -35937   35922       4
   35913   35925   35937   35952       4   35913   35925   35940   35955       4
   35910   35904   35907   35916      18   35910   35904  -35907   35919      18
   35910   35904  -35913   35925      19   35910   35913  -35925   35937      20
   35910   35913   35925   35940      20   35910   35919  -35907   35916       4
   35910   35919   35934   35943       4   35910   35922  -35937   35925      21
   35910   35922   35937   35952      21   35907   35904  -35910   35913      16
   35907   35904  -35910   35919      16   35907   35904   35910   35922      16
   35907   35904  -35913   35910      19   35907   35904   35913   35925      19
   35907   35916   35928   35943       4   35907   35916   35928   35946       4
   35907   35919  -35910   35913      17   35907   35919  -35910   35922      10
   35907   35919  -35934   35943       4   35904   35907   35916   35928       4
   35904   35907  -35919   35910       4   35904   35907   35919   35934       4
   35904   35910  -35913   35925       9   35904   35910  -35919   35907      10
   35904   35910  -35919   35934      10   35904   35910   35922   35937      12
   35904   35913  -35910   35919       9   35904   35913  -35910   35922       9
   35904   35913  -35925   35937      22   35904   35913   35925   35940      22
   36240   36258   36261   36273       3   36222   36240   36258   36261       3
   36201   36222   36240   36258       3   36198   36183   36195   36210       4
   36198   36216  -36231   36210       4   36195   36183   36198   36216       4
   36195   36210  -36231   36216       4   36186   36201   36222   36240       3
   36183   36195   36210   36231       4   36183   36198  -36216   36231       4
   36174   36186   36201   36222       3   36165   36183   36195   36210       4
   36165   36183   36198   36216       4   36156   36174   36186   36201       3
   36147   36165   36183   36195       5   36147   36165   36183   36198       5
   36144   36165   36183   36195       5   36144   36165   36183   36198       5
   36138   36156   36174   36186       3   36135   36120   36138   36156       6
   36132   36117   36129   36144       4   36132   36147  -36165   36144       4
   36132   36147   36165   36183       4   36129   36117   36132   36147       4
   36129   36144  -36165   36147       4   36129   36144   36165   36183       4
   36126   36135   36120   36138       4   36120   36138   36156   36174       8
   36117   36129   36144   36165       4   36117   36132  -36147   36165       4
   36114   36102  -36105   36117       9   36114   36102   36111   36126      10
   36114   36129   36117   36132       4   36114   36129   36144   36165       4
   36111   36099   36108   36120       4   36111   36102   36105   36117      11
   36111   36102   36114   36129      12   36111   36126  -36135   36120       4
   36108   36099   36111   36126       4   36108   36120  -36135   36126       4
   36108   36120   36138   36156       6   36105   36096   36099   36108      13
   36105   36096  -36099   36108      14   36105   36096  -36099   36108      15
   36105   36096  -36099   36111      13   36105   36096  -36099   36111      14
   36105   36096  -36099   36111      15   36105   36096  -36102   36111      16
   36105   36096  -36102   36114      16   36105   36102   36111   36126      17
   36105   36102  -36114   36129      12   36105   36117  -36129   36114       4
   36105   36117   36129   36144       4   36105   36117   36132   36147       4
   36102   36096   36099   36108      18   36102   36096  -36099   36111      18
   36102   36096  -36105   36117      19   36102   36105  -36117   36129      20
   36102   36105   36117   36132      20   36102   36111  -36099   36108       4
   36102   36111   36126   36135       4   36102   36114  -36129   36117      21
   36102   36114   36129   36144      21   36099   36096  -36102   36105      16
   36099   36096  -36102   36111      16   36099   36096   36102   36114      16
   36099   36096  -36105   36102      19   36099   36096   36105   36117      19
   36099   36108   36120   36135       4   36099   36108   36120   36138       4
   36099   36111  -36102   36105      17   36099   36111  -36102   36114      10
   36099   36111  -36126   36135       4   36096   36099   36108   36120       4
   36096   36099  -36111   36102       4   36096   36099   36111   36126       4
   36096   36102  -36105   36117       9   36096   36102  -36111   36099      10
   36096   36102  -36111   36126      10   36096   36102   36114   36129      12
   36096   36105  -36102   36111       9   36096   36105  -36102   36114       9
   36096   36105  -36117   36129      22   36096   36105   36117   36132      22
   36432   36450   36453   36465       3   36414   36432   36450   36453       3
   36393   36414   36432   36450       3   36390   36375   36387   36402       4
   36390   36408  -36423   36402       4   36387   36375   36390   36408       4
   36387   36402  -36423   36408       4   36378   36393   36414   36432       3
   36375   36387   36402   36423       4   36375   36390  -36408   36423       4
   36366   36378   36393   36414       3   36357   36375   36387   36402       4
   36357   36375   36390   36408       4   36348   36366   36378   36393       3
   36339   36357   36375   36387       5   36339   36357   36375   36390       5
   36336   36357   36375   36387       5   36336   36357   36375   36390       5
   36330   36348   36366   36378       3   36327   36312   36330   36348       6
   36324   36309   36321   36336       4   36324   36339  -36357   36336       4
   36324   36339   36357   36375       4   36321   36309   36324   36339       4
   36321   36336  -36357   36339       4   36321   36336   36357   36375       4
   36318   36327   36312   36330       4   36312   36330   36348   36366       8
   36309   36321   36336   36357       4   36309   36324  -36339   36357       4
   36306   36294  -36297   36309       9   36306   36294   36303   36318      10
   36306   36321   36309   36324       4   36306   36321   36336   36357       4
   36303   36291   36300   36312       4   36303   36294   36297   36309      11
   36303   36294   36306   36321      12   36303   36318  -36327   36312       4
   36300   36291   36303   36318       4   36300   36312  -36327   36318       4
   36300   36312   36330   36348       6   36297   36288   36291   36300      13
   36297   36288  -36291   36300      14   36297   36288  -36291   36300      15
   36297   36288  -36291   36303      13   36297   36288  -36291   36303      14
   36297   36288  -36291   36303      15   36297   36288  -36294   36303      16
   36297   36288  -36294   36306      16   36297   36294   36303   36318      17
   36297   36294  -36306   36321      12   36297   36309  -36321   36306       4
   36297   36309   36321   36336       4   36297   36309   36324   36339       4
   36294   36288   36291   36300      18   36294   36288  -36291   36303      18
   36294   36288  -36297   36309      19   36294   36297  -36309   36321      20
   36294   36297   36309   36324      20   36294   36303  -36291   36300       4
   36294   36303   36318   36327       4   36294   36306  -36321   36309      21
   36294   36306   36321   36336      21   36291   36288  -36294   36297      16
   36291   36288  -36294   36303      16   36291   36288   36294   36306      16
   36291   36288  -36297   36294      19   36291   36288   36297   36309      19
   36291   36300   36312   36327       4   36291   36300   36312   36330       4
   36291   36303  -36294   36297      17   36291   36303  -36294   36306      10
   36291   36303  -36318   36327       4   36288   36291   36300   36312       4
   36288   36291  -36303   36294       4   36288   36291   36303   36318       4
   36288   36294  -36297   36309       9   36288   36294  -36303   36291      10
   36288   36294  -36303   36318      10   36288   36294   36306   36321      12
   36288   36297  -36294   36303       9   36288   36297  -36294   36306       9
   36288   36297  -36309   36321      22   36288   36297   36309   36324      22
   36624   36642   36645   36657       3   36606   36624   36642   36645       3
   36585   36606   36624   36642       3   36582   36567   36579   36594       4
   36582   36600  -36615   36594       4   36579   36567   36582   36600       4
   36579   36594  -36615   36600       4   36570   36585   36606   36624       3
   36567   36579   36594   36615       4   36567   36582  -36600   36615       4
   36558   36570   36585   36606       3   36549   36567   36579   36594       4
   36549   36567   36582   36600       4   36540   36558   36570   36585       3
   36531   36549   36567   36579       5   36531   36549   36567   36582       5
   36528   36549   36567   36579       5   36528   36549   36567   36582       5
   36522   36540   36558   36570       3   36519   36504   36522   36540       6
   36516   36501   36513   36528       4   36516   36531  -36549   36528       4
   36516   36531   36549   36567       4   36513   36501   36516   36531       4
   36513   36528  -36549   36531       4   36513   36528   36549   36567       4
   36510   36519   36504   36522       4   36504   36522   36540   36558       8
   36501   36513   36528   36549       4   36501   36516  -36531   36549       4
   36498   36486  -36489   36501       9   36498   36486   36495   36510      10
   36498   36513   36501   36516       4   36498   36513   36528   36549       4
   36495   36483   36492   36504       4   36495   36486   36489   36501      11
   36495   36486   36498   36513      12   36495   36510  -36519   36504       4
   36492   36483   36495   36510       4   36492   36504  -36519   36510       4
   36492   36504   36522   36540       6   36489   36480   36483   36492      13
   36489   36480  -36483   36492      14   36489   36480  -36483   36492      15
   36489   36480  -36483   36495      13   36489   36480  -36483   36495      14
   36489   36480  -36483   36495      15   36489   36480  -36486   36495      16
   36489   36480  -36486   36498      16   36489   36486   36495   36510      17
   36489   36486  -36498   36513      12   36489   36501  -36513   36498       4
   36489   36501   36513   36528       4   36489   36501   36516   36531       4
   36486   36480   36483   36492      18   36486   36480  -36483   36495      18
   36486   36480  -36489   36501      19   36486   36489  -36501   36513      20
   36486   36489   36501   36516      20   36486   36495  -36483   36492       4
   36486   36495   36510   36519       4   36486   36498  -36513   36501      21
   36486   36498   36513   36528      21   36483   36480  -36486   36489      16
   36483   36480  -36486   36495      16   36483   36480   36486   36498      16
   36483   36480  -36489   36486      19   36483   36480   36489   36501      19
   36483   36492   36504   36519       4   36483   36492   36504   36522       4
   36483   36495  -36486   36489      17   36483   36495  -36486   36498      10
   36483   36495  -36510   36519       4   36480   36483   36492   36504       4
   36480   36483  -36495   36486       4   36480   36483   36495   36510       4
   36480   36486  -36489   36501       9   36480   36486  -36495   36483      10
   36480   36486  -36495   36510      10   36480   36486   36498   36513      12
   36480   36489  -36486   36495       9   36480   36489  -36486   36498       9
   36480   36489  -36501   36513      22   36480   36489   36501   36516      22
   36816   36834   36837   36849       3   36798   36816   36834   36837       3
   36777   36798   36816   36834       3   36774   36759   36771   36786       4
   36774   36792  -36807   36786       4   36771   36759   36774   36792       4
   36771   36786  -36807   36792       4   36762   36777   36798   36816       3
   36759   36771   36786   36807       4   36759   36774  -36792   36807       4
   36750   36762   36777   36798       3   36741   36759   36771   36786       4
   36741   36759   36774   36792       4   36732   36750   36762   36777       3
   36723   36741   36759   36771       5   36723   36741   36759   36774       5
   36720   36741   36759   36771       5   36720   36741   36759   36774       5
   36714   36732   36750   36762       3   36711   36696   36714   36732       6
   36708   36693   36705   36720       4   36708   36723  -36741   36720       4
   36708   36723   36741   36759       4   36705   36693   36708   36723       4
   36705   36720  -36741   36723       4   36705   36720   36741   36759       4
   36702   36711   36696   36714       4   36696   36714   36732   36750       8
   36693   36705   36720   36741       4   36693   36708  -36723   36741       4
   36690   36678  -36681   36693       9   36690   36678   36687   36702      10
   36690   36705   36693   36708       4   36690   36705   36720   36741       4
   36687   36675   36684   36696       4   36687   36678   36681   36693      11
   36687   36678   36690   36705      12   36687   36702  -36711   36696       4
   36684   36675   36687   36702       4   36684   36696  -36711   36702       4
   36684   36696   36714   36732       6   36681   36672   36675   36684      13
   36681   36672  -36675   36684      14   36681   36672  -36675   36684      15
   36681   36672  -36675   36687      13   36681   36672  -36675   36687      14
   36681   36672  -36675   36687      15   36681   36672  -36678   36687      16
   36681   36672  -36678   36690      16   36681   36678   36687   36702      17
   36681   36678  -36690   36705      12   36681   36693  -36705   36690       4
   36681   36693   36705   36720       4   36681   36693   36708   36723       4
   36678   36672   36675   36684      18   36678   36672  -36675   36687      18
   36678   36672  -36681   36693      19   36678   36681  -36693   36705      20
   36678   36681   36693   36708      20   36678   36687  -36675   36684       4
   36678   36687   36702   36711       4   36678   36690  -36705   36693      21
   36678   36690   36705   36720      21   36675   36672  -36678   36681      16
   36675   36672  -36678   36687      16   36675   36672   36678   36690      16
   36675   36672  -36681   36678      19   36675   36672   36681   36693      19
   36675   36684   36696   36711       4   36675   36684   36696   36714       4
   36675   36687  -36678   36681      17   36675   36687  -36678   36690      10
   36675   36687  -36702   36711       4   36672   36675   36684   36696       4
   36672   36675  -36687   36678       4   36672   36675   36687   36702       4
   36672   36678  -36681   36693       9   36672   36678  -36687   36675      10
   36672   36678  -36687   36702      10   36672   36678   36690   36705      12
   36672   36681  -36678   36687       9   36672   36681  -36678   36690       9
   36672   36681  -36693   36705      22   36672   36681   36693   36708      22
   37008   37026   37029   37041       3   36990   37008   37026   37029       3
   36969   36990   37008   37026       3   36966   36951   36963   36978       4
   36966   36984  -36999   36978       4   36963   36951   36966   36984       4
   36963   36978  -36999   36984       4   36954   36969   36990   37008       3
   36951   36963   36978   36999       4   36951   36966  -36984   36999       4
   36942   36954   36969   36990       3   36933   36951   36963   36978       4
   36933   36951   36966   36984       4   36924   36942   36954   36969       3
   36915   36933   36951   36963       5   36915   36933   36951   36966       5
   36912   36933   36951   36963       5   36912   36933   36951   36966       5
   36906   36924   36942   36954       3   36903   36888   36906   36924       6
   36900   36885   36897   36912       4   36900   36915  -36933   36912       4
   36900   36915   36933   36951       4   36897   36885   36900   36915       4
   36897   36912  -36933   36915       4   36897   36912   36933   36951       4
   36894   36903   36888   36906       4   36888   36906   36924   36942       8
   36885   36897   36912   36933       4   36885   36900  -36915   36933       4
   36882   36870  -36873   36885       9   36882   36870   36879   36894      10
   36882   36897   36885   36900       4   36882   36897   36912   36933       4
   36879   36867   36876   36888       4   36879   36870   36873   36885      11
   36879   36870   36882   36897      12   36879   36894  -36903   36888       4
   36876   36867   36879   36894       4   36876   36888  -36903   36894       4
   36876   36888   36906   36924       6   36873   36864   36867   36876      13
   36873   36864  -36867   36876      14   36873   36864  -36867   36876      15
   36873   36864  -36867   36879      13   36873   36864  -36867   36879      14
   36873   36864  -36867   36879      15   36873   36864  -36870   36879      16
   36873   36864  -36870   36882      16   36873   36870   36879   36894      17
   36873   36870  -36882   36897      12   36873   36885  -36897   36882       4
   36873   36885   36897   36912       4   36873   36885   36900   36915       4
   36870   36864   36867   36876      18   36870   36864  -36867   36879      18
   36870   36864  -36873   36885      19   36870   36873  -36885   36897      20
   36870   36873   36885   36900      20   36870   36879  -36867   36876       4
   36870   36879   36894   36903       4   36870   36882  -36897   36885      21
   36870   36882   36897   36912      21   36867   36864  -36870   36873      16
   36867   36864  -36870   36879      16   36867   36864   36870   36882      16
   36867   36864  -36873   36870      19   36867   36864   36873   36885      19
   36867   36876   36888   36903       4   36867   36876   36888   36906       4
   36867   36879  -36870   36873      17   36867   36879  -36870   36882      10
   36867   36879  -36894   36903       4   36864   36867   36876   36888       4
   36864   36867  -36879   36870       4   36864   36867   36879   36894       4
   36864   36870  -36873   36885       9   36864   36870  -36879   36867      10
   36864   36870  -36879   36894      10   36864   36870   36882   36897      12
   36864   36873  -36870   36879       9   36864   36873  -36870   36882       9
   36864   36873  -36885   36897      22   36864   36873   36885   36900      22
   37200   37218   37221   37233       3   37182   37200   37218   37221       3
   37161   37182   37200   37218       3   37158   37143   37155   37170       4
   37158   37176  -37191   37170       4   37155   37143   37158   37176       4
   37155   37170  -37191   37176       4   37146   37161   37182   37200       3
   37143   37155   37170   37191       4   37143   37158  -37176   37191       4
   37134   37146   37161   37182       3   37125   37143   37155   37170       4
   37125   37143   37158   37176       4   37116   37134   37146   37161       3
   37107   37125   37143   37155       5   37107   37125   37143   37158       5
   37104   37125   37143   37155       5   37104   37125   37143   37158       5
   37098   37116   37134   37146       3   37095   37080   37098   37116       6
   37092   37077   37089   37104       4   37092   37107  -37125   37104       4
   37092   37107   37125   37143       4   37089   37077   37092   37107       4
   37089   37104  -37125   37107       4   37089   37104   37125   37143       4
   37086   37095   37080   37098       4   37080   37098   37116   37134       8
   37077   37089   37104   37125       4   37077   37092  -37107   37125       4
   37074   37062  -37065   37077       9   37074   37062   37071   37086      10
   37074   37089   37077   37092       4   37074   37089   37104   37125       4
   37071   37059   37068   37080       4   37071   37062   37065   37077      11
   37071   37062   37074   37089      12   37071   37086  -37095   37080       4
   37068   37059   37071   37086       4   37068   37080  -37095   37086       4
   37068   37080   37098   37116       6   37065   37056   37059   37068      13
   37065   37056  -37059   37068      14   37065   37056  -37059   37068      15
   37065   37056  -37059   37071      13   37065   37056  -37059   37071      14
   37065   37056  -37059   37071      15   37065   37056  -37062   37071      16
   37065   37056  -37062   37074      16   37065   37062   37071   37086      17
   37065   37062  -37074   37089      12   37065   37077  -37089   37074       4
   37065   37077   37089   37104       4   37065   37077   37092   37107       4
   37062   37056   37059   37068      18   37062   37056  -37059   37071      18
   37062   37056  -37065   37077      19   37062   37065  -37077   37089      20
   37062   37065   37077   37092      20   37062   37071  -37059   37068       4
   37062   37071   37086   37095       4   37062   37074  -37089   37077      21
   37062   37074   37089   37104      21   37059   37056  -37062   37065      16
   37059   37056  -37062   37071      16   37059   37056   37062   37074      16
   37059   37056  -37065   37062      19   37059   37056   37065   37077      19
   37059   37068   37080   37095       4   37059   37068   37080   37098       4
   37059   37071  -37062   37065      17   37059   37071  -37062   37074      10
   37059   37071  -37086   37095       4   37056   37059   37068   37080       4
   37056   37059  -37071   37062       4   37056   37059   37071   37086       4
   37056   37062  -37065   37077       9   37056   37062  -37071   37059      10
   37056   37062  -37071   37086      10   37056   37062   37074   37089      12
   37056   37065  -37062   37071       9   37056   37065  -37062   37074       9
   37056   37065  -37077   37089      22   37056   37065   37077   37092      22
   37392   37410   37413   37425       3   37374   37392   37410   37413       3
   37353   37374   37392   37410       3   37350   37335   37347   37362       4
   37350   37368  -37383   37362       4   37347   37335   37350   37368       4
   37347   37362  -37383   37368       4   37338   37353   37374   37392       3
   37335   37347   37362   37383       4   37335   37350  -37368   37383       4
   37326   37338   37353   37374       3   37317   37335   37347   37362       4
   37317   37335   37350   37368       4   37308   37326   37338   37353       3
   37299   37317   37335   37347       5   37299   37317   37335   37350       5
   37296   37317   37335   37347       5   37296   37317   37335   37350       5
   37290   37308   37326   37338       3   37287   37272   37290   37308       6
   37284   37269   37281   37296       4   37284   37299  -37317   37296       4
   37284   37299   37317   37335       4   37281   37269   37284   37299       4
   37281   37296  -37317   37299       4   37281   37296   37317   37335       4
   37278   37287   37272   37290       4   37272   37290   37308   37326       8
   37269   37281   37296   37317       4   37269   37284  -37299   37317       4
   37266   37254  -37257   37269       9   37266   37254   37263   37278      10
   37266   37281   37269   37284       4   37266   37281   37296   37317       4
   37263   37251   37260   37272       4   37263   37254   37257   37269      11
   37263   37254   37266   37281      12   37263   37278  -37287   37272       4
   37260   37251   37263   37278       4   37260   37272  -37287   37278       4
   37260   37272   37290   37308       6   37257   37248   37251   37260      13
   37257   37248  -37251   37260      14   37257   37248  -37251   37260      15
   37257   37248  -37251   37263      13   37257   37248  -37251   37263      14
   37257   37248  -37251   37263      15   37257   37248  -37254   37263      16
   37257   37248  -37254   37266      16   37257   37254   37263   37278      17
   37257   37254  -37266   37281      12   37257   37269  -37281   37266       4
   37257   37269   37281   37296       4   37257   37269   37284   37299       4
   37254   37248   37251   37260      18   37254   37248  -37251   37263      18
   37254   37248  -37257   37269      19   37254   37257  -37269   37281      20
   37254   37257   37269   37284      20   37254   37263  -37251   37260       4
   37254   37263   37278   37287       4   37254   37266  -37281   37269      21
   37254   37266   37281   37296      21   37251   37248  -37254   37257      16
   37251   37248  -37254   37263      16   37251   37248   37254   37266      16
   37251   37248  -37257   37254      19   37251   37248   37257   37269      19
   37251   37260   37272   37287       4   37251   37260   37272   37290       4
   37251   37263  -37254   37257      17   37251   37263  -37254   37266      10
   37251   37263  -37278   37287       4   37248   37251   37260   37272       4
   37248   37251  -37263   37254       4   37248   37251   37263   37278       4
   37248   37254  -37257   37269       9   37248   37254  -37263   37251      10
   37248   37254  -37263   37278      10   37248   37254   37266   37281      12
   37248   37257  -37254   37263       9   37248   37257  -37254   37266       9
   37248   37257  -37269   37281      22   37248   37257   37269   37284      22
   37584   37602   37605   37617       3   37566   37584   37602   37605       3
   37545   37566   37584   37602       3   37542   37527   37539   37554       4
   37542   37560  -37575   37554       4   37539   37527   37542   37560       4
   37539   37554  -37575   37560       4   37530   37545   37566   37584       3
   37527   37539   37554   37575       4   37527   37542  -37560   37575       4
   37518   37530   37545   37566       3   37509   37527   37539   37554       4
   37509   37527   37542   37560       4   37500   37518   37530   37545       3
   37491   37509   37527   37539       5   37491   37509   37527   37542       5
   37488   37509   37527   37539       5   37488   37509   37527   37542       5
   37482   37500   37518   37530       3   37479   37464   37482   37500       6
   37476   37461   37473   37488       4   37476   37491  -37509   37488       4
   37476   37491   37509   37527       4   37473   37461   37476   37491       4
   37473   37488  -37509   37491       4   37473   37488   37509   37527       4
   37470   37479   37464   37482       4   37464   37482   37500   37518       8
   37461   37473   37488   37509       4   37461   37476  -37491   37509       4
   37458   37446  -37449   37461       9   37458   37446   37455   37470      10
   37458   37473   37461   37476       4   37458   37473   37488   37509       4
   37455   37443   37452   37464       4   37455   37446   37449   37461      11
   37455   37446   37458   37473      12   37455   37470  -37479   37464       4
   37452   37443   37455   37470       4   37452   37464  -37479   37470       4
   37452   37464   37482   37500       6   37449   37440   37443   37452      13
   37449   37440  -37443   37452      14   37449   37440  -37443   37452      15
   37449   37440  -37443   37455      13   37449   37440  -37443   37455      14
   37449   37440  -37443   37455      15   37449   37440  -37446   37455      16
   37449   37440  -37446   37458      16   37449   37446   37455   37470      17
   37449   37446  -37458   37473      12   37449   37461  -37473   37458       4
   37449   37461   37473   37488       4   37449   37461   37476   37491       4
   37446   37440   37443   37452      18   37446   37440  -37443   37455      18
   37446   37440  -37449   37461      19   37446   37449  -37461   37473      20
   37446   37449   37461   37476      20   37446   37455  -37443   37452       4
   37446   37455   37470   37479       4   37446   37458  -37473   37461      21
   37446   37458   37473   37488      21   37443   37440  -37446   37449      16
   37443   37440  -37446   37455      16   37443   37440   37446   37458      16
   37443   37440  -37449   37446      19   37443   37440   37449   37461      19
   37443   37452   37464   37479       4   37443   37452   37464   37482       4
   37443   37455  -37446   37449      17   37443   37455  -37446   37458      10
   37443   37455  -37470   37479       4   37440   37443   37452   37464       4
   37440   37443  -37455   37446       4   37440   37443   37455   37470       4
   37440   37446  -37449   37461       9   37440   37446  -37455   37443      10
   37440   37446  -37455   37470      10   37440   37446   37458   37473      12
   37440   37449  -37446   37455       9   37440   37449  -37446   37458       9
   37440   37449  -37461   37473      22   37440   37449   37461   37476      22
   37776   37794   37797   37809       3   37758   37776   37794   37797       3
   37737   37758   37776   37794       3   37734   37719   37731   37746       4
   37734   37752  -37767   37746       4   37731   37719   37734   37752       4
   37731   37746  -37767   37752       4   37722   37737   37758   37776       3
   37719   37731   37746   37767       4   37719   37734  -37752   37767       4
   37710   37722   37737   37758       3   37701   37719   37731   37746       4
   37701   37719   37734   37752       4   37692   37710   37722   37737       3
   37683   37701   37719   37731       5   37683   37701   37719   37734       5
   37680   37701   37719   37731       5   37680   37701   37719   37734       5
   37674   37692   37710   37722       3   37671   37656   37674   37692       6
   37668   37653   37665   37680       4   37668   37683  -37701   37680       4
   37668   37683   37701   37719       4   37665   37653   37668   37683       4
   37665   37680  -37701   37683       4   37665   37680   37701   37719       4
   37662   37671   37656   37674       4   37656   37674   37692   37710       8
   37653   37665   37680   37701       4   37653   37668  -37683   37701       4
   37650   37638  -37641   37653       9   37650   37638   37647   37662      10
   37650   37665   37653   37668       4   37650   37665   37680   37701       4
   37647   37635   37644   37656       4   37647   37638   37641   37653      11
   37647   37638   37650   37665      12   37647   37662  -37671   37656       4
   37644   37635   37647   37662       4   37644   37656  -37671   37662       4
   37644   37656   37674   37692       6   37641   37632   37635   37644      13
   37641   37632  -37635   37644      14   37641   37632  -37635   37644      15
   37641   37632  -37635   37647      13   37641   37632  -37635   37647      14
   37641   37632  -37635   37647      15   37641   37632  -37638   37647      16
   37641   37632  -37638   37650      16   37641   37638   37647   37662      17
   37641   37638  -37650   37665      12   37641   37653  -37665   37650       4
   37641   37653   37665   37680       4   37641   37653   37668   37683       4
   37638   37632   37635   37644      18   37638   37632  -37635   37647      18
   37638   37632  -37641   37653      19   37638   37641  -37653   37665      20
   37638   37641   37653   37668      20   37638   37647  -37635   37644       4
   37638   37647   37662   37671       4   37638   37650  -37665   37653      21
   37638   37650   37665   37680      21   37635   37632  -37638   37641      16
   37635   37632  -37638   37647      16   37635   37632   37638   37650      16
   37635   37632  -37641   37638      19   37635   37632   37641   37653      19
   37635   37644   37656   37671       4   37635   37644   37656   37674       4
   37635   37647  -37638   37641      17   37635   37647  -37638   37650      10
   37635   37647  -37662   37671       4   37632   37635   37644   37656       4
   37632   37635  -37647   37638       4   37632   37635   37647   37662       4
   37632   37638  -37641   37653       9   37632   37638  -37647   37635      10
   37632   37638  -37647   37662      10   37632   37638   37650   37665      12
   37632   37641  -37638   37647       9   37632   37641  -37638   37650       9
   37632   37641  -37653   37665      22   37632   37641   37653   37668      22
   37968   37986   37989   38001       3   37950   37968   37986   37989       3
   37929   37950   37968   37986       3   37926   37911   37923   37938       4
   37926   37944  -37959   37938       4   37923   37911   37926   37944       4
   37923   37938  -37959   37944       4   37914   37929   37950   37968       3
   37911   37923   37938   37959       4   37911   37926  -37944   37959       4
   37902   37914   37929   37950       3   37893   37911   37923   37938       4
   37893   37911   37926   37944       4   37884   37902   37914   37929       3
   37875   37893   37911   37923       5   37875   37893   37911   37926       5
   37872   37893   37911   37923       5   37872   37893   37911   37926       5
   37866   37884   37902   37914       3   37863   37848   37866   37884       6
   37860   37845   37857   37872       4   37860   37875  -37893   37872       4
   37860   37875   37893   37911       4   37857   37845   37860   37875       4
   37857   37872  -37893   37875       4   37857   37872   37893   37911       4
   37854   37863   37848   37866       4   37848   37866   37884   37902       8
   37845   37857   37872   37893       4   37845   37860  -37875   37893       4
   37842   37830  -37833   37845       9   37842   37830   37839   37854      10
   37842   37857   37845   37860       4   37842   37857   37872   37893       4
   37839   37827   37836   37848       4   37839   37830   37833   37845      11
   37839   37830   37842   37857      12   37839   37854  -37863   37848       4
   37836   37827   37839   37854       4   37836   37848  -37863   37854       4
   37836   37848   37866   37884       6   37833   37824   37827   37836      13
   37833   37824  -37827   37836      14   37833   37824  -37827   37836      15
   37833   37824  -37827   37839      13   37833   37824  -37827   37839      14
   37833   37824  -37827   37839      15   37833   37824  -37830   37839      16
   37833   37824  -37830   37842      16   37833   37830   37839   37854      17
   37833   37830  -37842   37857      12   37833   37845  -37857   37842       4
   37833   37845   37857   37872       4   37833   37845   37860   37875       4
   37830   37824   37827   37836      18   37830   37824  -37827   37839      18
   37830   37824  -37833   37845      19   37830   37833  -37845   37857      20
   37830   37833   37845   37860      20   37830   37839  -37827   37836       4
   37830   37839   37854   37863       4   37830   37842  -37857   37845      21
   37830   37842   37857   37872      21   37827   37824  -37830   37833      16
   37827   37824  -37830   37839      16   37827   37824   37830   37842      16
   37827   37824  -37833   37830      19   37827   37824   37833   37845      19
   37827   37836   37848   37863       4   37827   37836   37848   37866       4
   37827   37839  -37830   37833      17   37827   37839  -37830   37842      10
   37827   37839  -37854   37863       4   37824   37827   37836   37848       4
   37824   37827  -37839   37830       4   37824   37827   37839   37854       4
   37824   37830  -37833   37845       9   37824   37830  -37839   37827      10
   37824   37830  -37839   37854      10   37824   37830   37842   37857      12
   37824   37833  -37830   37839       9   37824   37833  -37830   37842       9
   37824   37833  -37845   37857      22   37824   37833   37845   37860      22
   38160   38178   38181   38193       3   38142   38160   38178   38181       3
   38121   38142   38160   38178       3   38118   38103   38115   38130       4
   38118   38136  -38151   38130       4   38115   38103   38118   38136       4
   38115   38130  -38151   38136       4   38106   38121   38142   38160       3
   38103   38115   38130   38151       4   38103   38118  -38136   38151       4
   38094   38106   38121   38142       3   38085   38103   38115   38130       4
   38085   38103   38118   38136       4   38076   38094   38106   38121       3
   38067   38085   38103   38115       5   38067   38085   38103   38118       5
   38064   38085   38103   38115       5   38064   38085   38103   38118       5
   38058   38076   38094   38106       3   38055   38040   38058   38076       6
   38052   38037   38049   38064       4   38052   38067  -38085   38064       4
   38052   38067   38085   38103       4   38049   38037   38052   38067       4
   38049   38064  -38085   38067       4   38049   38064   38085   38103       4
   38046   38055   38040   38058       4   38040   38058   38076   38094       8
   38037   38049   38064   38085       4   38037   38052  -38067   38085       4
   38034   38022  -38025   38037       9   38034   38022   38031   38046      10
   38034   38049   38037   38052       4   38034   38049   38064   38085       4
   38031   38019   38028   38040       4   38031   38022   38025   38037      11
   38031   38022   38034   38049      12   38031   38046  -38055   38040       4
   38028   38019   38031   38046       4   38028   38040  -38055   38046       4
   38028   38040   38058   38076       6   38025   38016   38019   38028      13
   38025   38016  -38019   38028      14   38025   38016  -38019   38028      15
   38025   38016  -38019   38031      13   38025   38016  -38019   38031      14
   38025   38016  -38019   38031      15   38025   38016  -38022   38031      16
   38025   38016  -38022   38034      16   38025   38022   38031   38046      17
   38025   38022  -38034   38049      12   38025   38037  -38049   38034       4
   38025   38037   38049   38064       4   38025   38037   38052   38067       4
   38022   38016   38019   38028      18   38022   38016  -38019   38031      18
   38022   38016  -38025   38037      19   38022   38025  -38037   38049      20
   38022   38025   38037   38052      20   38022   38031  -38019   38028       4
   38022   38031   38046   38055       4   38022   38034  -38049   38037      21
   38022   38034   38049   38064      21   38019   38016  -38022   38025      16
   38019   38016  -38022   38031      16   38019   38016   38022   38034      16
   38019   38016  -38025   38022      19   38019   38016   38025   38037      19
   38019   38028   38040   38055       4   38019   38028   38040   38058       4
   38019   38031  -38022   38025      17   38019   38031  -38022   38034      10
   38019   38031  -38046   38055       4   38016   38019   38028   38040       4
   38016   38019  -38031   38022       4   38016   38019   38031   38046       4
   38016   38022  -38025   38037       9   38016   38022  -38031   38019      10
   38016   38022  -38031   38046      10   38016   38022   38034   38049      12
   38016   38025  -38022   38031       9   38016   38025  -38022   38034       9
   38016   38025  -38037   38049      22   38016   38025   38037   38052      22
   38352   38370   38373   38385       3   38334   38352   38370   38373       3
   38313   38334   38352   38370       3   38310   38295   38307   38322       4
   38310   38328  -38343   38322       4   38307   38295   38310   38328       4
   38307   38322  -38343   38328       4   38298   38313   38334   38352       3
   38295   38307   38322   38343       4   38295   38310  -38328   38343       4
   38286   38298   38313   38334       3   38277   38295   38307   38322       4
   38277   38295   38310   38328       4   38268   38286   38298   38313       3
   38259   38277   38295   38307       5   38259   38277   38295   38310       5
   38256   38277   38295   38307       5   38256   38277   38295   38310       5
   38250   38268   38286   38298       3   38247   38232   38250   38268       6
   38244   38229   38241   38256       4   38244   38259  -38277   38256       4
   38244   38259   38277   38295       4   38241   38229   38244   38259       4
   38241   38256  -38277   38259       4   38241   38256   38277   38295       4
   38238   38247   38232   38250       4   38232   38250   38268   38286       8
   38229   38241   38256   38277       4   38229   38244  -38259   38277       4
   38226   38214  -38217   38229       9   38226   38214   38223   38238      10
   38226   38241   38229   38244       4   38226   38241   38256   38277       4
   38223   38211   38220   38232       4   38223   38214   38217   38229      11
   38223   38214   38226   38241      12   38223   38238  -38247   38232       4
   38220   38211   38223   38238       4   38220   38232  -38247   38238       4
   38220   38232   38250   38268       6   38217   38208   38211   38220      13
   38217   38208  -38211   38220      14   38217   38208  -38211   38220      15
   38217   38208  -38211   38223      13   38217   38208  -38211   38223      14
   38217   38208  -38211   38223      15   38217   38208  -38214   38223      16
   38217   38208  -38214   38226      16   38217   38214   38223   38238      17
   38217   38214  -38226   38241      12   38217   38229  -38241   38226       4
   38217   38229   38241   38256       4   38217   38229   38244   38259       4
   38214   38208   38211   38220      18   38214   38208  -38211   38223      18
   38214   38208  -38217   38229      19   38214   38217  -38229   38241      20
   38214   38217   38229   38244      20   38214   38223  -38211   38220       4
   38214   38223   38238   38247       4   38214   38226  -38241   38229      21
   38214   38226   38241   38256      21   38211   38208  -38214   38217      16
   38211   38208  -38214   38223      16   38211   38208   38214   38226      16
   38211   38208  -38217   38214      19   38211   38208   38217   38229      19
   38211   38220   38232   38247       4   38211   38220   38232   38250       4
   38211   38223  -38214   38217      17   38211   38223  -38214   38226      10
   38211   38223  -38238   38247       4   38208   38211   38220   38232       4
   38208   38211  -38223   38214       4   38208   38211   38223   38238       4
   38208   38214  -38217   38229       9   38208   38214  -38223   38211      10
   38208   38214  -38223   38238      10   38208   38214   38226   38241      12
   38208   38217  -38214   38223       9   38208   38217  -38214   38226       9
   38208   38217  -38229   38241      22   38208   38217   38229   38244      22
   38544   38562   38565   38577       3   38526   38544   38562   38565       3
   38505   38526   38544   38562       3   38502   38487   38499   38514       4
   38502   38520  -38535   38514       4   38499   38487   38502   38520       4
   38499   38514  -38535   38520       4   38490   38505   38526   38544       3
   38487   38499   38514   38535       4   38487   38502  -38520   38535       4
   38478   38490   38505   38526       3   38469   38487   38499   38514       4
   38469   38487   38502   38520       4   38460   38478   38490   38505       3
   38451   38469   38487   38499       5   38451   38469   38487   38502       5
   38448   38469   38487   38499       5   38448   38469   38487   38502       5
   38442   38460   38478   38490       3   38439   38424   38442   38460       6
   38436   38421   38433   38448       4   38436   38451  -38469   38448       4
   38436   38451   38469   38487       4   38433   38421   38436   38451       4
   38433   38448  -38469   38451       4   38433   38448   38469   38487       4
   38430   38439   38424   38442       4   38424   38442   38460   38478       8
   38421   38433   38448   38469       4   38421   38436  -38451   38469       4
   38418   38406  -38409   38421       9   38418   38406   38415   38430      10
   38418   38433   38421   38436       4   38418   38433   38448   38469       4
   38415   38403   38412   38424       4   38415   38406   38409   38421      11
   38415   38406   38418   38433      12   38415   38430  -38439   38424       4
   38412   38403   38415   38430       4   38412   38424  -38439   38430       4
   38412   38424   38442   38460       6   38409   38400   38403   38412      13
   38409   38400  -38403   38412      14   38409   38400  -38403   38412      15
   38409   38400  -38403   38415      13   38409   38400  -38403   38415      14
   38409   38400  -38403   38415      15   38409   38400  -38406   38415      16
   38409   38400  -38406   38418      16   38409   38406   38415   38430      17
   38409   38406  -38418   38433      12   38409   38421  -38433   38418       4
   38409   38421   38433   38448       4   38409   38421   38436   38451       4
   38406   38400   38403   38412      18   38406   38400  -38403   38415      18
   38406   38400  -38409   38421      19   38406   38409  -38421   38433      20
   38406   38409   38421   38436      20   38406   38415  -38403   38412       4
   38406   38415   38430   38439       4   38406   38418  -38433   38421      21
   38406   38418   38433   38448      21   38403   38400  -38406   38409      16
   38403   38400  -38406   38415      16   38403   38400   38406   38418      16
   38403   38400  -38409   38406      19   38403   38400   38409   38421      19
   38403   38412   38424   38439       4   38403   38412   38424   38442       4
   38403   38415  -38406   38409      17   38403   38415  -38406   38418      10
   38403   38415  -38430   38439       4   38400   38403   38412   38424       4
   38400   38403  -38415   38406       4   38400   38403   38415   38430       4
   38400   38406  -38409   38421       9   38400   38406  -38415   38403      10
   38400   38406  -38415   38430      10   38400   38406   38418   38433      12
   38400   38409  -38406   38415       9   38400   38409  -38406   38418       9
   38400   38409  -38421   38433      22   38400   38409   38421   38436      22
   38736   38754   38757   38769       3   38718   38736   38754   38757       3
   38697   38718   38736   38754       3   38694   38679   38691   38706       4
   38694   38712  -38727   38706       4   38691   38679   38694   38712       4
   38691   38706  -38727   38712       4   38682   38697   38718   38736       3
   38679   38691   38706   38727       4   38679   38694  -38712   38727       4
   38670   38682   38697   38718       3   38661   38679   38691   38706       4
   38661   38679   38694   38712       4   38652   38670   38682   38697       3
   38643   38661   38679   38691       5   38643   38661   38679   38694       5
   38640   38661   38679   38691       5   38640   38661   38679   38694       5
   38634   38652   38670   38682       3   38631   38616   38634   38652       6
   38628   38613   38625   38640       4   38628   38643  -38661   38640       4
   38628   38643   38661   38679       4   38625   38613   38628   38643       4
   38625   38640  -38661   38643       4   38625   38640   38661   38679       4
   38622   38631   38616   38634       4   38616   38634   38652   38670       8
   38613   38625   38640   38661       4   38613   38628  -38643   38661       4
   38610   38598  -38601   38613       9   38610   38598   38607   38622      10
   38610   38625   38613   38628       4   38610   38625   38640   38661       4
   38607   38595   38604   38616       4   38607   38598   38601   38613      11
   38607   38598   38610   38625      12   38607   38622  -38631   38616       4
   38604   38595   38607   38622       4   38604   38616  -38631   38622       4
   38604   38616   38634   38652       6   38601   38592   38595   38604      13
   38601   38592  -38595   38604      14   38601   38592  -38595   38604      15
   38601   38592  -38595   38607      13   38601   38592  -38595   38607      14
   38601   38592  -38595   38607      15   38601   38592  -38598   38607      16
   38601   38592  -38598   38610      16   38601   38598   38607   38622      17
   38601   38598  -38610   38625      12   38601   38613  -38625   38610       4
   38601   38613   38625   38640       4   38601   38613   38628   38643       4
   38598   38592   38595   38604      18   38598   38592  -38595   38607      18
   38598   38592  -38601   38613      19   38598   38601  -38613   38625      20
   38598   38601   38613   38628      20   38598   38607  -38595   38604       4
   38598   38607   38622   38631       4   38598   38610  -38625   38613      21
   38598   38610   38625   38640      21   38595   38592  -38598   38601      16
   38595   38592  -38598   38607      16   38595   38592   38598   38610      16
   38595   38592  -38601   38598      19   38595   38592   38601   38613      19
   38595   38604   38616   38631       4   38595   38604   38616   38634       4
   38595   38607  -38598   38601      17   38595   38607  -38598   38610      10
   38595   38607  -38622   38631       4   38592   38595   38604   38616       4
   38592   38595  -38607   38598       4   38592   38595   38607   38622       4
   38592   38598  -38601   38613       9   38592   38598  -38607   38595      10
   38592   38598  -38607   38622      10   38592   38598   38610   38625      12
   38592   38601  -38598   38607       9   38592   38601  -38598   38610       9
   38592   38601  -38613   38625      22   38592   38601   38613   38628      22
   38928   38946   38949   38961       3   38910   38928   38946   38949       3
   38889   38910   38928   38946       3   38886   38871   38883   38898       4
   38886   38904  -38919   38898       4   38883   38871   38886   38904       4
   38883   38898  -38919   38904       4   38874   38889   38910   38928       3
   38871   38883   38898   38919       4   38871   38886  -38904   38919       4
   38862   38874   38889   38910       3   38853   38871   38883   38898       4
   38853   38871   38886   38904       4   38844   38862   38874   38889       3
   38835   38853   38871   38883       5   38835   38853   38871   38886       5
   38832   38853   38871   38883       5   38832   38853   38871   38886       5
   38826   38844   38862   38874       3   38823   38808   38826   38844       6
   38820   38805   38817   38832       4   38820   38835  -38853   38832       4
   38820   38835   38853   38871       4   38817   38805   38820   38835       4
   38817   38832  -38853   38835       4   38817   38832   38853   38871       4
   38814   38823   38808   38826       4   38808   38826   38844   38862       8
   38805   38817   38832   38853       4   38805   38820  -38835   38853       4
   38802   38790  -38793   38805       9   38802   38790   38799   38814      10
   38802   38817   38805   38820       4   38802   38817   38832   38853       4
   38799   38787   38796   38808       4   38799   38790   38793   38805      11
   38799   38790   38802   38817      12   38799   38814  -38823   38808       4
   38796   38787   38799   38814       4   38796   38808  -38823   38814       4
   38796   38808   38826   38844       6   38793   38784   38787   38796      13
   38793   38784  -38787   38796      14   38793   38784  -38787   38796      15
   38793   38784  -38787   38799      13   38793   38784  -38787   38799      14
   38793   38784  -38787   38799      15   38793   38784  -38790   38799      16
   38793   38784  -38790   38802      16   38793   38790   38799   38814      17
   38793   38790  -38802   38817      12   38793   38805  -38817   38802       4
   38793   38805   38817   38832       4   38793   38805   38820   38835       4
   38790   38784   38787   38796      18   38790   38784  -38787   38799      18
   38790   38784  -38793   38805      19   38790   38793  -38805   38817      20
   38790   38793   38805   38820      20   38790   38799  -38787   38796       4
   38790   38799   38814   38823       4   38790   38802  -38817   38805      21
   38790   38802   38817   38832      21   38787   38784  -38790   38793      16
   38787   38784  -38790   38799      16   38787   38784   38790   38802      16
   38787   38784  -38793   38790      19   38787   38784   38793   38805      19
   38787   38796   38808   38823       4   38787   38796   38808   38826       4
   38787   38799  -38790   38793      17   38787   38799  -38790   38802      10
   38787   38799  -38814   38823       4   38784   38787   38796   38808       4
   38784   38787  -38799   38790       4   38784   38787   38799   38814       4
   38784   38790  -38793   38805       9   38784   38790  -38799   38787      10
   38784   38790  -38799   38814      10   38784   38790   38802   38817      12
   38784   38793  -38790   38799       9   38784   38793  -38790   38802       9
   38784   38793  -38805   38817      22   38784   38793   38805   38820      22
   39120   39138   39141   39153       3   39102   39120   39138   39141       3
   39081   39102   39120   39138       3   39078   39063   39075   39090       4
   39078   39096  -39111   39090       4   39075   39063   39078   39096       4
   39075   39090  -39111   39096       4   39066   39081   39102   39120       3
   39063   39075   39090   39111       4   39063   39078  -39096   39111       4
   39054   39066   39081   39102       3   39045   39063   39075   39090       4
   39045   39063   39078   39096       4   39036   39054   39066   39081       3
   39027   39045   39063   39075       5   39027   39045   39063   39078       5
   39024   39045   39063   39075       5   39024   39045   39063   39078       5
   39018   39036   39054   39066       3   39015   39000   39018   39036       6
   39012   38997   39009   39024       4   39012   39027  -39045   39024       4
   39012   39027   39045   39063       4   39009   38997   39012   39027       4
   39009   39024  -39045   39027       4   39009   39024   39045   39063       4
   39006   39015   39000   39018       4   39000   39018   39036   39054       8
   38997   39009   39024   39045       4   38997   39012  -39027   39045       4
   38994   38982  -38985   38997       9   38994   38982   38991   39006      10
   38994   39009   38997   39012       4   38994   39009   39024   39045       4
   38991   38979   38988   39000       4   38991   38982   38985   38997      11
   38991   38982   38994   39009      12   38991   39006  -39015   39000       4
   38988   38979   38991   39006       4   38988   39000  -39015   39006       4
   38988   39000   39018   39036       6   38985   38976   38979   38988      13
   38985   38976  -38979   38988      14   38985   38976  -38979   38988      15
   38985   38976  -38979   38991      13   38985   38976  -38979   38991      14
   38985   38976  -38979   38991      15   38985   38976  -38982   38991      16
   38985   38976  -38982   38994      16   38985   38982   38991   39006      17
   38985   38982  -38994   39009      12   38985   38997  -39009   38994       4
   38985   38997   39009   39024       4   38985   38997   39012   39027       4
   38982   38976   38979   38988      18   38982   38976  -38979   38991      18
   38982   38976  -38985   38997      19   38982   38985  -38997   39009      20
   38982   38985   38997   39012      20   38982   38991  -38979   38988       4
   38982   38991   39006   39015       4   38982   38994  -39009   38997      21
   38982   38994   39009   39024      21   38979   38976  -38982   38985      16
   38979   38976  -38982   38991      16   38979   38976   38982   38994      16
   38979   38976  -38985   38982      19   38979   38976   38985   38997      19
   38979   38988   39000   39015       4   38979   38988   39000   39018       4
   38979   38991  -38982   38985      17   38979   38991  -38982   38994      10
   38979   38991  -39006   39015       4   38976   38979   38988   39000       4
   38976   38979  -38991   38982       4   38976   38979   38991   39006       4
   38976   38982  -38985   38997       9   38976   38982  -38991   38979      10
   38976   38982  -38991   39006      10   38976   38982   38994   39009      12
   38976   38985  -38982   38991       9   38976   38985  -38982   38994       9
   38976   38985  -38997   39009      22   38976   38985   38997   39012      22
   39312   39330   39333   39345       3   39294   39312   39330   39333       3
   39273   39294   39312   39330       3   39270   39255   39267   39282       4
   39270   39288  -39303   39282       4   39267   39255   39270   39288       4
   39267   39282  -39303   39288       4   39258   39273   39294   39312       3
   39255   39267   39282   39303       4   39255   39270  -39288   39303       4
   39246   39258   39273   39294       3   39237   39255   39267   39282       4
   39237   39255   39270   39288       4   39228   39246   39258   39273       3
   39219   39237   39255   39267       5   39219   39237   39255   39270       5
   39216   39237   39255   39267       5   39216   39237   39255   39270       5
   39210   39228   39246   39258       3   39207   39192   39210   39228       6
   39204   39189   39201   39216       4   39204   39219  -39237   39216       4
   39204   39219   39237   39255       4   39201   39189   39204   39219       4
   39201   39216  -39237   39219       4   39201   39216   39237   39255       4
   39198   39207   39192   39210       4   39192   39210   39228   39246       8
   39189   39201   39216   39237       4   39189   39204  -39219   39237       4
   39186   39174  -39177   39189       9   39186   39174   39183   39198      10
   39186   39201   39189   39204       4   39186   39201   39216   39237       4
   39183   39171   39180   39192       4   39183   39174   39177   39189      11
   39183   39174   39186   39201      12   39183   39198  -39207   39192       4
   39180   39171   39183   39198       4   39180   39192  -39207   39198       4
   39180   39192   39210   39228       6   39177   39168   39171   39180      13
   39177   39168  -39171   39180      14   39177   39168  -39171   39180      15
   39177   39168  -39171   39183      13   39177   39168  -39171   39183      14
   39177   39168  -39171   39183      15   39177   39168  -39174   39183      16
   39177   39168  -39174   39186      16   39177   39174   39183   39198      17
   39177   39174  -39186   39201      12   39177   39189  -39201   39186       4
   39177   39189   39201   39216       4   39177   39189   39204   39219       4
   39174   39168   39171   39180      18   39174   39168  -39171   39183      18
   39174   39168  -39177   39189      19   39174   39177  -39189   39201      20
   39174   39177   39189   39204      20   39174   39183  -39171   39180       4
   39174   39183   39198   39207       4   39174   39186  -39201   39189      21
   39174   39186   39201   39216      21   39171   39168  -39174   39177      16
   39171   39168  -39174   39183      16   39171   39168   39174   39186      16
   39171   39168  -39177   39174      19   39171   39168   39177   39189      19
   39171   39180   39192   39207       4   39171   39180   39192   39210       4
   39171   39183  -39174   39177      17   39171   39183  -39174   39186      10
   39171   39183  -39198   39207       4   39168   39171   39180   39192       4
   39168   39171  -39183   39174       4   39168   39171   39183   39198       4
   39168   39174  -39177   39189       9   39168   39174  -39183   39171      10
   39168   39174  -39183   39198      10   39168   39174   39186   39201      12
   39168   39177  -39174   39183       9   39168   39177  -39174   39186       9
   39168   39177  -39189   39201      22   39168   39177   39189   39204      22
   39504   39522   39525   39537       3   39486   39504   39522   39525       3
   39465   39486   39504   39522       3   39462   39447   39459   39474       4
   39462   39480  -39495   39474       4   39459   39447   39462   39480       4
   39459   39474  -39495   39480       4   39450   39465   39486   39504       3
   39447   39459   39474   39495       4   39447   39462  -39480   39495       4
   39438   39450   39465   39486       3   39429   39447   39459   39474       4
   39429   39447   39462   39480       4   39420   39438   39450   39465       3
   39411   39429   39447   39459       5   39411   39429   39447   39462       5
   39408   39429   39447   39459       5   39408   39429   39447   39462       5
   39402   39420   39438   39450       3   39399   39384   39402   39420       6
   39396   39381   39393   39408       4   39396   39411  -39429   39408       4
   39396   39411   39429   39447       4   39393   39381   39396   39411       4
   39393   39408  -39429   39411       4   39393   39408   39429   39447       4
   39390   39399   39384   39402       4   39384   39402   39420   39438       8
   39381   39393   39408   39429       4   39381   39396  -39411   39429       4
   39378   39366  -39369   39381       9   39378   39366   39375   39390      10
   39378   39393   39381   39396       4   39378   39393   39408   39429       4
   39375   39363   39372   39384       4   39375   39366   39369   39381      11
   39375   39366   39378   39393      12   39375   39390  -39399   39384       4
   39372   39363   39375   39390       4   39372   39384  -39399   39390       4
   39372   39384   39402   39420       6   39369   39360   39363   39372      13
   39369   39360  -39363   39372      14   39369   39360  -39363   39372      15
   39369   39360  -39363   39375      13   39369   39360  -39363   39375      14
   39369   39360  -39363   39375      15   39369   39360  -39366   39375      16
   39369   39360  -39366   39378      16   39369   39366   39375   39390      17
   39369   39366  -39378   39393      12   39369   39381  -39393   39378       4
   39369   39381   39393   39408       4   39369   39381   39396   39411       4
   39366   39360   39363   39372      18   39366   39360  -39363   39375      18
   39366   39360  -39369   39381      19   39366   39369  -39381   39393      20
   39366   39369   39381   39396      20   39366   39375  -39363   39372       4
   39366   39375   39390   39399       4   39366   39378  -39393   39381      21
   39366   39378   39393   39408      21   39363   39360  -39366   39369      16
   39363   39360  -39366   39375      16   39363   39360   39366   39378      16
   39363   39360  -39369   39366      19   39363   39360   39369   39381      19
   39363   39372   39384   39399       4   39363   39372   39384   39402       4
   39363   39375  -39366   39369      17   39363   39375  -39366   39378      10
   39363   39375  -39390   39399       4   39360   39363   39372   39384       4
   39360   39363  -39375   39366       4   39360   39363   39375   39390       4
   39360   39366  -39369   39381       9   39360   39366  -39375   39363      10
   39360   39366  -39375   39390      10   39360   39366   39378   39393      12
   39360   39369  -39366   39375       9   39360   39369  -39366   39378       9
   39360   39369  -39381   39393      22   39360   39369   39381   39396      22
   39696   39714   39717   39729       3   39678   39696   39714   39717       3
   39657   39678   39696   39714       3   39654   39639   39651   39666       4
   39654   39672  -39687   39666       4   39651   39639   39654   39672       4
   39651   39666  -39687   39672       4   39642   39657   39678   39696       3
   39639   39651   39666   39687       4   39639   39654  -39672   39687       4
   39630   39642   39657   39678       3   39621   39639   39651   39666       4
   39621   39639   39654   39672       4   39612   39630   39642   39657       3
   39603   39621   39639   39651       5   39603   39621   39639   39654       5
   39600   39621   39639   39651       5   39600   39621   39639   39654       5
   39594   39612   39630   39642       3   39591   39576   39594   39612       6
   39588   39573   39585   39600       4   39588   39603  -39621   39600       4
   39588   39603   39621   39639       4   39585   39573   39588   39603       4
   39585   39600  -39621   39603       4   39585   39600   39621   39639       4
   39582   39591   39576   39594       4   39576   39594   39612   39630       8
   39573   39585   39600   39621       4   39573   39588  -39603   39621       4
   39570   39558  -39561   39573       9   39570   39558   39567   39582      10
   39570   39585   39573   39588       4   39570   39585   39600   39621       4
   39567   39555   39564   39576       4   39567   39558   39561   39573      11
   39567   39558   39570   39585      12   39567   39582  -39591   39576       4
   39564   39555   39567   39582       4   39564   39576  -39591   39582       4
   39564   39576   39594   39612       6   39561   39552   39555   39564      13
   39561   39552  -39555   39564      14   39561   39552  -39555   39564      15
   39561   39552  -39555   39567      13   39561   39552  -39555   39567      14
   39561   39552  -39555   39567      15   39561   39552  -39558   39567      16
   39561   39552  -39558   39570      16   39561   39558   39567   39582      17
   39561   39558  -39570   39585      12   39561   39573  -39585   39570       4
   39561   39573   39585   39600       4   39561   39573   39588   39603       4
   39558   39552   39555   39564      18   39558   39552  -39555   39567      18
   39558   39552  -39561   39573      19   39558   39561  -39573   39585      20
   39558   39561   39573   39588      20   39558   39567  -39555   39564       4
   39558   39567   39582   39591       4   39558   39570  -39585   39573      21
   39558   39570   39585   39600      21   39555   39552  -39558   39561      16
   39555   39552  -39558   39567      16   39555   39552   39558   39570      16
   39555   39552  -39561   39558      19   39555   39552   39561   39573      19
   39555   39564   39576   39591       4   39555   39564   39576   39594       4
   39555   39567  -39558   39561      17   39555   39567  -39558   39570      10
   39555   39567  -39582   39591       4   39552   39555   39564   39576       4
   39552   39555  -39567   39558       4   39552   39555   39567   39582       4
   39552   39558  -39561   39573       9   39552   39558  -39567   39555      10
   39552   39558  -39567   39582      10   39552   39558   39570   39585      12
   39552   39561  -39558   39567       9   39552   39561  -39558   39570       9
   39552   39561  -39573   39585      22   39552   39561   39573   39588      22
   39888   39906   39909   39921       3   39870   39888   39906   39909       3
   39849   39870   39888   39906       3   39846   39831   39843   39858       4
   39846   39864  -39879   39858       4   39843   39831   39846   39864       4
   39843   39858  -39879   39864       4   39834   39849   39870   39888       3
   39831   39843   39858   39879       4   39831   39846  -39864   39879       4
   39822   39834   39849   39870       3   39813   39831   39843   39858       4
   39813   39831   39846   39864       4   39804   39822   39834   39849       3
   39795   39813   39831   39843       5   39795   39813   39831   39846       5
   39792   39813   39831   39843       5   39792   39813   39831   39846       5
   39786   39804   39822   39834       3   39783   39768   39786   39804       6
   39780   39765   39777   39792       4   39780   39795  -39813   39792       4
   39780   39795   39813   39831       4   39777   39765   39780   39795       4
   39777   39792  -39813   39795       4   39777   39792   39813   39831       4
   39774   39783   39768   39786       4   39768   39786   39804   39822       8
   39765   39777   39792   39813       4   39765   39780  -39795   39813       4
   39762   39750  -39753   39765       9   39762   39750   39759   39774      10
   39762   39777   39765   39780       4   39762   39777   39792   39813       4
   39759   39747   39756   39768       4   39759   39750   39753   39765      11
   39759   39750   39762   39777      12   39759   39774  -39783   39768       4
   39756   39747   39759   39774       4   39756   39768  -39783   39774       4
   39756   39768   39786   39804       6   39753   39744   39747   39756      13
   39753   39744  -39747   39756      14   39753   39744  -39747   39756      15
   39753   39744  -39747   39759      13   39753   39744  -39747   39759      14
   39753   39744  -39747   39759      15   39753   39744  -39750   39759      16
   39753   39744  -39750   39762      16   39753   39750   39759   39774      17
   39753   39750  -39762   39777      12   39753   39765  -39777   39762       4
   39753   39765   39777   39792       4   39753   39765   39780   39795       4
   39750   39744   39747   39756      18   39750   39744  -39747   39759      18
   39750   39744  -39753   39765      19   39750   39753  -39765   39777      20
   39750   39753   39765   39780      20   39750   39759  -39747   39756       4
   39750   39759   39774   39783       4   39750   39762  -39777   39765      21
   39750   39762   39777   39792      21   39747   39744  -39750   39753      16
   39747   39744  -39750   39759      16   39747   39744   39750   39762      16
   39747   39744  -39753   39750      19   39747   39744   39753   39765      19
   39747   39756   39768   39783       4   39747   39756   39768   39786       4
   39747   39759  -39750   39753      17   39747   39759  -39750   39762      10
   39747   39759  -39774   39783       4   39744   39747   39756   39768       4
   39744   39747  -39759   39750       4   39744   39747   39759   39774       4
   39744   39750  -39753   39765       9   39744   39750  -39759   39747      10
   39744   39750  -39759   39774      10   39744   39750   39762   39777      12
   39744   39753  -39750   39759       9   39744   39753  -39750   39762       9
   39744   39753  -39765   39777      22   39744   39753   39765   39780      22
   40080   40098   40101   40113       3   40062   40080   40098   40101       3
   40041   40062   40080   40098       3   40038   40023   40035   40050       4
   40038   40056  -40071   40050       4   40035   40023   40038   40056       4
   40035   40050  -40071   40056       4   40026   40041   40062   40080       3
   40023   40035   40050   40071       4   40023   40038  -40056   40071       4
   40014   40026   40041   40062       3   40005   40023   40035   40050       4
   40005   40023   40038   40056       4   39996   40014   40026   40041       3
   39987   40005   40023   40035       5   39987   40005   40023   40038       5
   39984   40005   40023   40035       5   39984   40005   40023   40038       5
   39978   39996   40014   40026       3   39975   39960   39978   39996       6
   39972   39957   39969   39984       4   39972   39987  -40005   39984       4
   39972   39987   40005   40023       4   39969   39957   39972   39987       4
   39969   39984  -40005   39987       4   39969   39984   40005   40023       4
   39966   39975   39960   39978       4   39960   39978   39996   40014       8
   39957   39969   39984   40005       4   39957   39972  -39987   40005       4
   39954   39942  -39945   39957       9   39954   39942   39951   39966      10
   39954   39969   39957   39972       4   39954   39969   39984   40005       4
   39951   39939   39948   39960       4   39951   39942   39945   39957      11
   39951   39942   39954   39969      12   39951   39966  -39975   39960       4
   39948   39939   39951   39966       4   39948   39960  -39975   39966       4
   39948   39960   39978   39996       6   39945   39936   39939   39948      13
   39945   39936  -39939   39948      14   39945   39936  -39939   39948      15
   39945   39936  -39939   39951      13   39945   39936  -39939   39951      14
   39945   39936  -39939   39951      15   39945   39936  -39942   39951      16
   39945   39936  -39942   39954      16   39945   39942   39951   39966      17
   39945   39942  -39954   39969      12   39945   39957  -39969   39954       4
   39945   39957   39969   39984       4   39945   39957   39972   39987       4
   39942   39936   39939   39948      18   39942   39936  -39939   39951      18
   39942   39936  -39945   39957      19   39942   39945  -39957   39969      20
   39942   39945   39957   39972      20   39942   39951  -39939   39948       4
   39942   39951   39966   39975       4   39942   39954  -39969   39957      21
   39942   39954   39969   39984      21   39939   39936  -39942   39945      16
   39939   39936  -39942   39951      16   39939   39936   39942   39954      16
   39939   39936  -39945   39942      19   39939   39936   39945   39957      19
   39939   39948   39960   39975       4   39939   39948   39960   39978       4
   39939   39951  -39942   39945      17   39939   39951  -39942   39954      10
   39939   39951  -39966   39975       4   39936   39939   39948   39960       4
   39936   39939  -39951   39942       4   39936   39939   39951   39966       4
   39936   39942  -39945   39957       9   39936   39942  -39951   39939      10
   39936   39942  -39951   39966      10   39936   39942   39954   39969      12
   39936   39945  -39942   39951       9   39936   39945  -39942   39954       9
   39936   39945  -39957   39969      22   39936   39945   39957   39972      22
   40272   40290   40293   40305       3   40254   40272   40290   40293       3
   40233   40254   40272   40290       3   40230   40215   40227   40242       4
   40230   40248  -40263   40242       4   40227   40215   40230   40248       4
   40227   40242  -40263   40248       4   40218   40233   40254   40272       3
   40215   40227   40242   40263       4   40215   40230  -40248   40263       4
   40206   40218   40233   40254       3   40197   40215   40227   40242       4
   40197   40215   40230   40248       4   40188   40206   40218   40233       3
   40179   40197   40215   40227       5   40179   40197   40215   40230       5
   40176   40197   40215   40227       5   40176   40197   40215   40230       5
   40170   40188   40206   40218       3   40167   40152   40170   40188       6
   40164   40149   40161   40176       4   40164   40179  -40197   40176       4
   40164   40179   40197   40215       4   40161   40149   40164   40179       4
   40161   40176  -40197   40179       4   40161   40176   40197   40215       4
   40158   40167   40152   40170       4   40152   40170   40188   40206       8
   40149   40161   40176   40197       4   40149   40164  -40179   40197       4
   40146   40134  -40137   40149       9   40146   40134   40143   40158      10
   40146   40161   40149   40164       4   40146   40161   40176   40197       4
   40143   40131   40140   40152       4   40143   40134   40137   40149      11
   40143   40134   40146   40161      12   40143   40158  -40167   40152       4
   40140   40131   40143   40158       4   40140   40152  -40167   40158       4
   40140   40152   40170   40188       6   40137   40128   40131   40140      13
   40137   40128  -40131   40140      14   40137   40128  -40131   40140      15
   40137   40128  -40131   40143      13   40137   40128  -40131   40143      14
   40137   40128  -40131   40143      15   40137   40128  -40134   40143      16
   40137   40128  -40134   40146      16   40137   40134   40143   40158      17
   40137   40134  -40146   40161      12   40137   40149  -40161   40146       4
   40137   40149   40161   40176       4   40137   40149   40164   40179       4
   40134   40128   40131   40140      18   40134   40128  -40131   40143      18
   40134   40128  -40137   40149      19   40134   40137  -40149   40161      20
   40134   40137   40149   40164      20   40134   40143  -40131   40140       4
   40134   40143   40158   40167       4   40134   40146  -40161   40149      21
   40134   40146   40161   40176      21   40131   40128  -40134   40137      16
   40131   40128  -40134   40143      16   40131   40128   40134   40146      16
   40131   40128  -40137   40134      19   40131   40128   40137   40149      19
   40131   40140   40152   40167       4   40131   40140   40152   40170       4
   40131   40143  -40134   40137      17   40131   40143  -40134   40146      10
   40131   40143  -40158   40167       4   40128   40131   40140   40152       4
   40128   40131  -40143   40134       4   40128   40131   40143   40158       4
   40128   40134  -40137   40149       9   40128   40134  -40143   40131      10
   40128   40134  -40143   40158      10   40128   40134   40146   40161      12
   40128   40137  -40134   40143       9   40128   40137  -40134   40146       9
   40128   40137  -40149   40161      22   40128   40137   40149   40164      22
   40464   40482   40485   40497       3   40446   40464   40482   40485       3
   40425   40446   40464   40482       3   40422   40407   40419   40434       4
   40422   40440  -40455   40434       4   40419   40407   40422   40440       4
   40419   40434  -40455   40440       4   40410   40425   40446   40464       3
   40407   40419   40434   40455       4   40407   40422  -40440   40455       4
   40398   40410   40425   40446       3   40389   40407   40419   40434       4
   40389   40407   40422   40440       4   40380   40398   40410   40425       3
   40371   40389   40407   40419       5   40371   40389   40407   40422       5
   40368   40389   40407   40419       5   40368   40389   40407   40422       5
   40362   40380   40398   40410       3   40359   40344   40362   40380       6
   40356   40341   40353   40368       4   40356   40371  -40389   40368       4
   40356   40371   40389   40407       4   40353   40341   40356   40371       4
   40353   40368  -40389   40371       4   40353   40368   40389   40407       4
   40350   40359   40344   40362       4   40344   40362   40380   40398       8
   40341   40353   40368   40389       4   40341   40356  -40371   40389       4
   40338   40326  -40329   40341       9   40338   40326   40335   40350      10
   40338   40353   40341   40356       4   40338   40353   40368   40389       4
   40335   40323   40332   40344       4   40335   40326   40329   40341      11
   40335   40326   40338   40353      12   40335   40350  -40359   40344       4
   40332   40323   40335   40350       4   40332   40344  -40359   40350       4
   40332   40344   40362   40380       6   40329   40320   40323   40332      13
   40329   40320  -40323   40332      14   40329   40320  -40323   40332      15
   40329   40320  -40323   40335      13   40329   40320  -40323   40335      14
   40329   40320  -40323   40335      15   40329   40320  -40326   40335      16
   40329   40320  -40326   40338      16   40329   40326   40335   40350      17
   40329   40326  -40338   40353      12   40329   40341  -40353   40338       4
   40329   40341   40353   40368       4   40329   40341   40356   40371       4
   40326   40320   40323   40332      18   40326   40320  -40323   40335      18
   40326   40320  -40329   40341      19   40326   40329  -40341   40353      20
   40326   40329   40341   40356      20   40326   40335  -40323   40332       4
   40326   40335   40350   40359       4   40326   40338  -40353   40341      21
   40326   40338   40353   40368      21   40323   40320  -40326   40329      16
   40323   40320  -40326   40335      16   40323   40320   40326   40338      16
   40323   40320  -40329   40326      19   40323   40320   40329   40341      19
   40323   40332   40344   40359       4   40323   40332   40344   40362       4
   40323   40335  -40326   40329      17   40323   40335  -40326   40338      10
   40323   40335  -40350   40359       4   40320   40323   40332   40344       4
   40320   40323  -40335   40326       4   40320   40323   40335   40350       4
   40320   40326  -40329   40341       9   40320   40326  -40335   40323      10
   40320   40326  -40335   40350      10   40320   40326   40338   40353      12
   40320   40329  -40326   40335       9   40320   40329  -40326   40338       9
   40320   40329  -40341   40353      22   40320   40329   40341   40356      22
   40656   40674   40677   40689       3   40638   40656   40674   40677       3
   40617   40638   40656   40674       3   40614   40599   40611   40626       4
   40614   40632  -40647   40626       4   40611   40599   40614   40632       4
   40611   40626  -40647   40632       4   40602   40617   40638   40656       3
   40599   40611   40626   40647       4   40599   40614  -40632   40647       4
   40590   40602   40617   40638       3   40581   40599   40611   40626       4
   40581   40599   40614   40632       4   40572   40590   40602   40617       3
   40563   40581   40599   40611       5   40563   40581   40599   40614       5
   40560   40581   40599   40611       5   40560   40581   40599   40614       5
   40554   40572   40590   40602       3   40551   40536   40554   40572       6
   40548   40533   40545   40560       4   40548   40563  -40581   40560       4
   40548   40563   40581   40599       4   40545   40533   40548   40563       4
   40545   40560  -40581   40563       4   40545   40560   40581   40599       4
   40542   40551   40536   40554       4   40536   40554   40572   40590       8
   40533   40545   40560   40581       4   40533   40548  -40563   40581       4
   40530   40518  -40521   40533       9   40530   40518   40527   40542      10
   40530   40545   40533   40548       4   40530   40545   40560   40581       4
   40527   40515   40524   40536       4   40527   40518   40521   40533      11
   40527   40518   40530   40545      12   40527   40542  -40551   40536       4
   40524   40515   40527   40542       4   40524   40536  -40551   40542       4
   40524   40536   40554   40572       6   40521   40512   40515   40524      13
   40521   40512  -40515   40524      14   40521   40512  -40515   40524      15
   40521   40512  -40515   40527      13   40521   40512  -40515   40527      14
   40521   40512  -40515   40527      15   40521   40512  -40518   40527      16
   40521   40512  -40518   40530      16   40521   40518   40527   40542      17
   40521   40518  -40530   40545      12   40521   40533  -40545   40530       4
   40521   40533   40545   40560       4   40521   40533   40548   40563       4
   40518   40512   40515   40524      18   40518   40512  -40515   40527      18
   40518   40512  -40521   40533      19   40518   40521  -40533   40545      20
   40518   40521   40533   40548      20   40518   40527  -40515   40524       4
   40518   40527   40542   40551       4   40518   40530  -40545   40533      21
   40518   40530   40545   40560      21   40515   40512  -40518   40521      16
   40515   40512  -40518   40527      16   40515   40512   40518   40530      16
   40515   40512  -40521   40518      19   40515   40512   40521   40533      19
   40515   40524   40536   40551       4   40515   40524   40536   40554       4
   40515   40527  -40518   40521      17   40515   40527  -40518   40530      10
   40515   40527  -40542   40551       4   40512   40515   40524   40536       4
   40512   40515  -40527   40518       4   40512   40515   40527   40542       4
   40512   40518  -40521   40533       9   40512   40518  -40527   40515      10
   40512   40518  -40527   40542      10   40512   40518   40530   40545      12
   40512   40521  -40518   40527       9   40512   40521  -40518   40530       9
   40512   40521  -40533   40545      22   40512   40521   40533   40548      22
   40848   40866   40869   40881       3   40830   40848   40866   40869       3
   40809   40830   40848   40866       3   40806   40791   40803   40818       4
   40806   40824  -40839   40818       4   40803   40791   40806   40824       4
   40803   40818  -40839   40824       4   40794   40809   40830   40848       3
   40791   40803   40818   40839       4   40791   40806  -40824   40839       4
   40782   40794   40809   40830       3   40773   40791   40803   40818       4
   40773   40791   40806   40824       4   40764   40782   40794   40809       3
   40755   40773   40791   40803       5   40755   40773   40791   40806       5
   40752   40773   40791   40803       5   40752   40773   40791   40806       5
   40746   40764   40782   40794       3   40743   40728   40746   40764       6
   40740   40725   40737   40752       4   40740   40755  -40773   40752       4
   40740   40755   40773   40791       4   40737   40725   40740   40755       4
   40737   40752  -40773   40755       4   40737   40752   40773   40791       4
   40734   40743   40728   40746       4   40728   40746   40764   40782       8
   40725   40737   40752   40773       4   40725   40740  -40755   40773       4
   40722   40710  -40713   40725       9   40722   40710   40719   40734      10
   40722   40737   40725   40740       4   40722   40737   40752   40773       4
   40719   40707   40716   40728       4   40719   40710   40713   40725      11
   40719   40710   40722   40737      12   40719   40734  -40743   40728       4
   40716   40707   40719   40734       4   40716   40728  -40743   40734       4
   40716   40728   40746   40764       6   40713   40704   40707   40716      13
   40713   40704  -40707   40716      14   40713   40704  -40707   40716      15
   40713   40704  -40707   40719      13   40713   40704  -40707   40719      14
   40713   40704  -40707   40719      15   40713   40704  -40710   40719      16
   40713   40704  -40710   40722      16   40713   40710   40719   40734      17
   40713   40710  -40722   40737      12   40713   40725  -40737   40722       4
   40713   40725   40737   40752       4   40713   40725   40740   40755       4
   40710   40704   40707   40716      18   40710   40704  -40707   40719      18
   40710   40704  -40713   40725      19   40710   40713  -40725   40737      20
   40710   40713   40725   40740      20   40710   40719  -40707   40716       4
   40710   40719   40734   40743       4   40710   40722  -40737   40725      21
   40710   40722   40737   40752      21   40707   40704  -40710   40713      16
   40707   40704  -40710   40719      16   40707   40704   40710   40722      16
   40707   40704  -40713   40710      19   40707   40704   40713   40725      19
   40707   40716   40728   40743       4   40707   40716   40728   40746       4
   40707   40719  -40710   40713      17   40707   40719  -40710   40722      10
   40707   40719  -40734   40743       4   40704   40707   40716   40728       4
   40704   40707  -40719   40710       4   40704   40707   40719   40734       4
   40704   40710  -40713   40725       9   40704   40710  -40719   40707      10
   40704   40710  -40719   40734      10   40704   40710   40722   40737      12
   40704   40713  -40710   40719       9   40704   40713  -40710   40722       9
   40704   40713  -40725   40737      22   40704   40713   40725   40740      22
   41040   41058   41061   41073       3   41022   41040   41058   41061       3
   41001   41022   41040   41058       3   40998   40983   40995   41010       4
   40998   41016  -41031   41010       4   40995   40983   40998   41016       4
   40995   41010  -41031   41016       4   40986   41001   41022   41040       3
   40983   40995   41010   41031       4   40983   40998  -41016   41031       4
   40974   40986   41001   41022       3   40965   40983   40995   41010       4
   40965   40983   40998   41016       4   40956   40974   40986   41001       3
   40947   40965   40983   40995       5   40947   40965   40983   40998       5
   40944   40965   40983   40995       5   40944   40965   40983   40998       5
   40938   40956   40974   40986       3   40935   40920   40938   40956       6
   40932   40917   40929   40944       4   40932   40947  -40965   40944       4
   40932   40947   40965   40983       4   40929   40917   40932   40947       4
   40929   40944  -40965   40947       4   40929   40944   40965   40983       4
   40926   40935   40920   40938       4   40920   40938   40956   40974       8
   40917   40929   40944   40965       4   40917   40932  -40947   40965       4
   40914   40902  -40905   40917       9   40914   40902   40911   40926      10
   40914   40929   40917   40932       4   40914   40929   40944   40965       4
   40911   40899   40908   40920       4   40911   40902   40905   40917      11
   40911   40902   40914   40929      12   40911   40926  -40935   40920       4
   40908   40899   40911   40926       4   40908   40920  -40935   40926       4
   40908   40920   40938   40956       6   40905   40896   40899   40908      13
   40905   40896  -40899   40908      14   40905   40896  -40899   40908      15
   40905   40896  -40899   40911      13   40905   40896  -40899   40911      14
   40905   40896  -40899   40911      15   40905   40896  -40902   40911      16
   40905   40896  -40902   40914      16   40905   40902   40911   40926      17
   40905   40902  -40914   40929      12   40905   40917  -40929   40914       4
   40905   40917   40929   40944       4   40905   40917   40932   40947       4
   40902   40896   40899   40908      18   40902   40896  -40899   40911      18
   40902   40896  -40905   40917      19   40902   40905  -40917   40929      20
   40902   40905   40917   40932      20   40902   40911  -40899   40908       4
   40902   40911   40926   40935       4   40902   40914  -40929   40917      21
   40902   40914   40929   40944      21   40899   40896  -40902   40905      16
   40899   40896  -40902   40911      16   40899   40896   40902   40914      16
   40899   40896  -40905   40902      19   40899   40896   40905   40917      19
   40899   40908   40920   40935       4   40899   40908   40920   40938       4
   40899   40911  -40902   40905      17   40899   40911  -40902   40914      10
   40899   40911  -40926   40935       4   40896   40899   40908   40920       4
   40896   40899  -40911   40902       4   40896   40899   40911   40926       4
   40896   40902  -40905   40917       9   40896   40902  -40911   40899      10
   40896   40902  -40911   40926      10   40896   40902   40914   40929      12
   40896   40905  -40902   40911       9   40896   40905  -40902   40914       9
   40896   40905  -40917   40929      22   40896   40905   40917   40932      22
   41232   41250   41253   41265       3   41214   41232   41250   41253       3
   41193   41214   41232   41250       3   41190   41175   41187   41202       4
   41190   41208  -41223   41202       4   41187   41175   41190   41208       4
   41187   41202  -41223   41208       4   41178   41193   41214   41232       3
   41175   41187   41202   41223       4   41175   41190  -41208   41223       4
   41166   41178   41193   41214       3   41157   41175   41187   41202       4
   41157   41175   41190   41208       4   41148   41166   41178   41193       3
   41139   41157   41175   41187       5   41139   41157   41175   41190       5
   41136   41157   41175   41187       5   41136   41157   41175   41190       5
   41130   41148   41166   41178       3   41127   41112   41130   41148       6
   41124   41109   41121   41136       4   41124   41139  -41157   41136       4
   41124   41139   41157   41175       4   41121   41109   41124   41139       4
   41121   41136  -41157   41139       4   41121   41136   41157   41175       4
   41118   41127   41112   41130       4   41112   41130   41148   41166       8
   41109   41121   41136   41157       4   41109   41124  -41139   41157       4
   41106   41094  -41097   41109       9   41106   41094   41103   41118      10
   41106   41121   41109   41124       4   41106   41121   41136   41157       4
   41103   41091   41100   41112       4   41103   41094   41097   41109      11
   41103   41094   41106   41121      12   41103   41118  -41127   41112       4
   41100   41091   41103   41118       4   41100   41112  -41127   41118       4
   41100   41112   41130   41148       6   41097   41088   41091   41100      13
   41097   41088  -41091   41100      14   41097   41088  -41091   41100      15
   41097   41088  -41091   41103      13   41097   41088  -41091   41103      14
   41097   41088  -41091   41103      15   41097   41088  -41094   41103      16
   41097   41088  -41094   41106      16   41097   41094   41103   41118      17
   41097   41094  -41106   41121      12   41097   41109  -41121   41106       4
   41097   41109   41121   41136       4   41097   41109   41124   41139       4
   41094   41088   41091   41100      18   41094   41088  -41091   41103      18
   41094   41088  -41097   41109      19   41094   41097  -41109   41121      20
   41094   41097   41109   41124      20   41094   41103  -41091   41100       4
   41094   41103   41118   41127       4   41094   41106  -41121   41109      21
   41094   41106   41121   41136      21   41091   41088  -41094   41097      16
   41091   41088  -41094   41103      16   41091   41088   41094   41106      16
   41091   41088  -41097   41094      19   41091   41088   41097   41109      19
   41091   41100   41112   41127       4   41091   41100   41112   41130       4
   41091   41103  -41094   41097      17   41091   41103  -41094   41106      10
   41091   41103  -41118   41127       4   41088   41091   41100   41112       4
   41088   41091  -41103   41094       4   41088   41091   41103   41118       4
   41088   41094  -41097   41109       9   41088   41094  -41103   41091      10
   41088   41094  -41103   41118      10   41088   41094   41106   41121      12
   41088   41097  -41094   41103       9   41088   41097  -41094   41106       9
   41088   41097  -41109   41121      22   41088   41097   41109   41124      22
   41424   41442   41445   41457       3   41406   41424   41442   41445       3
   41385   41406   41424   41442       3   41382   41367   41379   41394       4
   41382   41400  -41415   41394       4   41379   41367   41382   41400       4
   41379   41394  -41415   41400       4   41370   41385   41406   41424       3
   41367   41379   41394   41415       4   41367   41382  -41400   41415       4
   41358   41370   41385   41406       3   41349   41367   41379   41394       4
   41349   41367   41382   41400       4   41340   41358   41370   41385       3
   41331   41349   41367   41379       5   41331   41349   41367   41382       5
   41328   41349   41367   41379       5   41328   41349   41367   41382       5
   41322   41340   41358   41370       3   41319   41304   41322   41340       6
   41316   41301   41313   41328       4   41316   41331  -41349   41328       4
   41316   41331   41349   41367       4   41313   41301   41316   41331       4
   41313   41328  -41349   41331       4   41313   41328   41349   41367       4
   41310   41319   41304   41322       4   41304   41322   41340   41358       8
   41301   41313   41328   41349       4   41301   41316  -41331   41349       4
   41298   41286  -41289   41301       9   41298   41286   41295   41310      10
   41298   41313   41301   41316       4   41298   41313   41328   41349       4
   41295   41283   41292   41304       4   41295   41286   41289   41301      11
   41295   41286   41298   41313      12   41295   41310  -41319   41304       4
   41292   41283   41295   41310       4   41292   41304  -41319   41310       4
   41292   41304   41322   41340       6   41289   41280   41283   41292      13
   41289   41280  -41283   41292      14   41289   41280  -41283   41292      15
   41289   41280  -41283   41295      13   41289   41280  -41283   41295      14
   41289   41280  -41283   41295      15   41289   41280  -41286   41295      16
   41289   41280  -41286   41298      16   41289   41286   41295   41310      17
   41289   41286  -41298   41313      12   41289   41301  -41313   41298       4
   41289   41301   41313   41328       4   41289   41301   41316   41331       4
   41286   41280   41283   41292      18   41286   41280  -41283   41295      18
   41286   41280  -41289   41301      19   41286   41289  -41301   41313      20
   41286   41289   41301   41316      20   41286   41295  -41283   41292       4
   41286   41295   41310   41319       4   41286   41298  -41313   41301      21
   41286   41298   41313   41328      21   41283   41280  -41286   41289      16
   41283   41280  -41286   41295      16   41283   41280   41286   41298      16
   41283   41280  -41289   41286      19   41283   41280   41289   41301      19
   41283   41292   41304   41319       4   41283   41292   41304   41322       4
   41283   41295  -41286   41289      17   41283   41295  -41286   41298      10
   41283   41295  -41310   41319       4   41280   41283   41292   41304       4
   41280   41283  -41295   41286       4   41280   41283   41295   41310       4
   41280   41286  -41289   41301       9   41280   41286  -41295   41283      10
   41280   41286  -41295   41310      10   41280   41286   41298   41313      12
   41280   41289  -41286   41295       9   41280   41289  -41286   41298       9
   41280   41289  -41301   41313      22   41280   41289   41301   41316      22
   41616   41634   41637   41649       3   41598   41616   41634   41637       3
   41577   41598   41616   41634       3   41574   41559   41571   41586       4
   41574   41592  -41607   41586       4   41571   41559   41574   41592       4
   41571   41586  -41607   41592       4   41562   41577   41598   41616       3
   41559   41571   41586   41607       4   41559   41574  -41592   41607       4
   41550   41562   41577   41598       3   41541   41559   41571   41586       4
   41541   41559   41574   41592       4   41532   41550   41562   41577       3
   41523   41541   41559   41571       5   41523   41541   41559   41574       5
   41520   41541   41559   41571       5   41520   41541   41559   41574       5
   41514   41532   41550   41562       3   41511   41496   41514   41532       6
   41508   41493   41505   41520       4   41508   41523  -41541   41520       4
   41508   41523   41541   41559       4   41505   41493   41508   41523       4
   41505   41520  -41541   41523       4   41505   41520   41541   41559       4
   41502   41511   41496   41514       4   41496   41514   41532   41550       8
   41493   41505   41520   41541       4   41493   41508  -41523   41541       4
   41490   41478  -41481   41493       9   41490   41478   41487   41502      10
   41490   41505   41493   41508       4   41490   41505   41520   41541       4
   41487   41475   41484   41496       4   41487   41478   41481   41493      11
   41487   41478   41490   41505      12   41487   41502  -41511   41496       4
   41484   41475   41487   41502       4   41484   41496  -41511   41502       4
   41484   41496   41514   41532       6   41481   41472   41475   41484      13
   41481   41472  -41475   41484      14   41481   41472  -41475   41484      15
   41481   41472  -41475   41487      13   41481   41472  -41475   41487      14
   41481   41472  -41475   41487      15   41481   41472  -41478   41487      16
   41481   41472  -41478   41490      16   41481   41478   41487   41502      17
   41481   41478  -41490   41505      12   41481   41493  -41505   41490       4
   41481   41493   41505   41520       4   41481   41493   41508   41523       4
   41478   41472   41475   41484      18   41478   41472  -41475   41487      18
   41478   41472  -41481   41493      19   41478   41481  -41493   41505      20
   41478   41481   41493   41508      20   41478   41487  -41475   41484       4
   41478   41487   41502   41511       4   41478   41490  -41505   41493      21
   41478   41490   41505   41520      21   41475   41472  -41478   41481      16
   41475   41472  -41478   41487      16   41475   41472   41478   41490      16
   41475   41472  -41481   41478      19   41475   41472   41481   41493      19
   41475   41484   41496   41511       4   41475   41484   41496   41514       4
   41475   41487  -41478   41481      17   41475   41487  -41478   41490      10
   41475   41487  -41502   41511       4   41472   41475   41484   41496       4
   41472   41475  -41487   41478       4   41472   41475   41487   41502       4
   41472   41478  -41481   41493       9   41472   41478  -41487   41475      10
   41472   41478  -41487   41502      10   41472   41478   41490   41505      12
   41472   41481  -41478   41487       9   41472   41481  -41478   41490       9
   41472   41481  -41493   41505      22   41472   41481   41493   41508      22
   41808   41826   41829   41841       3   41790   41808   41826   41829       3
   41769   41790   41808   41826       3   41766   41751   41763   41778       4
   41766   41784  -41799   41778       4   41763   41751   41766   41784       4
   41763   41778  -41799   41784       4   41754   41769   41790   41808       3
   41751   41763   41778   41799       4   41751   41766  -41784   41799       4
   41742   41754   41769   41790       3   41733   41751   41763   41778       4
   41733   41751   41766   41784       4   41724   41742   41754   41769       3
   41715   41733   41751   41763       5   41715   41733   41751   41766       5
   41712   41733   41751   41763       5   41712   41733   41751   41766       5
   41706   41724   41742   41754       3   41703   41688   41706   41724       6
   41700   41685   41697   41712       4   41700   41715  -41733   41712       4
   41700   41715   41733   41751       4   41697   41685   41700   41715       4
   41697   41712  -41733   41715       4   41697   41712   41733   41751       4
   41694   41703   41688   41706       4   41688   41706   41724   41742       8
   41685   41697   41712   41733       4   41685   41700  -41715   41733       4
   41682   41670  -41673   41685       9   41682   41670   41679   41694      10
   41682   41697   41685   41700       4   41682   41697   41712   41733       4
   41679   41667   41676   41688       4   41679   41670   41673   41685      11
   41679   41670   41682   41697      12   41679   41694  -41703   41688       4
   41676   41667   41679   41694       4   41676   41688  -41703   41694       4
   41676   41688   41706   41724       6   41673   41664   41667   41676      13
   41673   41664  -41667   41676      14   41673   41664  -41667   41676      15
   41673   41664  -41667   41679      13   41673   41664  -41667   41679      14
   41673   41664  -41667   41679      15   41673   41664  -41670   41679      16
   41673   41664  -41670   41682      16   41673   41670   41679   41694      17
   41673   41670  -41682   41697      12   41673   41685  -41697   41682       4
   41673   41685   41697   41712       4   41673   41685   41700   41715       4
   41670   41664   41667   41676      18   41670   41664  -41667   41679      18
   41670   41664  -41673   41685      19   41670   41673  -41685   41697      20
   41670   41673   41685   41700      20   41670   41679  -41667   41676       4
   41670   41679   41694   41703       4   41670   41682  -41697   41685      21
   41670   41682   41697   41712      21   41667   41664  -41670   41673      16
   41667   41664  -41670   41679      16   41667   41664   41670   41682      16
   41667   41664  -41673   41670      19   41667   41664   41673   41685      19
   41667   41676   41688   41703       4   41667   41676   41688   41706       4
   41667   41679  -41670   41673      17   41667   41679  -41670   41682      10
   41667   41679  -41694   41703       4   41664   41667   41676   41688       4
   41664   41667  -41679   41670       4   41664   41667   41679   41694       4
   41664   41670  -41673   41685       9   41664   41670  -41679   41667      10
   41664   41670  -41679   41694      10   41664   41670   41682   41697      12
   41664   41673  -41670   41679       9   41664   41673  -41670   41682       9
   41664   41673  -41685   41697      22   41664   41673   41685   41700      22
   42000   42018   42021   42033       3   41982   42000   42018   42021       3
   41961   41982   42000   42018       3   41958   41943   41955   41970       4
   41958   41976  -41991   41970       4   41955   41943   41958   41976       4
   41955   41970  -41991   41976       4   41946   41961   41982   42000       3
   41943   41955   41970   41991       4   41943   41958  -41976   41991       4
   41934   41946   41961   41982       3   41925   41943   41955   41970       4
   41925   41943   41958   41976       4   41916   41934   41946   41961       3
   41907   41925   41943   41955       5   41907   41925   41943   41958       5
   41904   41925   41943   41955       5   41904   41925   41943   41958       5
   41898   41916   41934   41946       3   41895   41880   41898   41916       6
   41892   41877   41889   41904       4   41892   41907  -41925   41904       4
   41892   41907   41925   41943       4   41889   41877   41892   41907       4
   41889   41904  -41925   41907       4   41889   41904   41925   41943       4
   41886   41895   41880   41898       4   41880   41898   41916   41934       8
   41877   41889   41904   41925       4   41877   41892  -41907   41925       4
   41874   41862  -41865   41877       9   41874   41862   41871   41886      10
   41874   41889   41877   41892       4   41874   41889   41904   41925       4
   41871   41859   41868   41880       4   41871   41862   41865   41877      11
   41871   41862   41874   41889      12   41871   41886  -41895   41880       4
   41868   41859   41871   41886       4   41868   41880  -41895   41886       4
   41868   41880   41898   41916       6   41865   41856   41859   41868      13
   41865   41856  -41859   41868      14   41865   41856  -41859   41868      15
   41865   41856  -41859   41871      13   41865   41856  -41859   41871      14
   41865   41856  -41859   41871      15   41865   41856  -41862   41871      16
   41865   41856  -41862   41874      16   41865   41862   41871   41886      17
   41865   41862  -41874   41889      12   41865   41877  -41889   41874       4
   41865   41877   41889   41904       4   41865   41877   41892   41907       4
   41862   41856   41859   41868      18   41862   41856  -41859   41871      18
   41862   41856  -41865   41877      19   41862   41865  -41877   41889      20
   41862   41865   41877   41892      20   41862   41871  -41859   41868       4
   41862   41871   41886   41895       4   41862   41874  -41889   41877      21
   41862   41874   41889   41904      21   41859   41856  -41862   41865      16
   41859   41856  -41862   41871      16   41859   41856   41862   41874      16
   41859   41856  -41865   41862      19   41859   41856   41865   41877      19
   41859   41868   41880   41895       4   41859   41868   41880   41898       4
   41859   41871  -41862   41865      17   41859   41871  -41862   41874      10
   41859   41871  -41886   41895       4   41856   41859   41868   41880       4
   41856   41859  -41871   41862       4   41856   41859   41871   41886       4
   41856   41862  -41865   41877       9   41856   41862  -41871   41859      10
   41856   41862  -41871   41886      10   41856   41862   41874   41889      12
   41856   41865  -41862   41871       9   41856   41865  -41862   41874       9
   41856   41865  -41877   41889      22   41856   41865   41877   41892      22
   42192   42210   42213   42225       3   42174   42192   42210   42213       3
   42153   42174   42192   42210       3   42150   42135   42147   42162       4
   42150   42168  -42183   42162       4   42147   42135   42150   42168       4
   42147   42162  -42183   42168       4   42138   42153   42174   42192       3
   42135   42147   42162   42183       4   42135   42150  -42168   42183       4
   42126   42138   42153   42174       3   42117   42135   42147   42162       4
   42117   42135   42150   42168       4   42108   42126   42138   42153       3
   42099   42117   42135   42147       5   42099   42117   42135   42150       5
   42096   42117   42135   42147       5   42096   42117   42135   42150       5
   42090   42108   42126   42138       3   42087   42072   42090   42108       6
   42084   42069   42081   42096       4   42084   42099  -42117   42096       4
   42084   42099   42117   42135       4   42081   42069   42084   42099       4
   42081   42096  -42117   42099       4   42081   42096   42117   42135       4
   42078   42087   42072   42090       4   42072   42090   42108   42126       8
   42069   42081   42096   42117       4   42069   42084  -42099   42117       4
   42066   42054  -42057   42069       9   42066   42054   42063   42078      10
   42066   42081   42069   42084       4   42066   42081   42096   42117       4
   42063   42051   42060   42072       4   42063   42054   42057   42069      11
   42063   42054   42066   42081      12   42063   42078  -42087   42072       4
   42060   42051   42063   42078       4   42060   42072  -42087   42078       4
   42060   42072   42090   42108       6   42057   42048   42051   42060      13
   42057   42048  -42051   42060      14   42057   42048  -42051   42060      15
   42057   42048  -42051   42063      13   42057   42048  -42051   42063      14
   42057   42048  -42051   42063      15   42057   42048  -42054   42063      16
   42057   42048  -42054   42066      16   42057   42054   42063   42078      17
   42057   42054  -42066   42081      12   42057   42069  -42081   42066       4
   42057   42069   42081   42096       4   42057   42069   42084   42099       4
   42054   42048   42051   42060      18   42054   42048  -42051   42063      18
   42054   42048  -42057   42069      19   42054   42057  -42069   42081      20
   42054   42057   42069   42084      20   42054   42063  -42051   42060       4
   42054   42063   42078   42087       4   42054   42066  -42081   42069      21
   42054   42066   42081   42096      21   42051   42048  -42054   42057      16
   42051   42048  -42054   42063      16   42051   42048   42054   42066      16
   42051   42048  -42057   42054      19   42051   42048   42057   42069      19
   42051   42060   42072   42087       4   42051   42060   42072   42090       4
   42051   42063  -42054   42057      17   42051   42063  -42054   42066      10
   42051   42063  -42078   42087       4   42048   42051   42060   42072       4
   42048   42051  -42063   42054       4   42048   42051   42063   42078       4
   42048   42054  -42057   42069       9   42048   42054  -42063   42051      10
   42048   42054  -42063   42078      10   42048   42054   42066   42081      12
   42048   42057  -42054   42063       9   42048   42057  -42054   42066       9
   42048   42057  -42069   42081      22   42048   42057   42069   42084      22
   42384   42402   42405   42417       3   42366   42384   42402   42405       3
   42345   42366   42384   42402       3   42342   42327   42339   42354       4
   42342   42360  -42375   42354       4   42339   42327   42342   42360       4
   42339   42354  -42375   42360       4   42330   42345   42366   42384       3
   42327   42339   42354   42375       4   42327   42342  -42360   42375       4
   42318   42330   42345   42366       3   42309   42327   42339   42354       4
   42309   42327   42342   42360       4   42300   42318   42330   42345       3
   42291   42309   42327   42339       5   42291   42309   42327   42342       5
   42288   42309   42327   42339       5   42288   42309   42327   42342       5
   42282   42300   42318   42330       3   42279   42264   42282   42300       6
   42276   42261   42273   42288       4   42276   42291  -42309   42288       4
   42276   42291   42309   42327       4   42273   42261   42276   42291       4
   42273   42288  -42309   42291       4   42273   42288   42309   42327       4
   42270   42279   42264   42282       4   42264   42282   42300   42318       8
   42261   42273   42288   42309       4   42261   42276  -42291   42309       4
   42258   42246  -42249   42261       9   42258   42246   42255   42270      10
   42258   42273   42261   42276       4   42258   42273   42288   42309       4
   42255   42243   42252   42264       4   42255   42246   42249   42261      11
   42255   42246   42258   42273      12   42255   42270  -42279   42264       4
   42252   42243   42255   42270       4   42252   42264  -42279   42270       4
   42252   42264   42282   42300       6   42249   42240   42243   42252      13
   42249   42240  -42243   42252      14   42249   42240  -42243   42252      15
   42249   42240  -42243   42255      13   42249   42240  -42243   42255      14
   42249   42240  -42243   42255      15   42249   42240  -42246   42255      16
   42249   42240  -42246   42258      16   42249   42246   42255   42270      17
   42249   42246  -42258   42273      12   42249   42261  -42273   42258       4
   42249   42261   42273   42288       4   42249   42261   42276   42291       4
   42246   42240   42243   42252      18   42246   42240  -42243   42255      18
   42246   42240  -42249   42261      19   42246   42249  -42261   42273      20
   42246   42249   42261   42276      20   42246   42255  -42243   42252       4
   42246   42255   42270   42279       4   42246   42258  -42273   42261      21
   42246   42258   42273   42288      21   42243   42240  -42246   42249      16
   42243   42240  -42246   42255      16   42243   42240   42246   42258      16
   42243   42240  -42249   42246      19   42243   42240   42249   42261      19
   42243   42252   42264   42279       4   42243   42252   42264   42282       4
   42243   42255  -42246   42249      17   42243   42255  -42246   42258      10
   42243   42255  -42270   42279       4   42240   42243   42252   42264       4
   42240   42243  -42255   42246       4   42240   42243   42255   42270       4
   42240   42246  -42249   42261       9   42240   42246  -42255   42243      10
   42240   42246  -42255   42270      10   42240   42246   42258   42273      12
   42240   42249  -42246   42255       9   42240   42249  -42246   42258       9
   42240   42249  -42261   42273      22   42240   42249   42261   42276      22
   42576   42594   42597   42609       3   42558   42576   42594   42597       3
   42537   42558   42576   42594       3   42534   42519   42531   42546       4
   42534   42552  -42567   42546       4   42531   42519   42534   42552       4
   42531   42546  -42567   42552       4   42522   42537   42558   42576       3
   42519   42531   42546   42567       4   42519   42534  -42552   42567       4
   42510   42522   42537   42558       3   42501   42519   42531   42546       4
   42501   42519   42534   42552       4   42492   42510   42522   42537       3
   42483   42501   42519   42531       5   42483   42501   42519   42534       5
   42480   42501   42519   42531       5   42480   42501   42519   42534       5
   42474   42492   42510   42522       3   42471   42456   42474   42492       6
   42468   42453   42465   42480       4   42468   42483  -42501   42480       4
   42468   42483   42501   42519       4   42465   42453   42468   42483       4
   42465   42480  -42501   42483       4   42465   42480   42501   42519       4
   42462   42471   42456   42474       4   42456   42474   42492   42510       8
   42453   42465   42480   42501       4   42453   42468  -42483   42501       4
   42450   42438  -42441   42453       9   42450   42438   42447   42462      10
   42450   42465   42453   42468       4   42450   42465   42480   42501       4
   42447   42435   42444   42456       4   42447   42438   42441   42453      11
   42447   42438   42450   42465      12   42447   42462  -42471   42456       4
   42444   42435   42447   42462       4   42444   42456  -42471   42462       4
   42444   42456   42474   42492       6   42441   42432   42435   42444      13
   42441   42432  -42435   42444      14   42441   42432  -42435   42444      15
   42441   42432  -42435   42447      13   42441   42432  -42435   42447      14
   42441   42432  -42435   42447      15   42441   42432  -42438   42447      16
   42441   42432  -42438   42450      16   42441   42438   42447   42462      17
   42441   42438  -42450   42465      12   42441   42453  -42465   42450       4
   42441   42453   42465   42480       4   42441   42453   42468   42483       4
   42438   42432   42435   42444      18   42438   42432  -42435   42447      18
   42438   42432  -42441   42453      19   42438   42441  -42453   42465      20
   42438   42441   42453   42468      20   42438   42447  -42435   42444       4
   42438   42447   42462   42471       4   42438   42450  -42465   42453      21
   42438   42450   42465   42480      21   42435   42432  -42438   42441      16
   42435   42432  -42438   42447      16   42435   42432   42438   42450      16
   42435   42432  -42441   42438      19   42435   42432   42441   42453      19
   42435   42444   42456   42471       4   42435   42444   42456   42474       4
   42435   42447  -42438   42441      17   42435   42447  -42438   42450      10
   42435   42447  -42462   42471       4   42432   42435   42444   42456       4
   42432   42435  -42447   42438       4   42432   42435   42447   42462       4
   42432   42438  -42441   42453       9   42432   42438  -42447   42435      10
   42432   42438  -42447   42462      10   42432   42438   42450   42465      12
   42432   42441  -42438   42447       9   42432   42441  -42438   42450       9
   42432   42441  -42453   42465      22   42432   42441   42453   42468      22
   42768   42786   42789   42801       3   42750   42768   42786   42789       3
   42729   42750   42768   42786       3   42726   42711   42723   42738       4
   42726   42744  -42759   42738       4   42723   42711   42726   42744       4
   42723   42738  -42759   42744       4   42714   42729   42750   42768       3
   42711   42723   42738   42759       4   42711   42726  -42744   42759       4
   42702   42714   42729   42750       3   42693   42711   42723   42738       4
   42693   42711   42726   42744       4   42684   42702   42714   42729       3
   42675   42693   42711   42723       5   42675   42693   42711   42726       5
   42672   42693   42711   42723       5   42672   42693   42711   42726       5
   42666   42684   42702   42714       3   42663   42648   42666   42684       6
   42660   42645   42657   42672       4   42660   42675  -42693   42672       4
   42660   42675   42693   42711       4   42657   42645   42660   42675       4
   42657   42672  -42693   42675       4   42657   42672   42693   42711       4
   42654   42663   42648   42666       4   42648   42666   42684   42702       8
   42645   42657   42672   42693       4   42645   42660  -42675   42693       4
   42642   42630  -42633   42645       9   42642   42630   42639   42654      10
   42642   42657   42645   42660       4   42642   42657   42672   42693       4
   42639   42627   42636   42648       4   42639   42630   42633   42645      11
   42639   42630   42642   42657      12   42639   42654  -42663   42648       4
   42636   42627   42639   42654       4   42636   42648  -42663   42654       4
   42636   42648   42666   42684       6   42633   42624   42627   42636      13
   42633   42624  -42627   42636      14   42633   42624  -42627   42636      15
   42633   42624  -42627   42639      13   42633   42624  -42627   42639      14
   42633   42624  -42627   42639      15   42633   42624  -42630   42639      16
   42633   42624  -42630   42642      16   42633   42630   42639   42654      17
   42633   42630  -42642   42657      12   42633   42645  -42657   42642       4
   42633   42645   42657   42672       4   42633   42645   42660   42675       4
   42630   42624   42627   42636      18   42630   42624  -42627   42639      18
   42630   42624  -42633   42645      19   42630   42633  -42645   42657      20
   42630   42633   42645   42660      20   42630   42639  -42627   42636       4
   42630   42639   42654   42663       4   42630   42642  -42657   42645      21
   42630   42642   42657   42672      21   42627   42624  -42630   42633      16
   42627   42624  -42630   42639      16   42627   42624   42630   42642      16
   42627   42624  -42633   42630      19   42627   42624   42633   42645      19
   42627   42636   42648   42663       4   42627   42636   42648   42666       4
   42627   42639  -42630   42633      17   42627   42639  -42630   42642      10
   42627   42639  -42654   42663       4   42624   42627   42636   42648       4
   42624   42627  -42639   42630       4   42624   42627   42639   42654       4
   42624   42630  -42633   42645       9   42624   42630  -42639   42627      10
   42624   42630  -42639   42654      10   42624   42630   42642   42657      12
   42624   42633  -42630   42639       9   42624   42633  -42630   42642       9
   42624   42633  -42645   42657      22   42624   42633   42645   42660      22
   42960   42978   42981   42993       3   42942   42960   42978   42981       3
   42921   42942   42960   42978       3   42918   42903   42915   42930       4
   42918   42936  -42951   42930       4   42915   42903   42918   42936       4
   42915   42930  -42951   42936       4   42906   42921   42942   42960       3
   42903   42915   42930   42951       4   42903   42918  -42936   42951       4
   42894   42906   42921   42942       3   42885   42903   42915   42930       4
   42885   42903   42918   42936       4   42876   42894   42906   42921       3
   42867   42885   42903   42915       5   42867   42885   42903   42918       5
   42864   42885   42903   42915       5   42864   42885   42903   42918       5
   42858   42876   42894   42906       3   42855   42840   42858   42876       6
   42852   42837   42849   42864       4   42852   42867  -42885   42864       4
   42852   42867   42885   42903       4   42849   42837   42852   42867       4
   42849   42864  -42885   42867       4   42849   42864   42885   42903       4
   42846   42855   42840   42858       4   42840   42858   42876   42894       8
   42837   42849   42864   42885       4   42837   42852  -42867   42885       4
   42834   42822  -42825   42837       9   42834   42822   42831   42846      10
   42834   42849   42837   42852       4   42834   42849   42864   42885       4
   42831   42819   42828   42840       4   42831   42822   42825   42837      11
   42831   42822   42834   42849      12   42831   42846  -42855   42840       4
   42828   42819   42831   42846       4   42828   42840  -42855   42846       4
   42828   42840   42858   42876       6   42825   42816   42819   42828      13
   42825   42816  -42819   42828      14   42825   42816  -42819   42828      15
   42825   42816  -42819   42831      13   42825   42816  -42819   42831      14
   42825   42816  -42819   42831      15   42825   42816  -42822   42831      16
   42825   42816  -42822   42834      16   42825   42822   42831   42846      17
   42825   42822  -42834   42849      12   42825   42837  -42849   42834       4
   42825   42837   42849   42864       4   42825   42837   42852   42867       4
   42822   42816   42819   42828      18   42822   42816  -42819   42831      18
   42822   42816  -42825   42837      19   42822   42825  -42837   42849      20
   42822   42825   42837   42852      20   42822   42831  -42819   42828       4
   42822   42831   42846   42855       4   42822   42834  -42849   42837      21
   42822   42834   42849   42864      21   42819   42816  -42822   42825      16
   42819   42816  -42822   42831      16   42819   42816   42822   42834      16
   42819   42816  -42825   42822      19   42819   42816   42825   42837      19
   42819   42828   42840   42855       4   42819   42828   42840   42858       4
   42819   42831  -42822   42825      17   42819   42831  -42822   42834      10
   42819   42831  -42846   42855       4   42816   42819   42828   42840       4
   42816   42819  -42831   42822       4   42816   42819   42831   42846       4
   42816   42822  -42825   42837       9   42816   42822  -42831   42819      10
   42816   42822  -42831   42846      10   42816   42822   42834   42849      12
   42816   42825  -42822   42831       9   42816   42825  -42822   42834       9
   42816   42825  -42837   42849      22   42816   42825   42837   42852      22
   43152   43170   43173   43185       3   43134   43152   43170   43173       3
   43113   43134   43152   43170       3   43110   43095   43107   43122       4
   43110   43128  -43143   43122       4   43107   43095   43110   43128       4
   43107   43122  -43143   43128       4   43098   43113   43134   43152       3
   43095   43107   43122   43143       4   43095   43110  -43128   43143       4
   43086   43098   43113   43134       3   43077   43095   43107   43122       4
   43077   43095   43110   43128       4   43068   43086   43098   43113       3
   43059   43077   43095   43107       5   43059   43077   43095   43110       5
   43056   43077   43095   43107       5   43056   43077   43095   43110       5
   43050   43068   43086   43098       3   43047   43032   43050   43068       6
   43044   43029   43041   43056       4   43044   43059  -43077   43056       4
   43044   43059   43077   43095       4   43041   43029   43044   43059       4
   43041   43056  -43077   43059       4   43041   43056   43077   43095       4
   43038   43047   43032   43050       4   43032   43050   43068   43086       8
   43029   43041   43056   43077       4   43029   43044  -43059   43077       4
   43026   43014  -43017   43029       9   43026   43014   43023   43038      10
   43026   43041   43029   43044       4   43026   43041   43056   43077       4
   43023   43011   43020   43032       4   43023   43014   43017   43029      11
   43023   43014   43026   43041      12   43023   43038  -43047   43032       4
   43020   43011   43023   43038       4   43020   43032  -43047   43038       4
   43020   43032   43050   43068       6   43017   43008   43011   43020      13
   43017   43008  -43011   43020      14   43017   43008  -43011   43020      15
   43017   43008  -43011   43023      13   43017   43008  -43011   43023      14
   43017   43008  -43011   43023      15   43017   43008  -43014   43023      16
   43017   43008  -43014   43026      16   43017   43014   43023   43038      17
   43017   43014  -43026   43041      12   43017   43029  -43041   43026       4
   43017   43029   43041   43056       4   43017   43029   43044   43059       4
   43014   43008   43011   43020      18   43014   43008  -43011   43023      18
   43014   43008  -43017   43029      19   43014   43017  -43029   43041      20
   43014   43017   43029   43044      20   43014   43023  -43011   43020       4
   43014   43023   43038   43047       4   43014   43026  -43041   43029      21
   43014   43026   43041   43056      21   43011   43008  -43014   43017      16
   43011   43008  -43014   43023      16   43011   43008   43014   43026      16
   43011   43008  -43017   43014      19   43011   43008   43017   43029      19
   43011   43020   43032   43047       4   43011   43020   43032   43050       4
   43011   43023  -43014   43017      17   43011   43023  -43014   43026      10
   43011   43023  -43038   43047       4   43008   43011   43020   43032       4
   43008   43011  -43023   43014       4   43008   43011   43023   43038       4
   43008   43014  -43017   43029       9   43008   43014  -43023   43011      10
   43008   43014  -43023   43038      10   43008   43014   43026   43041      12
   43008   43017  -43014   43023       9   43008   43017  -43014   43026       9
   43008   43017  -43029   43041      22   43008   43017   43029   43044      22
   43344   43362   43365   43377       3   43326   43344   43362   43365       3
   43305   43326   43344   43362       3   43302   43287   43299   43314       4
   43302   43320  -43335   43314       4   43299   43287   43302   43320       4
   43299   43314  -43335   43320       4   43290   43305   43326   43344       3
   43287   43299   43314   43335       4   43287   43302  -43320   43335       4
   43278   43290   43305   43326       3   43269   43287   43299   43314       4
   43269   43287   43302   43320       4   43260   43278   43290   43305       3
   43251   43269   43287   43299       5   43251   43269   43287   43302       5
   43248   43269   43287   43299       5   43248   43269   43287   43302       5
   43242   43260   43278   43290       3   43239   43224   43242   43260       6
   43236   43221   43233   43248       4   43236   43251  -43269   43248       4
   43236   43251   43269   43287       4   43233   43221   43236   43251       4
   43233   43248  -43269   43251       4   43233   43248   43269   43287       4
   43230   43239   43224   43242       4   43224   43242   43260   43278       8
   43221   43233   43248   43269       4   43221   43236  -43251   43269       4
   43218   43206  -43209   43221       9   43218   43206   43215   43230      10
   43218   43233   43221   43236       4   43218   43233   43248   43269       4
   43215   43203   43212   43224       4   43215   43206   43209   43221      11
   43215   43206   43218   43233      12   43215   43230  -43239   43224       4
   43212   43203   43215   43230       4   43212   43224  -43239   43230       4
   43212   43224   43242   43260       6   43209   43200   43203   43212      13
   43209   43200  -43203   43212      14   43209   43200  -43203   43212      15
   43209   43200  -43203   43215      13   43209   43200  -43203   43215      14
   43209   43200  -43203   43215      15   43209   43200  -43206   43215      16
   43209   43200  -43206   43218      16   43209   43206   43215   43230      17
   43209   43206  -43218   43233      12   43209   43221  -43233   43218       4
   43209   43221   43233   43248       4   43209   43221   43236   43251       4
   43206   43200   43203   43212      18   43206   43200  -43203   43215      18
   43206   43200  -43209   43221      19   43206   43209  -43221   43233      20
   43206   43209   43221   43236      20   43206   43215  -43203   43212       4
   43206   43215   43230   43239       4   43206   43218  -43233   43221      21
   43206   43218   43233   43248      21   43203   43200  -43206   43209      16
   43203   43200  -43206   43215      16   43203   43200   43206   43218      16
   43203   43200  -43209   43206      19   43203   43200   43209   43221      19
   43203   43212   43224   43239       4   43203   43212   43224   43242       4
   43203   43215  -43206   43209      17   43203   43215  -43206   43218      10
   43203   43215  -43230   43239       4   43200   43203   43212   43224       4
   43200   43203  -43215   43206       4   43200   43203   43215   43230       4
   43200   43206  -43209   43221       9   43200   43206  -43215   43203      10
   43200   43206  -43215   43230      10   43200   43206   43218   43233      12
   43200   43209  -43206   43215       9   43200   43209  -43206   43218       9
   43200   43209  -43221   43233      22   43200   43209   43221   43236      22
   43536   43554   43557   43569       3   43518   43536   43554   43557       3
   43497   43518   43536   43554       3   43494   43479   43491   43506       4
   43494   43512  -43527   43506       4   43491   43479   43494   43512       4
   43491   43506  -43527   43512       4   43482   43497   43518   43536       3
   43479   43491   43506   43527       4   43479   43494  -43512   43527       4
   43470   43482   43497   43518       3   43461   43479   43491   43506       4
   43461   43479   43494   43512       4   43452   43470   43482   43497       3
   43443   43461   43479   43491       5   43443   43461   43479   43494       5
   43440   43461   43479   43491       5   43440   43461   43479   43494       5
   43434   43452   43470   43482       3   43431   43416   43434   43452       6
   43428   43413   43425   43440       4   43428   43443  -43461   43440       4
   43428   43443   43461   43479       4   43425   43413   43428   43443       4
   43425   43440  -43461   43443       4   43425   43440   43461   43479       4
   43422   43431   43416   43434       4   43416   43434   43452   43470       8
   43413   43425   43440   43461       4   43413   43428  -43443   43461       4
   43410   43398  -43401   43413       9   43410   43398   43407   43422      10
   43410   43425   43413   43428       4   43410   43425   43440   43461       4
   43407   43395   43404   43416       4   43407   43398   43401   43413      11
   43407   43398   43410   43425      12   43407   43422  -43431   43416       4
   43404   43395   43407   43422       4   43404   43416  -43431   43422       4
   43404   43416   43434   43452       6   43401   43392   43395   43404      13
   43401   43392  -43395   43404      14   43401   43392  -43395   43404      15
   43401   43392  -43395   43407      13   43401   43392  -43395   43407      14
   43401   43392  -43395   43407      15   43401   43392  -43398   43407      16
   43401   43392  -43398   43410      16   43401   43398   43407   43422      17
   43401   43398  -43410   43425      12   43401   43413  -43425   43410       4
   43401   43413   43425   43440       4   43401   43413   43428   43443       4
   43398   43392   43395   43404      18   43398   43392  -43395   43407      18
   43398   43392  -43401   43413      19   43398   43401  -43413   43425      20
   43398   43401   43413   43428      20   43398   43407  -43395   43404       4
   43398   43407   43422   43431       4   43398   43410  -43425   43413      21
   43398   43410   43425   43440      21   43395   43392  -43398   43401      16
   43395   43392  -43398   43407      16   43395   43392   43398   43410      16
   43395   43392  -43401   43398      19   43395   43392   43401   43413      19
   43395   43404   43416   43431       4   43395   43404   43416   43434       4
   43395   43407  -43398   43401      17   43395   43407  -43398   43410      10
   43395   43407  -43422   43431       4   43392   43395   43404   43416       4
   43392   43395  -43407   43398       4   43392   43395   43407   43422       4
   43392   43398  -43401   43413       9   43392   43398  -43407   43395      10
   43392   43398  -43407   43422      10   43392   43398   43410   43425      12
   43392   43401  -43398   43407       9   43392   43401  -43398   43410       9
   43392   43401  -43413   43425      22   43392   43401   43413   43428      22
   43728   43746   43749   43761       3   43710   43728   43746   43749       3
   43689   43710   43728   43746       3   43686   43671   43683   43698       4
   43686   43704  -43719   43698       4   43683   43671   43686   43704       4
   43683   43698  -43719   43704       4   43674   43689   43710   43728       3
   43671   43683   43698   43719       4   43671   43686  -43704   43719       4
   43662   43674   43689   43710       3   43653   43671   43683   43698       4
   43653   43671   43686   43704       4   43644   43662   43674   43689       3
   43635   43653   43671   43683       5   43635   43653   43671   43686       5
   43632   43653   43671   43683       5   43632   43653   43671   43686       5
   43626   43644   43662   43674       3   43623   43608   43626   43644       6
   43620   43605   43617   43632       4   43620   43635  -43653   43632       4
   43620   43635   43653   43671       4   43617   43605   43620   43635       4
   43617   43632  -43653   43635       4   43617   43632   43653   43671       4
   43614   43623   43608   43626       4   43608   43626   43644   43662       8
   43605   43617   43632   43653       4   43605   43620  -43635   43653       4
   43602   43590  -43593   43605       9   43602   43590   43599   43614      10
   43602   43617   43605   43620       4   43602   43617   43632   43653       4
   43599   43587   43596   43608       4   43599   43590   43593   43605      11
   43599   43590   43602   43617      12   43599   43614  -43623   43608       4
   43596   43587   43599   43614       4   43596   43608  -43623   43614       4
   43596   43608   43626   43644       6   43593   43584   43587   43596      13
   43593   43584  -43587   43596      14   43593   43584  -43587   43596      15
   43593   43584  -43587   43599      13   43593   43584  -43587   43599      14
   43593   43584  -43587   43599      15   43593   43584  -43590   43599      16
   43593   43584  -43590   43602      16   43593   43590   43599   43614      17
   43593   43590  -43602   43617      12   43593   43605  -43617   43602       4
   43593   43605   43617   43632       4   43593   43605   43620   43635       4
   43590   43584   43587   43596      18   43590   43584  -43587   43599      18
   43590   43584  -43593   43605      19   43590   43593  -43605   43617      20
   43590   43593   43605   43620      20   43590   43599  -43587   43596       4
   43590   43599   43614   43623       4   43590   43602  -43617   43605      21
   43590   43602   43617   43632      21   43587   43584  -43590   43593      16
   43587   43584  -43590   43599      16   43587   43584   43590   43602      16
   43587   43584  -43593   43590      19   43587   43584   43593   43605      19
   43587   43596   43608   43623       4   43587   43596   43608   43626       4
   43587   43599  -43590   43593      17   43587   43599  -43590   43602      10
   43587   43599  -43614   43623       4   43584   43587   43596   43608       4
   43584   43587  -43599   43590       4   43584   43587   43599   43614       4
   43584   43590  -43593   43605       9   43584   43590  -43599   43587      10
   43584   43590  -43599   43614      10   43584   43590   43602   43617      12
   43584   43593  -43590   43599       9   43584   43593  -43590   43602       9
   43584   43593  -43605   43617      22   43584   43593   43605   43620      22
   43920   43938   43941   43953       3   43902   43920   43938   43941       3
   43881   43902   43920   43938       3   43878   43863   43875   43890       4
   43878   43896  -43911   43890       4   43875   43863   43878   43896       4
   43875   43890  -43911   43896       4   43866   43881   43902   43920       3
   43863   43875   43890   43911       4   43863   43878  -43896   43911       4
   43854   43866   43881   43902       3   43845   43863   43875   43890       4
   43845   43863   43878   43896       4   43836   43854   43866   43881       3
   43827   43845   43863   43875       5   43827   43845   43863   43878       5
   43824   43845   43863   43875       5   43824   43845   43863   43878       5
   43818   43836   43854   43866       3   43815   43800   43818   43836       6
   43812   43797   43809   43824       4   43812   43827  -43845   43824       4
   43812   43827   43845   43863       4   43809   43797   43812   43827       4
   43809   43824  -43845   43827       4   43809   43824   43845   43863       4
   43806   43815   43800   43818       4   43800   43818   43836   43854       8
   43797   43809   43824   43845       4   43797   43812  -43827   43845       4
   43794   43782  -43785   43797       9   43794   43782   43791   43806      10
   43794   43809   43797   43812       4   43794   43809   43824   43845       4
   43791   43779   43788   43800       4   43791   43782   43785   43797      11
   43791   43782   43794   43809      12   43791   43806  -43815   43800       4
   43788   43779   43791   43806       4   43788   43800  -43815   43806       4
   43788   43800   43818   43836       6   43785   43776   43779   43788      13
   43785   43776  -43779   43788      14   43785   43776  -43779   43788      15
   43785   43776  -43779   43791      13   43785   43776  -43779   43791      14
   43785   43776  -43779   43791      15   43785   43776  -43782   43791      16
   43785   43776  -43782   43794      16   43785   43782   43791   43806      17
   43785   43782  -43794   43809      12   43785   43797  -43809   43794       4
   43785   43797   43809   43824       4   43785   43797   43812   43827       4
   43782   43776   43779   43788      18   43782   43776  -43779   43791      18
   43782   43776  -43785   43797      19   43782   43785  -43797   43809      20
   43782   43785   43797   43812      20   43782   43791  -43779   43788       4
   43782   43791   43806   43815       4   43782   43794  -43809   43797      21
   43782   43794   43809   43824      21   43779   43776  -43782   43785      16
   43779   43776  -43782   43791      16   43779   43776   43782   43794      16
   43779   43776  -43785   43782      19   43779   43776   43785   43797      19
   43779   43788   43800   43815       4   43779   43788   43800   43818       4
   43779   43791  -43782   43785      17   43779   43791  -43782   43794      10
   43779   43791  -43806   43815       4   43776   43779   43788   43800       4
   43776   43779  -43791   43782       4   43776   43779   43791   43806       4
   43776   43782  -43785   43797       9   43776   43782  -43791   43779      10
   43776   43782  -43791   43806      10   43776   43782   43794   43809      12
   43776   43785  -43782   43791       9   43776   43785  -43782   43794       9
   43776   43785  -43797   43809      22   43776   43785   43797   43812      22
   44112   44130   44133   44145       3   44094   44112   44130   44133       3
   44073   44094   44112   44130       3   44070   44055   44067   44082       4
   44070   44088  -44103   44082       4   44067   44055   44070   44088       4
   44067   44082  -44103   44088       4   44058   44073   44094   44112       3
   44055   44067   44082   44103       4   44055   44070  -44088   44103       4
   44046   44058   44073   44094       3   44037   44055   44067   44082       4
   44037   44055   44070   44088       4   44028   44046   44058   44073       3
   44019   44037   44055   44067       5   44019   44037   44055   44070       5
   44016   44037   44055   44067       5   44016   44037   44055   44070       5
   44010   44028   44046   44058       3   44007   43992   44010   44028       6
   44004   43989   44001   44016       4   44004   44019  -44037   44016       4
   44004   44019   44037   44055       4   44001   43989   44004   44019       4
   44001   44016  -44037   44019       4   44001   44016   44037   44055       4
   43998   44007   43992   44010       4   43992   44010   44028   44046       8
   43989   44001   44016   44037       4   43989   44004  -44019   44037       4
   43986   43974  -43977   43989       9   43986   43974   43983   43998      10
   43986   44001   43989   44004       4   43986   44001   44016   44037       4
   43983   43971   43980   43992       4   43983   43974   43977   43989      11
   43983   43974   43986   44001      12   43983   43998  -44007   43992       4
   43980   43971   43983   43998       4   43980   43992  -44007   43998       4
   43980   43992   44010   44028       6   43977   43968   43971   43980      13
   43977   43968  -43971   43980      14   43977   43968  -43971   43980      15
   43977   43968  -43971   43983      13   43977   43968  -43971   43983      14
   43977   43968  -43971   43983      15   43977   43968  -43974   43983      16
   43977   43968  -43974   43986      16   43977   43974   43983   43998      17
   43977   43974  -43986   44001      12   43977   43989  -44001   43986       4
   43977   43989   44001   44016       4   43977   43989   44004   44019       4
   43974   43968   43971   43980      18   43974   43968  -43971   43983      18
   43974   43968  -43977   43989      19   43974   43977  -43989   44001      20
   43974   43977   43989   44004      20   43974   43983  -43971   43980       4
   43974   43983   43998   44007       4   43974   43986  -44001   43989      21
   43974   43986   44001   44016      21   43971   43968  -43974   43977      16
   43971   43968  -43974   43983      16   43971   43968   43974   43986      16
   43971   43968  -43977   43974      19   43971   43968   43977   43989      19
   43971   43980   43992   44007       4   43971   43980   43992   44010       4
   43971   43983  -43974   43977      17   43971   43983  -43974   43986      10
   43971   43983  -43998   44007       4   43968   43971   43980   43992       4
   43968   43971  -43983   43974       4   43968   43971   43983   43998       4
   43968   43974  -43977   43989       9   43968   43974  -43983   43971      10
   43968   43974  -43983   43998      10   43968   43974   43986   44001      12
   43968   43977  -43974   43983       9   43968   43977  -43974   43986       9
   43968   43977  -43989   44001      22   43968   43977   43989   44004      22
   44304   44322   44325   44337       3   44286   44304   44322   44325       3
   44265   44286   44304   44322       3   44262   44247   44259   44274       4
   44262   44280  -44295   44274       4   44259   44247   44262   44280       4
   44259   44274  -44295   44280       4   44250   44265   44286   44304       3
   44247   44259   44274   44295       4   44247   44262  -44280   44295       4
   44238   44250   44265   44286       3   44229   44247   44259   44274       4
   44229   44247   44262   44280       4   44220   44238   44250   44265       3
   44211   44229   44247   44259       5   44211   44229   44247   44262       5
   44208   44229   44247   44259       5   44208   44229   44247   44262       5
   44202   44220   44238   44250       3   44199   44184   44202   44220       6
   44196   44181   44193   44208       4   44196   44211  -44229   44208       4
   44196   44211   44229   44247       4   44193   44181   44196   44211       4
   44193   44208  -44229   44211       4   44193   44208   44229   44247       4
   44190   44199   44184   44202       4   44184   44202   44220   44238       8
   44181   44193   44208   44229       4   44181   44196  -44211   44229       4
   44178   44166  -44169   44181       9   44178   44166   44175   44190      10
   44178   44193   44181   44196       4   44178   44193   44208   44229       4
   44175   44163   44172   44184       4   44175   44166   44169   44181      11
   44175   44166   44178   44193      12   44175   44190  -44199   44184       4
   44172   44163   44175   44190       4   44172   44184  -44199   44190       4
   44172   44184   44202   44220       6   44169   44160   44163   44172      13
   44169   44160  -44163   44172      14   44169   44160  -44163   44172      15
   44169   44160  -44163   44175      13   44169   44160  -44163   44175      14
   44169   44160  -44163   44175      15   44169   44160  -44166   44175      16
   44169   44160  -44166   44178      16   44169   44166   44175   44190      17
   44169   44166  -44178   44193      12   44169   44181  -44193   44178       4
   44169   44181   44193   44208       4   44169   44181   44196   44211       4
   44166   44160   44163   44172      18   44166   44160  -44163   44175      18
   44166   44160  -44169   44181      19   44166   44169  -44181   44193      20
   44166   44169   44181   44196      20   44166   44175  -44163   44172       4
   44166   44175   44190   44199       4   44166   44178  -44193   44181      21
   44166   44178   44193   44208      21   44163   44160  -44166   44169      16
   44163   44160  -44166   44175      16   44163   44160   44166   44178      16
   44163   44160  -44169   44166      19   44163   44160   44169   44181      19
   44163   44172   44184   44199       4   44163   44172   44184   44202       4
   44163   44175  -44166   44169      17   44163   44175  -44166   44178      10
   44163   44175  -44190   44199       4   44160   44163   44172   44184       4
   44160   44163  -44175   44166       4   44160   44163   44175   44190       4
   44160   44166  -44169   44181       9   44160   44166  -44175   44163      10
   44160   44166  -44175   44190      10   44160   44166   44178   44193      12
   44160   44169  -44166   44175       9   44160   44169  -44166   44178       9
   44160   44169  -44181   44193      22   44160   44169   44181   44196      22
   44496   44514   44517   44529       3   44478   44496   44514   44517       3
   44457   44478   44496   44514       3   44454   44439   44451   44466       4
   44454   44472  -44487   44466       4   44451   44439   44454   44472       4
   44451   44466  -44487   44472       4   44442   44457   44478   44496       3
   44439   44451   44466   44487       4   44439   44454  -44472   44487       4
   44430   44442   44457   44478       3   44421   44439   44451   44466       4
   44421   44439   44454   44472       4   44412   44430   44442   44457       3
   44403   44421   44439   44451       5   44403   44421   44439   44454       5
   44400   44421   44439   44451       5   44400   44421   44439   44454       5
   44394   44412   44430   44442       3   44391   44376   44394   44412       6
   44388   44373   44385   44400       4   44388   44403  -44421   44400       4
   44388   44403   44421   44439       4   44385   44373   44388   44403       4
   44385   44400  -44421   44403       4   44385   44400   44421   44439       4
   44382   44391   44376   44394       4   44376   44394   44412   44430       8
   44373   44385   44400   44421       4   44373   44388  -44403   44421       4
   44370   44358  -44361   44373       9   44370   44358   44367   44382      10
   44370   44385   44373   44388       4   44370   44385   44400   44421       4
   44367   44355   44364   44376       4   44367   44358   44361   44373      11
   44367   44358   44370   44385      12   44367   44382  -44391   44376       4
   44364   44355   44367   44382       4   44364   44376  -44391   44382       4
   44364   44376   44394   44412       6   44361   44352   44355   44364      13
   44361   44352  -44355   44364      14   44361   44352  -44355   44364      15
   44361   44352  -44355   44367      13   44361   44352  -44355   44367      14
   44361   44352  -44355   44367      15   44361   44352  -44358   44367      16
   44361   44352  -44358   44370      16   44361   44358   44367   44382      17
   44361   44358  -44370   44385      12   44361   44373  -44385   44370       4
   44361   44373   44385   44400       4   44361   44373   44388   44403       4
   44358   44352   44355   44364      18   44358   44352  -44355   44367      18
   44358   44352  -44361   44373      19   44358   44361  -44373   44385      20
   44358   44361   44373   44388      20   44358   44367  -44355   44364       4
   44358   44367   44382   44391       4   44358   44370  -44385   44373      21
   44358   44370   44385   44400      21   44355   44352  -44358   44361      16
   44355   44352  -44358   44367      16   44355   44352   44358   44370      16
   44355   44352  -44361   44358      19   44355   44352   44361   44373      19
   44355   44364   44376   44391       4   44355   44364   44376   44394       4
   44355   44367  -44358   44361      17   44355   44367  -44358   44370      10
   44355   44367  -44382   44391       4   44352   44355   44364   44376       4
   44352   44355  -44367   44358       4   44352   44355   44367   44382       4
   44352   44358  -44361   44373       9   44352   44358  -44367   44355      10
   44352   44358  -44367   44382      10   44352   44358   44370   44385      12
   44352   44361  -44358   44367       9   44352   44361  -44358   44370       9
   44352   44361  -44373   44385      22   44352   44361   44373   44388      22
   44688   44706   44709   44721       3   44670   44688   44706   44709       3
   44649   44670   44688   44706       3   44646   44631   44643   44658       4
   44646   44664  -44679   44658       4   44643   44631   44646   44664       4
   44643   44658  -44679   44664       4   44634   44649   44670   44688       3
   44631   44643   44658   44679       4   44631   44646  -44664   44679       4
   44622   44634   44649   44670       3   44613   44631   44643   44658       4
   44613   44631   44646   44664       4   44604   44622   44634   44649       3
   44595   44613   44631   44643       5   44595   44613   44631   44646       5
   44592   44613   44631   44643       5   44592   44613   44631   44646       5
   44586   44604   44622   44634       3   44583   44568   44586   44604       6
   44580   44565   44577   44592       4   44580   44595  -44613   44592       4
   44580   44595   44613   44631       4   44577   44565   44580   44595       4
   44577   44592  -44613   44595       4   44577   44592   44613   44631       4
   44574   44583   44568   44586       4   44568   44586   44604   44622       8
   44565   44577   44592   44613       4   44565   44580  -44595   44613       4
   44562   44550  -44553   44565       9   44562   44550   44559   44574      10
   44562   44577   44565   44580       4   44562   44577   44592   44613       4
   44559   44547   44556   44568       4   44559   44550   44553   44565      11
   44559   44550   44562   44577      12   44559   44574  -44583   44568       4
   44556   44547   44559   44574       4   44556   44568  -44583   44574       4
   44556   44568   44586   44604       6   44553   44544   44547   44556      13
   44553   44544  -44547   44556      14   44553   44544  -44547   44556      15
   44553   44544  -44547   44559      13   44553   44544  -44547   44559      14
   44553   44544  -44547   44559      15   44553   44544  -44550   44559      16
   44553   44544  -44550   44562      16   44553   44550   44559   44574      17
   44553   44550  -44562   44577      12   44553   44565  -44577   44562       4
   44553   44565   44577   44592       4   44553   44565   44580   44595       4
   44550   44544   44547   44556      18   44550   44544  -44547   44559      18
   44550   44544  -44553   44565      19   44550   44553  -44565   44577      20
   44550   44553   44565   44580      20   44550   44559  -44547   44556       4
   44550   44559   44574   44583       4   44550   44562  -44577   44565      21
   44550   44562   44577   44592      21   44547   44544  -44550   44553      16
   44547   44544  -44550   44559      16   44547   44544   44550   44562      16
   44547   44544  -44553   44550      19   44547   44544   44553   44565      19
   44547   44556   44568   44583       4   44547   44556   44568   44586       4
   44547   44559  -44550   44553      17   44547   44559  -44550   44562      10
   44547   44559  -44574   44583       4   44544   44547   44556   44568       4
   44544   44547  -44559   44550       4   44544   44547   44559   44574       4
   44544   44550  -44553   44565       9   44544   44550  -44559   44547      10
   44544   44550  -44559   44574      10   44544   44550   44562   44577      12
   44544   44553  -44550   44559       9   44544   44553  -44550   44562       9
   44544   44553  -44565   44577      22   44544   44553   44565   44580      22
   44880   44898   44901   44913       3   44862   44880   44898   44901       3
   44841   44862   44880   44898       3   44838   44823   44835   44850       4
   44838   44856  -44871   44850       4   44835   44823   44838   44856       4
   44835   44850  -44871   44856       4   44826   44841   44862   44880       3
   44823   44835   44850   44871       4   44823   44838  -44856   44871       4
   44814   44826   44841   44862       3   44805   44823   44835   44850       4
   44805   44823   44838   44856       4   44796   44814   44826   44841       3
   44787   44805   44823   44835       5   44787   44805   44823   44838       5
   44784   44805   44823   44835       5   44784   44805   44823   44838       5
   44778   44796   44814   44826       3   44775   44760   44778   44796       6
   44772   44757   44769   44784       4   44772   44787  -44805   44784       4
   44772   44787   44805   44823       4   44769   44757   44772   44787       4
   44769   44784  -44805   44787       4   44769   44784   44805   44823       4
   44766   44775   44760   44778       4   44760   44778   44796   44814       8
   44757   44769   44784   44805       4   44757   44772  -44787   44805       4
   44754   44742  -44745   44757       9   44754   44742   44751   44766      10
   44754   44769   44757   44772       4   44754   44769   44784   44805       4
   44751   44739   44748   44760       4   44751   44742   44745   44757      11
   44751   44742   44754   44769      12   44751   44766  -44775   44760       4
   44748   44739   44751   44766       4   44748   44760  -44775   44766       4
   44748   44760   44778   44796       6   44745   44736   44739   44748      13
   44745   44736  -44739   44748      14   44745   44736  -44739   44748      15
   44745   44736  -44739   44751      13   44745   44736  -44739   44751      14
   44745   44736  -44739   44751      15   44745   44736  -44742   44751      16
   44745   44736  -44742   44754      16   44745   44742   44751   44766      17
   44745   44742  -44754   44769      12   44745   44757  -44769   44754       4
   44745   44757   44769   44784       4   44745   44757   44772   44787       4
   44742   44736   44739   44748      18   44742   44736  -44739   44751      18
   44742   44736  -44745   44757      19   44742   44745  -44757   44769      20
   44742   44745   44757   44772      20   44742   44751  -44739   44748       4
   44742   44751   44766   44775       4   44742   44754  -44769   44757      21
   44742   44754   44769   44784      21   44739   44736  -44742   44745      16
   44739   44736  -44742   44751      16   44739   44736   44742   44754      16
   44739   44736  -44745   44742      19   44739   44736   44745   44757      19
   44739   44748   44760   44775       4   44739   44748   44760   44778       4
   44739   44751  -44742   44745      17   44739   44751  -44742   44754      10
   44739   44751  -44766   44775       4   44736   44739   44748   44760       4
   44736   44739  -44751   44742       4   44736   44739   44751   44766       4
   44736   44742  -44745   44757       9   44736   44742  -44751   44739      10
   44736   44742  -44751   44766      10   44736   44742   44754   44769      12
   44736   44745  -44742   44751       9   44736   44745  -44742   44754       9
   44736   44745  -44757   44769      22   44736   44745   44757   44772      22
   45072   45090   45093   45105       3   45054   45072   45090   45093       3
   45033   45054   45072   45090       3   45030   45015   45027   45042       4
   45030   45048  -45063   45042       4   45027   45015   45030   45048       4
   45027   45042  -45063   45048       4   45018   45033   45054   45072       3
   45015   45027   45042   45063       4   45015   45030  -45048   45063       4
   45006   45018   45033   45054       3   44997   45015   45027   45042       4
   44997   45015   45030   45048       4   44988   45006   45018   45033       3
   44979   44997   45015   45027       5   44979   44997   45015   45030       5
   44976   44997   45015   45027       5   44976   44997   45015   45030       5
   44970   44988   45006   45018       3   44967   44952   44970   44988       6
   44964   44949   44961   44976       4   44964   44979  -44997   44976       4
   44964   44979   44997   45015       4   44961   44949   44964   44979       4
   44961   44976  -44997   44979       4   44961   44976   44997   45015       4
   44958   44967   44952   44970       4   44952   44970   44988   45006       8
   44949   44961   44976   44997       4   44949   44964  -44979   44997       4
   44946   44934  -44937   44949       9   44946   44934   44943   44958      10
   44946   44961   44949   44964       4   44946   44961   44976   44997       4
   44943   44931   44940   44952       4   44943   44934   44937   44949      11
   44943   44934   44946   44961      12   44943   44958  -44967   44952       4
   44940   44931   44943   44958       4   44940   44952  -44967   44958       4
   44940   44952   44970   44988       6   44937   44928   44931   44940      13
   44937   44928  -44931   44940      14   44937   44928  -44931   44940      15
   44937   44928  -44931   44943      13   44937   44928  -44931   44943      14
   44937   44928  -44931   44943      15   44937   44928  -44934   44943      16
   44937   44928  -44934   44946      16   44937   44934   44943   44958      17
   44937   44934  -44946   44961      12   44937   44949  -44961   44946       4
   44937   44949   44961   44976       4   44937   44949   44964   44979       4
   44934   44928   44931   44940      18   44934   44928  -44931   44943      18
   44934   44928  -44937   44949      19   44934   44937  -44949   44961      20
   44934   44937   44949   44964      20   44934   44943  -44931   44940       4
   44934   44943   44958   44967       4   44934   44946  -44961   44949      21
   44934   44946   44961   44976      21   44931   44928  -44934   44937      16
   44931   44928  -44934   44943      16   44931   44928   44934   44946      16
   44931   44928  -44937   44934      19   44931   44928   44937   44949      19
   44931   44940   44952   44967       4   44931   44940   44952   44970       4
   44931   44943  -44934   44937      17   44931   44943  -44934   44946      10
   44931   44943  -44958   44967       4   44928   44931   44940   44952       4
   44928   44931  -44943   44934       4   44928   44931   44943   44958       4
   44928   44934  -44937   44949       9   44928   44934  -44943   44931      10
   44928   44934  -44943   44958      10   44928   44934   44946   44961      12
   44928   44937  -44934   44943       9   44928   44937  -44934   44946       9
   44928   44937  -44949   44961      22   44928   44937   44949   44964      22
   45264   45282   45285   45297       3   45246   45264   45282   45285       3
   45225   45246   45264   45282       3   45222   45207   45219   45234       4
   45222   45240  -45255   45234       4   45219   45207   45222   45240       4
   45219   45234  -45255   45240       4   45210   45225   45246   45264       3
   45207   45219   45234   45255       4   45207   45222  -45240   45255       4
   45198   45210   45225   45246       3   45189   45207   45219   45234       4
   45189   45207   45222   45240       4   45180   45198   45210   45225       3
   45171   45189   45207   45219       5   45171   45189   45207   45222       5
   45168   45189   45207   45219       5   45168   45189   45207   45222       5
   45162   45180   45198   45210       3   45159   45144   45162   45180       6
   45156   45141   45153   45168       4   45156   45171  -45189   45168       4
   45156   45171   45189   45207       4   45153   45141   45156   45171       4
   45153   45168  -45189   45171       4   45153   45168   45189   45207       4
   45150   45159   45144   45162       4   45144   45162   45180   45198       8
   45141   45153   45168   45189       4   45141   45156  -45171   45189       4
   45138   45126  -45129   45141       9   45138   45126   45135   45150      10
   45138   45153   45141   45156       4   45138   45153   45168   45189       4
   45135   45123   45132   45144       4   45135   45126   45129   45141      11
   45135   45126   45138   45153      12   45135   45150  -45159   45144       4
   45132   45123   45135   45150       4   45132   45144  -45159   45150       4
   45132   45144   45162   45180       6   45129   45120   45123   45132      13
   45129   45120  -45123   45132      14   45129   45120  -45123   45132      15
   45129   45120  -45123   45135      13   45129   45120  -45123   45135      14
   45129   45120  -45123   45135      15   45129   45120  -45126   45135      16
   45129   45120  -45126   45138      16   45129   45126   45135   45150      17
   45129   45126  -45138   45153      12   45129   45141  -45153   45138       4
   45129   45141   45153   45168       4   45129   45141   45156   45171       4
   45126   45120   45123   45132      18   45126   45120  -45123   45135      18
   45126   45120  -45129   45141      19   45126   45129  -45141   45153      20
   45126   45129   45141   45156      20   45126   45135  -45123   45132       4
   45126   45135   45150   45159       4   45126   45138  -45153   45141      21
   45126   45138   45153   45168      21   45123   45120  -45126   45129      16
   45123   45120  -45126   45135      16   45123   45120   45126   45138      16
   45123   45120  -45129   45126      19   45123   45120   45129   45141      19
   45123   45132   45144   45159       4   45123   45132   45144   45162       4
   45123   45135  -45126   45129      17   45123   45135  -45126   45138      10
   45123   45135  -45150   45159       4   45120   45123   45132   45144       4
   45120   45123  -45135   45126       4   45120   45123   45135   45150       4
   45120   45126  -45129   45141       9   45120   45126  -45135   45123      10
   45120   45126  -45135   45150      10   45120   45126   45138   45153      12
   45120   45129  -45126   45135       9   45120   45129  -45126   45138       9
   45120   45129  -45141   45153      22   45120   45129   45141   45156      22
   45456   45474   45477   45489       3   45438   45456   45474   45477       3
   45417   45438   45456   45474       3   45414   45399   45411   45426       4
   45414   45432  -45447   45426       4   45411   45399   45414   45432       4
   45411   45426  -45447   45432       4   45402   45417   45438   45456       3
   45399   45411   45426   45447       4   45399   45414  -45432   45447       4
   45390   45402   45417   45438       3   45381   45399   45411   45426       4
   45381   45399   45414   45432       4   45372   45390   45402   45417       3
   45363   45381   45399   45411       5   45363   45381   45399   45414       5
   45360   45381   45399   45411       5   45360   45381   45399   45414       5
   45354   45372   45390   45402       3   45351   45336   45354   45372       6
   45348   45333   45345   45360       4   45348   45363  -45381   45360       4
   45348   45363   45381   45399       4   45345   45333   45348   45363       4
   45345   45360  -45381   45363       4   45345   45360   45381   45399       4
   45342   45351   45336   45354       4   45336   45354   45372   45390       8
   45333   45345   45360   45381       4   45333   45348  -45363   45381       4
   45330   45318  -45321   45333       9   45330   45318   45327   45342      10
   45330   45345   45333   45348       4   45330   45345   45360   45381       4
   45327   45315   45324   45336       4   45327   45318   45321   45333      11
   45327   45318   45330   45345      12   45327   45342  -45351   45336       4
   45324   45315   45327   45342       4   45324   45336  -45351   45342       4
   45324   45336   45354   45372       6   45321   45312   45315   45324      13
   45321   45312  -45315   45324      14   45321   45312  -45315   45324      15
   45321   45312  -45315   45327      13   45321   45312  -45315   45327      14
   45321   45312  -45315   45327      15   45321   45312  -45318   45327      16
   45321   45312  -45318   45330      16   45321   45318   45327   45342      17
   45321   45318  -45330   45345      12   45321   45333  -45345   45330       4
   45321   45333   45345   45360       4   45321   45333   45348   45363       4
   45318   45312   45315   45324      18   45318   45312  -45315   45327      18
   45318   45312  -45321   45333      19   45318   45321  -45333   45345      20
   45318   45321   45333   45348      20   45318   45327  -45315   45324       4
   45318   45327   45342   45351       4   45318   45330  -45345   45333      21
   45318   45330   45345   45360      21   45315   45312  -45318   45321      16
   45315   45312  -45318   45327      16   45315   45312   45318   45330      16
   45315   45312  -45321   45318      19   45315   45312   45321   45333      19
   45315   45324   45336   45351       4   45315   45324   45336   45354       4
   45315   45327  -45318   45321      17   45315   45327  -45318   45330      10
   45315   45327  -45342   45351       4   45312   45315   45324   45336       4
   45312   45315  -45327   45318       4   45312   45315   45327   45342       4
   45312   45318  -45321   45333       9   45312   45318  -45327   45315      10
   45312   45318  -45327   45342      10   45312   45318   45330   45345      12
   45312   45321  -45318   45327       9   45312   45321  -45318   45330       9
   45312   45321  -45333   45345      22   45312   45321   45333   45348      22
   45648   45666   45669   45681       3   45630   45648   45666   45669       3
   45609   45630   45648   45666       3   45606   45591   45603   45618       4
   45606   45624  -45639   45618       4   45603   45591   45606   45624       4
   45603   45618  -45639   45624       4   45594   45609   45630   45648       3
   45591   45603   45618   45639       4   45591   45606  -45624   45639       4
   45582   45594   45609   45630       3   45573   45591   45603   45618       4
   45573   45591   45606   45624       4   45564   45582   45594   45609       3
   45555   45573   45591   45603       5   45555   45573   45591   45606       5
   45552   45573   45591   45603       5   45552   45573   45591   45606       5
   45546   45564   45582   45594       3   45543   45528   45546   45564       6
   45540   45525   45537   45552       4   45540   45555  -45573   45552       4
   45540   45555   45573   45591       4   45537   45525   45540   45555       4
   45537   45552  -45573   45555       4   45537   45552   45573   45591       4
   45534   45543   45528   45546       4   45528   45546   45564   45582       8
   45525   45537   45552   45573       4   45525   45540  -45555   45573       4
   45522   45510  -45513   45525       9   45522   45510   45519   45534      10
   45522   45537   45525   45540       4   45522   45537   45552   45573       4
   45519   45507   45516   45528       4   45519   45510   45513   45525      11
   45519   45510   45522   45537      12   45519   45534  -45543   45528       4
   45516   45507   45519   45534       4   45516   45528  -45543   45534       4
   45516   45528   45546   45564       6   45513   45504   45507   45516      13
   45513   45504  -45507   45516      14   45513   45504  -45507   45516      15
   45513   45504  -45507   45519      13   45513   45504  -45507   45519      14
   45513   45504  -45507   45519      15   45513   45504  -45510   45519      16
   45513   45504  -45510   45522      16   45513   45510   45519   45534      17
   45513   45510  -45522   45537      12   45513   45525  -45537   45522       4
   45513   45525   45537   45552       4   45513   45525   45540   45555       4
   45510   45504   45507   45516      18   45510   45504  -45507   45519      18
   45510   45504  -45513   45525      19   45510   45513  -45525   45537      20
   45510   45513   45525   45540      20   45510   45519  -45507   45516       4
   45510   45519   45534   45543       4   45510   45522  -45537   45525      21
   45510   45522   45537   45552      21   45507   45504  -45510   45513      16
   45507   45504  -45510   45519      16   45507   45504   45510   45522      16
   45507   45504  -45513   45510      19   45507   45504   45513   45525      19
   45507   45516   45528   45543       4   45507   45516   45528   45546       4
   45507   45519  -45510   45513      17   45507   45519  -45510   45522      10
   45507   45519  -45534   45543       4   45504   45507   45516   45528       4
   45504   45507  -45519   45510       4   45504   45507   45519   45534       4
   45504   45510  -45513   45525       9   45504   45510  -45519   45507      10
   45504   45510  -45519   45534      10   45504   45510   45522   45537      12
   45504   45513  -45510   45519       9   45504   45513  -45510   45522       9
   45504   45513  -45525   45537      22   45504   45513   45525   45540      22
   45840   45858   45861   45873       3   45822   45840   45858   45861       3
   45801   45822   45840   45858       3   45798   45783   45795   45810       4
   45798   45816  -45831   45810       4   45795   45783   45798   45816       4
   45795   45810  -45831   45816       4   45786   45801   45822   45840       3
   45783   45795   45810   45831       4   45783   45798  -45816   45831       4
   45774   45786   45801   45822       3   45765   45783   45795   45810       4
   45765   45783   45798   45816       4   45756   45774   45786   45801       3
   45747   45765   45783   45795       5   45747   45765   45783   45798       5
   45744   45765   45783   45795       5   45744   45765   45783   45798       5
   45738   45756   45774   45786       3   45735   45720   45738   45756       6
   45732   45717   45729   45744       4   45732   45747  -45765   45744       4
   45732   45747   45765   45783       4   45729   45717   45732   45747       4
   45729   45744  -45765   45747       4   45729   45744   45765   45783       4
   45726   45735   45720   45738       4   45720   45738   45756   45774       8
   45717   45729   45744   45765       4   45717   45732  -45747   45765       4
   45714   45702  -45705   45717       9   45714   45702   45711   45726      10
   45714   45729   45717   45732       4   45714   45729   45744   45765       4
   45711   45699   45708   45720       4   45711   45702   45705   45717      11
   45711   45702   45714   45729      12   45711   45726  -45735   45720       4
   45708   45699   45711   45726       4   45708   45720  -45735   45726       4
   45708   45720   45738   45756       6   45705   45696   45699   45708      13
   45705   45696  -45699   45708      14   45705   45696  -45699   45708      15
   45705   45696  -45699   45711      13   45705   45696  -45699   45711      14
   45705   45696  -45699   45711      15   45705   45696  -45702   45711      16
   45705   45696  -45702   45714      16   45705   45702   45711   45726      17
   45705   45702  -45714   45729      12   45705   45717  -45729   45714       4
   45705   45717   45729   45744       4   45705   45717   45732   45747       4
   45702   45696   45699   45708      18   45702   45696  -45699   45711      18
   45702   45696  -45705   45717      19   45702   45705  -45717   45729      20
   45702   45705   45717   45732      20   45702   45711  -45699   45708       4
   45702   45711   45726   45735       4   45702   45714  -45729   45717      21
   45702   45714   45729   45744      21   45699   45696  -45702   45705      16
   45699   45696  -45702   45711      16   45699   45696   45702   45714      16
   45699   45696  -45705   45702      19   45699   45696   45705   45717      19
   45699   45708   45720   45735       4   45699   45708   45720   45738       4
   45699   45711  -45702   45705      17   45699   45711  -45702   45714      10
   45699   45711  -45726   45735       4   45696   45699   45708   45720       4
   45696   45699  -45711   45702       4   45696   45699   45711   45726       4
   45696   45702  -45705   45717       9   45696   45702  -45711   45699      10
   45696   45702  -45711   45726      10   45696   45702   45714   45729      12
   45696   45705  -45702   45711       9   45696   45705  -45702   45714       9
   45696   45705  -45717   45729      22   45696   45705   45717   45732      22
   46032   46050   46053   46065       3   46014   46032   46050   46053       3
   45993   46014   46032   46050       3   45990   45975   45987   46002       4
   45990   46008  -46023   46002       4   45987   45975   45990   46008       4
   45987   46002  -46023   46008       4   45978   45993   46014   46032       3
   45975   45987   46002   46023       4   45975   45990  -46008   46023       4
   45966   45978   45993   46014       3   45957   45975   45987   46002       4
   45957   45975   45990   46008       4   45948   45966   45978   45993       3
   45939   45957   45975   45987       5   45939   45957   45975   45990       5
   45936   45957   45975   45987       5   45936   45957   45975   45990       5
   45930   45948   45966   45978       3   45927   45912   45930   45948       6
   45924   45909   45921   45936       4   45924   45939  -45957   45936       4
   45924   45939   45957   45975       4   45921   45909   45924   45939       4
   45921   45936  -45957   45939       4   45921   45936   45957   45975       4
   45918   45927   45912   45930       4   45912   45930   45948   45966       8
   45909   45921   45936   45957       4   45909   45924  -45939   45957       4
   45906   45894  -45897   45909       9   45906   45894   45903   45918      10
   45906   45921   45909   45924       4   45906   45921   45936   45957       4
   45903   45891   45900   45912       4   45903   45894   45897   45909      11
   45903   45894   45906   45921      12   45903   45918  -45927   45912       4
   45900   45891   45903   45918       4   45900   45912  -45927   45918       4
   45900   45912   45930   45948       6   45897   45888   45891   45900      13
   45897   45888  -45891   45900      14   45897   45888  -45891   45900      15
   45897   45888  -45891   45903      13   45897   45888  -45891   45903      14
   45897   45888  -45891   45903      15   45897   45888  -45894   45903      16
   45897   45888  -45894   45906      16   45897   45894   45903   45918      17
   45897   45894  -45906   45921      12   45897   45909  -45921   45906       4
   45897   45909   45921   45936       4   45897   45909   45924   45939       4
   45894   45888   45891   45900      18   45894   45888  -45891   45903      18
   45894   45888  -45897   45909      19   45894   45897  -45909   45921      20
   45894   45897   45909   45924      20   45894   45903  -45891   45900       4
   45894   45903   45918   45927       4   45894   45906  -45921   45909      21
   45894   45906   45921   45936      21   45891   45888  -45894   45897      16
   45891   45888  -45894   45903      16   45891   45888   45894   45906      16
   45891   45888  -45897   45894      19   45891   45888   45897   45909      19
   45891   45900   45912   45927       4   45891   45900   45912   45930       4
   45891   45903  -45894   45897      17   45891   45903  -45894   45906      10
   45891   45903  -45918   45927       4   45888   45891   45900   45912       4
   45888   45891  -45903   45894       4   45888   45891   45903   45918       4
   45888   45894  -45897   45909       9   45888   45894  -45903   45891      10
   45888   45894  -45903   45918      10   45888   45894   45906   45921      12
   45888   45897  -45894   45903       9   45888   45897  -45894   45906       9
   45888   45897  -45909   45921      22   45888   45897   45909   45924      22
   46224   46242   46245   46257       3   46206   46224   46242   46245       3
   46185   46206   46224   46242       3   46182   46167   46179   46194       4
   46182   46200  -46215   46194       4   46179   46167   46182   46200       4
   46179   46194  -46215   46200       4   46170   46185   46206   46224       3
   46167   46179   46194   46215       4   46167   46182  -46200   46215       4
   46158   46170   46185   46206       3   46149   46167   46179   46194       4
   46149   46167   46182   46200       4   46140   46158   46170   46185       3
   46131   46149   46167   46179       5   46131   46149   46167   46182       5
   46128   46149   46167   46179       5   46128   46149   46167   46182       5
   46122   46140   46158   46170       3   46119   46104   46122   46140       6
   46116   46101   46113   46128       4   46116   46131  -46149   46128       4
   46116   46131   46149   46167       4   46113   46101   46116   46131       4
   46113   46128  -46149   46131       4   46113   46128   46149   46167       4
   46110   46119   46104   46122       4   46104   46122   46140   46158       8
   46101   46113   46128   46149       4   46101   46116  -46131   46149       4
   46098   46086  -46089   46101       9   46098   46086   46095   46110      10
   46098   46113   46101   46116       4   46098   46113   46128   46149       4
   46095   46083   46092   46104       4   46095   46086   46089   46101      11
   46095   46086   46098   46113      12   46095   46110  -46119   46104       4
   46092   46083   46095   46110       4   46092   46104  -46119   46110       4
   46092   46104   46122   46140       6   46089   46080   46083   46092      13
   46089   46080  -46083   46092      14   46089   46080  -46083   46092      15
   46089   46080  -46083   46095      13   46089   46080  -46083   46095      14
   46089   46080  -46083   46095      15   46089   46080  -46086   46095      16
   46089   46080  -46086   46098      16   46089   46086   46095   46110      17
   46089   46086  -46098   46113      12   46089   46101  -46113   46098       4
   46089   46101   46113   46128       4   46089   46101   46116   46131       4
   46086   46080   46083   46092      18   46086   46080  -46083   46095      18
   46086   46080  -46089   46101      19   46086   46089  -46101   46113      20
   46086   46089   46101   46116      20   46086   46095  -46083   46092       4
   46086   46095   46110   46119       4   46086   46098  -46113   46101      21
   46086   46098   46113   46128      21   46083   46080  -46086   46089      16
   46083   46080  -46086   46095      16   46083   46080   46086   46098      16
   46083   46080  -46089   46086      19   46083   46080   46089   46101      19
   46083   46092   46104   46119       4   46083   46092   46104   46122       4
   46083   46095  -46086   46089      17   46083   46095  -46086   46098      10
   46083   46095  -46110   46119       4   46080   46083   46092   46104       4
   46080   46083  -46095   46086       4   46080   46083   46095   46110       4
   46080   46086  -46089   46101       9   46080   46086  -46095   46083      10
   46080   46086  -46095   46110      10   46080   46086   46098   46113      12
   46080   46089  -46086   46095       9   46080   46089  -46086   46098       9
   46080   46089  -46101   46113      22   46080   46089   46101   46116      22
   46416   46434   46437   46449       3   46398   46416   46434   46437       3
   46377   46398   46416   46434       3   46374   46359   46371   46386       4
   46374   46392  -46407   46386       4   46371   46359   46374   46392       4
   46371   46386  -46407   46392       4   46362   46377   46398   46416       3
   46359   46371   46386   46407       4   46359   46374  -46392   46407       4
   46350   46362   46377   46398       3   46341   46359   46371   46386       4
   46341   46359   46374   46392       4   46332   46350   46362   46377       3
   46323   46341   46359   46371       5   46323   46341   46359   46374       5
   46320   46341   46359   46371       5   46320   46341   46359   46374       5
   46314   46332   46350   46362       3   46311   46296   46314   46332       6
   46308   46293   46305   46320       4   46308   46323  -46341   46320       4
   46308   46323   46341   46359       4   46305   46293   46308   46323       4
   46305   46320  -46341   46323       4   46305   46320   46341   46359       4
   46302   46311   46296   46314       4   46296   46314   46332   46350       8
   46293   46305   46320   46341       4   46293   46308  -46323   46341       4
   46290   46278  -46281   46293       9   46290   46278   46287   46302      10
   46290   46305   46293   46308       4   46290   46305   46320   46341       4
   46287   46275   46284   46296       4   46287   46278   46281   46293      11
   46287   46278   46290   46305      12   46287   46302  -46311   46296       4
   46284   46275   46287   46302       4   46284   46296  -46311   46302       4
   46284   46296   46314   46332       6   46281   46272   46275   46284      13
   46281   46272  -46275   46284      14   46281   46272  -46275   46284      15
   46281   46272  -46275   46287      13   46281   46272  -46275   46287      14
   46281   46272  -46275   46287      15   46281   46272  -46278   46287      16
   46281   46272  -46278   46290      16   46281   46278   46287   46302      17
   46281   46278  -46290   46305      12   46281   46293  -46305   46290       4
   46281   46293   46305   46320       4   46281   46293   46308   46323       4
   46278   46272   46275   46284      18   46278   46272  -46275   46287      18
   46278   46272  -46281   46293      19   46278   46281  -46293   46305      20
   46278   46281   46293   46308      20   46278   46287  -46275   46284       4
   46278   46287   46302   46311       4   46278   46290  -46305   46293      21
   46278   46290   46305   46320      21   46275   46272  -46278   46281      16
   46275   46272  -46278   46287      16   46275   46272   46278   46290      16
   46275   46272  -46281   46278      19   46275   46272   46281   46293      19
   46275   46284   46296   46311       4   46275   46284   46296   46314       4
   46275   46287  -46278   46281      17   46275   46287  -46278   46290      10
   46275   46287  -46302   46311       4   46272   46275   46284   46296       4
   46272   46275  -46287   46278       4   46272   46275   46287   46302       4
   46272   46278  -46281   46293       9   46272   46278  -46287   46275      10
   46272   46278  -46287   46302      10   46272   46278   46290   46305      12
   46272   46281  -46278   46287       9   46272   46281  -46278   46290       9
   46272   46281  -46293   46305      22   46272   46281   46293   46308      22
   46608   46626   46629   46641       3   46590   46608   46626   46629       3
   46569   46590   46608   46626       3   46566   46551   46563   46578       4
   46566   46584  -46599   46578       4   46563   46551   46566   46584       4
   46563   46578  -46599   46584       4   46554   46569   46590   46608       3
   46551   46563   46578   46599       4   46551   46566  -46584   46599       4
   46542   46554   46569   46590       3   46533   46551   46563   46578       4
   46533   46551   46566   46584       4   46524   46542   46554   46569       3
   46515   46533   46551   46563       5   46515   46533   46551   46566       5
   46512   46533   46551   46563       5   46512   46533   46551   46566       5
   46506   46524   46542   46554       3   46503   46488   46506   46524       6
   46500   46485   46497   46512       4   46500   46515  -46533   46512       4
   46500   46515   46533   46551       4   46497   46485   46500   46515       4
   46497   46512  -46533   46515       4   46497   46512   46533   46551       4
   46494   46503   46488   46506       4   46488   46506   46524   46542       8
   46485   46497   46512   46533       4   46485   46500  -46515   46533       4
   46482   46470  -46473   46485       9   46482   46470   46479   46494      10
   46482   46497   46485   46500       4   46482   46497   46512   46533       4
   46479   46467   46476   46488       4   46479   46470   46473   46485      11
   46479   46470   46482   46497      12   46479   46494  -46503   46488       4
   46476   46467   46479   46494       4   46476   46488  -46503   46494       4
   46476   46488   46506   46524       6   46473   46464   46467   46476      13
   46473   46464  -46467   46476      14   46473   46464  -46467   46476      15
   46473   46464  -46467   46479      13   46473   46464  -46467   46479      14
   46473   46464  -46467   46479      15   46473   46464  -46470   46479      16
   46473   46464  -46470   46482      16   46473   46470   46479   46494      17
   46473   46470  -46482   46497      12   46473   46485  -46497   46482       4
   46473   46485   46497   46512       4   46473   46485   46500   46515       4
   46470   46464   46467   46476      18   46470   46464  -46467   46479      18
   46470   46464  -46473   46485      19   46470   46473  -46485   46497      20
   46470   46473   46485   46500      20   46470   46479  -46467   46476       4
   46470   46479   46494   46503       4   46470   46482  -46497   46485      21
   46470   46482   46497   46512      21   46467   46464  -46470   46473      16
   46467   46464  -46470   46479      16   46467   46464   46470   46482      16
   46467   46464  -46473   46470      19   46467   46464   46473   46485      19
   46467   46476   46488   46503       4   46467   46476   46488   46506       4
   46467   46479  -46470   46473      17   46467   46479  -46470   46482      10
   46467   46479  -46494   46503       4   46464   46467   46476   46488       4
   46464   46467  -46479   46470       4   46464   46467   46479   46494       4
   46464   46470  -46473   46485       9   46464   46470  -46479   46467      10
   46464   46470  -46479   46494      10   46464   46470   46482   46497      12
   46464   46473  -46470   46479       9   46464   46473  -46470   46482       9
   46464   46473  -46485   46497      22   46464   46473   46485   46500      22
   46800   46818   46821   46833       3   46782   46800   46818   46821       3
   46761   46782   46800   46818       3   46758   46743   46755   46770       4
   46758   46776  -46791   46770       4   46755   46743   46758   46776       4
   46755   46770  -46791   46776       4   46746   46761   46782   46800       3
   46743   46755   46770   46791       4   46743   46758  -46776   46791       4
   46734   46746   46761   46782       3   46725   46743   46755   46770       4
   46725   46743   46758   46776       4   46716   46734   46746   46761       3
   46707   46725   46743   46755       5   46707   46725   46743   46758       5
   46704   46725   46743   46755       5   46704   46725   46743   46758       5
   46698   46716   46734   46746       3   46695   46680   46698   46716       6
   46692   46677   46689   46704       4   46692   46707  -46725   46704       4
   46692   46707   46725   46743       4   46689   46677   46692   46707       4
   46689   46704  -46725   46707       4   46689   46704   46725   46743       4
   46686   46695   46680   46698       4   46680   46698   46716   46734       8
   46677   46689   46704   46725       4   46677   46692  -46707   46725       4
   46674   46662  -46665   46677       9   46674   46662   46671   46686      10
   46674   46689   46677   46692       4   46674   46689   46704   46725       4
   46671   46659   46668   46680       4   46671   46662   46665   46677      11
   46671   46662   46674   46689      12   46671   46686  -46695   46680       4
   46668   46659   46671   46686       4   46668   46680  -46695   46686       4
   46668   46680   46698   46716       6   46665   46656   46659   46668      13
   46665   46656  -46659   46668      14   46665   46656  -46659   46668      15
   46665   46656  -46659   46671      13   46665   46656  -46659   46671      14
   46665   46656  -46659   46671      15   46665   46656  -46662   46671      16
   46665   46656  -46662   46674      16   46665   46662   46671   46686      17
   46665   46662  -46674   46689      12   46665   46677  -46689   46674       4
   46665   46677   46689   46704       4   46665   46677   46692   46707       4
   46662   46656   46659   46668      18   46662   46656  -46659   46671      18
   46662   46656  -46665   46677      19   46662   46665  -46677   46689      20
   46662   46665   46677   46692      20   46662   46671  -46659   46668       4
   46662   46671   46686   46695       4   46662   46674  -46689   46677      21
   46662   46674   46689   46704      21   46659   46656  -46662   46665      16
   46659   46656  -46662   46671      16   46659   46656   46662   46674      16
   46659   46656  -46665   46662      19   46659   46656   46665   46677      19
   46659   46668   46680   46695       4   46659   46668   46680   46698       4
   46659   46671  -46662   46665      17   46659   46671  -46662   46674      10
   46659   46671  -46686   46695       4   46656   46659   46668   46680       4
   46656   46659  -46671   46662       4   46656   46659   46671   46686       4
   46656   46662  -46665   46677       9   46656   46662  -46671   46659      10
   46656   46662  -46671   46686      10   46656   46662   46674   46689      12
   46656   46665  -46662   46671       9   46656   46665  -46662   46674       9
   46656   46665  -46677   46689      22   46656   46665   46677   46692      22
   46992   47010   47013   47025       3   46974   46992   47010   47013       3
   46953   46974   46992   47010       3   46950   46935   46947   46962       4
   46950   46968  -46983   46962       4   46947   46935   46950   46968       4
   46947   46962  -46983   46968       4   46938   46953   46974   46992       3
   46935   46947   46962   46983       4   46935   46950  -46968   46983       4
   46926   46938   46953   46974       3   46917   46935   46947   46962       4
   46917   46935   46950   46968       4   46908   46926   46938   46953       3
   46899   46917   46935   46947       5   46899   46917   46935   46950       5
   46896   46917   46935   46947       5   46896   46917   46935   46950       5
   46890   46908   46926   46938       3   46887   46872   46890   46908       6
   46884   46869   46881   46896       4   46884   46899  -46917   46896       4
   46884   46899   46917   46935       4   46881   46869   46884   46899       4
   46881   46896  -46917   46899       4   46881   46896   46917   46935       4
   46878   46887   46872   46890       4   46872   46890   46908   46926       8
   46869   46881   46896   46917       4   46869   46884  -46899   46917       4
   46866   46854  -46857   46869       9   46866   46854   46863   46878      10
   46866   46881   46869   46884       4   46866   46881   46896   46917       4
   46863   46851   46860   46872       4   46863   46854   46857   46869      11
   46863   46854   46866   46881      12   46863   46878  -46887   46872       4
   46860   46851   46863   46878       4   46860   46872  -46887   46878       4
   46860   46872   46890   46908       6   46857   46848   46851   46860      13
   46857   46848  -46851   46860      14   46857   46848  -46851   46860      15
   46857   46848  -46851   46863      13   46857   46848  -46851   46863      14
   46857   46848  -46851   46863      15   46857   46848  -46854   46863      16
   46857   46848  -46854   46866      16   46857   46854   46863   46878      17
   46857   46854  -46866   46881      12   46857   46869  -46881   46866       4
   46857   46869   46881   46896       4   46857   46869   46884   46899       4
   46854   46848   46851   46860      18   46854   46848  -46851   46863      18
   46854   46848  -46857   46869      19   46854   46857  -46869   46881      20
   46854   46857   46869   46884      20   46854   46863  -46851   46860       4
   46854   46863   46878   46887       4   46854   46866  -46881   46869      21
   46854   46866   46881   46896      21   46851   46848  -46854   46857      16
   46851   46848  -46854   46863      16   46851   46848   46854   46866      16
   46851   46848  -46857   46854      19   46851   46848   46857   46869      19
   46851   46860   46872   46887       4   46851   46860   46872   46890       4
   46851   46863  -46854   46857      17   46851   46863  -46854   46866      10
   46851   46863  -46878   46887       4   46848   46851   46860   46872       4
   46848   46851  -46863   46854       4   46848   46851   46863   46878       4
   46848   46854  -46857   46869       9   46848   46854  -46863   46851      10
   46848   46854  -46863   46878      10   46848   46854   46866   46881      12
   46848   46857  -46854   46863       9   46848   46857  -46854   46866       9
   46848   46857  -46869   46881      22   46848   46857   46869   46884      22
   47184   47202   47205   47217       3   47166   47184   47202   47205       3
   47145   47166   47184   47202       3   47142   47127   47139   47154       4
   47142   47160  -47175   47154       4   47139   47127   47142   47160       4
   47139   47154  -47175   47160       4   47130   47145   47166   47184       3
   47127   47139   47154   47175       4   47127   47142  -47160   47175       4
   47118   47130   47145   47166       3   47109   47127   47139   47154       4
   47109   47127   47142   47160       4   47100   47118   47130   47145       3
   47091   47109   47127   47139       5   47091   47109   47127   47142       5
   47088   47109   47127   47139       5   47088   47109   47127   47142       5
   47082   47100   47118   47130       3   47079   47064   47082   47100       6
   47076   47061   47073   47088       4   47076   47091  -47109   47088       4
   47076   47091   47109   47127       4   47073   47061   47076   47091       4
   47073   47088  -47109   47091       4   47073   47088   47109   47127       4
   47070   47079   47064   47082       4   47064   47082   47100   47118       8
   47061   47073   47088   47109       4   47061   47076  -47091   47109       4
   47058   47046  -47049   47061       9   47058   47046   47055   47070      10
   47058   47073   47061   47076       4   47058   47073   47088   47109       4
   47055   47043   47052   47064       4   47055   47046   47049   47061      11
   47055   47046   47058   47073      12   47055   47070  -47079   47064       4
   47052   47043   47055   47070       4   47052   47064  -47079   47070       4
   47052   47064   47082   47100       6   47049   47040   47043   47052      13
   47049   47040  -47043   47052      14   47049   47040  -47043   47052      15
   47049   47040  -47043   47055      13   47049   47040  -47043   47055      14
   47049   47040  -47043   47055      15   47049   47040  -47046   47055      16
   47049   47040  -47046   47058      16   47049   47046   47055   47070      17
   47049   47046  -47058   47073      12   47049   47061  -47073   47058       4
   47049   47061   47073   47088       4   47049   47061   47076   47091       4
   47046   47040   47043   47052      18   47046   47040  -47043   47055      18
   47046   47040  -47049   47061      19   47046   47049  -47061   47073      20
   47046   47049   47061   47076      20   47046   47055  -47043   47052       4
   47046   47055   47070   47079       4   47046   47058  -47073   47061      21
   47046   47058   47073   47088      21   47043   47040  -47046   47049      16
   47043   47040  -47046   47055      16   47043   47040   47046   47058      16
   47043   47040  -47049   47046      19   47043   47040   47049   47061      19
   47043   47052   47064   47079       4   47043   47052   47064   47082       4
   47043   47055  -47046   47049      17   47043   47055  -47046   47058      10
   47043   47055  -47070   47079       4   47040   47043   47052   47064       4
   47040   47043  -47055   47046       4   47040   47043   47055   47070       4
   47040   47046  -47049   47061       9   47040   47046  -47055   47043      10
   47040   47046  -47055   47070      10   47040   47046   47058   47073      12
   47040   47049  -47046   47055       9   47040   47049  -47046   47058       9
   47040   47049  -47061   47073      22   47040   47049   47061   47076      22
   47376   47394   47397   47409       3   47358   47376   47394   47397       3
   47337   47358   47376   47394       3   47334   47319   47331   47346       4
   47334   47352  -47367   47346       4   47331   47319   47334   47352       4
   47331   47346  -47367   47352       4   47322   47337   47358   47376       3
   47319   47331   47346   47367       4   47319   47334  -47352   47367       4
   47310   47322   47337   47358       3   47301   47319   47331   47346       4
   47301   47319   47334   47352       4   47292   47310   47322   47337       3
   47283   47301   47319   47331       5   47283   47301   47319   47334       5
   47280   47301   47319   47331       5   47280   47301   47319   47334       5
   47274   47292   47310   47322       3   47271   47256   47274   47292       6
   47268   47253   47265   47280       4   47268   47283  -47301   47280       4
   47268   47283   47301   47319       4   47265   47253   47268   47283       4
   47265   47280  -47301   47283       4   47265   47280   47301   47319       4
   47262   47271   47256   47274       4   47256   47274   47292   47310       8
   47253   47265   47280   47301       4   47253   47268  -47283   47301       4
   47250   47238  -47241   47253       9   47250   47238   47247   47262      10
   47250   47265   47253   47268       4   47250   47265   47280   47301       4
   47247   47235   47244   47256       4   47247   47238   47241   47253      11
   47247   47238   47250   47265      12   47247   47262  -47271   47256       4
   47244   47235   47247   47262       4   47244   47256  -47271   47262       4
   47244   47256   47274   47292       6   47241   47232   47235   47244      13
   47241   47232  -47235   47244      14   47241   47232  -47235   47244      15
   47241   47232  -47235   47247      13   47241   47232  -47235   47247      14
   47241   47232  -47235   47247      15   47241   47232  -47238   47247      16
   47241   47232  -47238   47250      16   47241   47238   47247   47262      17
   47241   47238  -47250   47265      12   47241   47253  -47265   47250       4
   47241   47253   47265   47280       4   47241   47253   47268   47283       4
   47238   47232   47235   47244      18   47238   47232  -47235   47247      18
   47238   47232  -47241   47253      19   47238   47241  -47253   47265      20
   47238   47241   47253   47268      20   47238   47247  -47235   47244       4
   47238   47247   47262   47271       4   47238   47250  -47265   47253      21
   47238   47250   47265   47280      21   47235   47232  -47238   47241      16
   47235   47232  -47238   47247      16   47235   47232   47238   47250      16
   47235   47232  -47241   47238      19   47235   47232   47241   47253      19
   47235   47244   47256   47271       4   47235   47244   47256   47274       4
   47235   47247  -47238   47241      17   47235   47247  -47238   47250      10
   47235   47247  -47262   47271       4   47232   47235   47244   47256       4
   47232   47235  -47247   47238       4   47232   47235   47247   47262       4
   47232   47238  -47241   47253       9   47232   47238  -47247   47235      10
   47232   47238  -47247   47262      10   47232   47238   47250   47265      12
   47232   47241  -47238   47247       9   47232   47241  -47238   47250       9
   47232   47241  -47253   47265      22   47232   47241   47253   47268      22
   47568   47586   47589   47601       3   47550   47568   47586   47589       3
   47529   47550   47568   47586       3   47526   47511   47523   47538       4
   47526   47544  -47559   47538       4   47523   47511   47526   47544       4
   47523   47538  -47559   47544       4   47514   47529   47550   47568       3
   47511   47523   47538   47559       4   47511   47526  -47544   47559       4
   47502   47514   47529   47550       3   47493   47511   47523   47538       4
   47493   47511   47526   47544       4   47484   47502   47514   47529       3
   47475   47493   47511   47523       5   47475   47493   47511   47526       5
   47472   47493   47511   47523       5   47472   47493   47511   47526       5
   47466   47484   47502   47514       3   47463   47448   47466   47484       6
   47460   47445   47457   47472       4   47460   47475  -47493   47472       4
   47460   47475   47493   47511       4   47457   47445   47460   47475       4
   47457   47472  -47493   47475       4   47457   47472   47493   47511       4
   47454   47463   47448   47466       4   47448   47466   47484   47502       8
   47445   47457   47472   47493       4   47445   47460  -47475   47493       4
   47442   47430  -47433   47445       9   47442   47430   47439   47454      10
   47442   47457   47445   47460       4   47442   47457   47472   47493       4
   47439   47427   47436   47448       4   47439   47430   47433   47445      11
   47439   47430   47442   47457      12   47439   47454  -47463   47448       4
   47436   47427   47439   47454       4   47436   47448  -47463   47454       4
   47436   47448   47466   47484       6   47433   47424   47427   47436      13
   47433   47424  -47427   47436      14   47433   47424  -47427   47436      15
   47433   47424  -47427   47439      13   47433   47424  -47427   47439      14
   47433   47424  -47427   47439      15   47433   47424  -47430   47439      16
   47433   47424  -47430   47442      16   47433   47430   47439   47454      17
   47433   47430  -47442   47457      12   47433   47445  -47457   47442       4
   47433   47445   47457   47472       4   47433   47445   47460   47475       4
   47430   47424   47427   47436      18   47430   47424  -47427   47439      18
   47430   47424  -47433   47445      19   47430   47433  -47445   47457      20
   47430   47433   47445   47460      20   47430   47439  -47427   47436       4
   47430   47439   47454   47463       4   47430   47442  -47457   47445      21
   47430   47442   47457   47472      21   47427   47424  -47430   47433      16
   47427   47424  -47430   47439      16   47427   47424   47430   47442      16
   47427   47424  -47433   47430      19   47427   47424   47433   47445      19
   47427   47436   47448   47463       4   47427   47436   47448   47466       4
   47427   47439  -47430   47433      17   47427   47439  -47430   47442      10
   47427   47439  -47454   47463       4   47424   47427   47436   47448       4
   47424   47427  -47439   47430       4   47424   47427   47439   47454       4
   47424   47430  -47433   47445       9   47424   47430  -47439   47427      10
   47424   47430  -47439   47454      10   47424   47430   47442   47457      12
   47424   47433  -47430   47439       9   47424   47433  -47430   47442       9
   47424   47433  -47445   47457      22   47424   47433   47445   47460      22
   47760   47778   47781   47793       3   47742   47760   47778   47781       3
   47721   47742   47760   47778       3   47718   47703   47715   47730       4
   47718   47736  -47751   47730       4   47715   47703   47718   47736       4
   47715   47730  -47751   47736       4   47706   47721   47742   47760       3
   47703   47715   47730   47751       4   47703   47718  -47736   47751       4
   47694   47706   47721   47742       3   47685   47703   47715   47730       4
   47685   47703   47718   47736       4   47676   47694   47706   47721       3
   47667   47685   47703   47715       5   47667   47685   47703   47718       5
   47664   47685   47703   47715       5   47664   47685   47703   47718       5
   47658   47676   47694   47706       3   47655   47640   47658   47676       6
   47652   47637   47649   47664       4   47652   47667  -47685   47664       4
   47652   47667   47685   47703       4   47649   47637   47652   47667       4
   47649   47664  -47685   47667       4   47649   47664   47685   47703       4
   47646   47655   47640   47658       4   47640   47658   47676   47694       8
   47637   47649   47664   47685       4   47637   47652  -47667   47685       4
   47634   47622  -47625   47637       9   47634   47622   47631   47646      10
   47634   47649   47637   47652       4   47634   47649   47664   47685       4
   47631   47619   47628   47640       4   47631   47622   47625   47637      11
   47631   47622   47634   47649      12   47631   47646  -47655   47640       4
   47628   47619   47631   47646       4   47628   47640  -47655   47646       4
   47628   47640   47658   47676       6   47625   47616   47619   47628      13
   47625   47616  -47619   47628      14   47625   47616  -47619   47628      15
   47625   47616  -47619   47631      13   47625   47616  -47619   47631      14
   47625   47616  -47619   47631      15   47625   47616  -47622   47631      16
   47625   47616  -47622   47634      16   47625   47622   47631   47646      17
   47625   47622  -47634   47649      12   47625   47637  -47649   47634       4
   47625   47637   47649   47664       4   47625   47637   47652   47667       4
   47622   47616   47619   47628      18   47622   47616  -47619   47631      18
   47622   47616  -47625   47637      19   47622   47625  -47637   47649      20
   47622   47625   47637   47652      20   47622   47631  -47619   47628       4
   47622   47631   47646   47655       4   47622   47634  -47649   47637      21
   47622   47634   47649   47664      21   47619   47616  -47622   47625      16
   47619   47616  -47622   47631      16   47619   47616   47622   47634      16
   47619   47616  -47625   47622      19   47619   47616   47625   47637      19
   47619   47628   47640   47655       4   47619   47628   47640   47658       4
   47619   47631  -47622   47625      17   47619   47631  -47622   47634      10
   47619   47631  -47646   47655       4   47616   47619   47628   47640       4
   47616   47619  -47631   47622       4   47616   47619   47631   47646       4
   47616   47622  -47625   47637       9   47616   47622  -47631   47619      10
   47616   47622  -47631   47646      10   47616   47622   47634   47649      12
   47616   47625  -47622   47631       9   47616   47625  -47622   47634       9
   47616   47625  -47637   47649      22   47616   47625   47637   47652      22
   47952   47970   47973   47985       3   47934   47952   47970   47973       3
   47913   47934   47952   47970       3   47910   47895   47907   47922       4
   47910   47928  -47943   47922       4   47907   47895   47910   47928       4
   47907   47922  -47943   47928       4   47898   47913   47934   47952       3
   47895   47907   47922   47943       4   47895   47910  -47928   47943       4
   47886   47898   47913   47934       3   47877   47895   47907   47922       4
   47877   47895   47910   47928       4   47868   47886   47898   47913       3
   47859   47877   47895   47907       5   47859   47877   47895   47910       5
   47856   47877   47895   47907       5   47856   47877   47895   47910       5
   47850   47868   47886   47898       3   47847   47832   47850   47868       6
   47844   47829   47841   47856       4   47844   47859  -47877   47856       4
   47844   47859   47877   47895       4   47841   47829   47844   47859       4
   47841   47856  -47877   47859       4   47841   47856   47877   47895       4
   47838   47847   47832   47850       4   47832   47850   47868   47886       8
   47829   47841   47856   47877       4   47829   47844  -47859   47877       4
   47826   47814  -47817   47829       9   47826   47814   47823   47838      10
   47826   47841   47829   47844       4   47826   47841   47856   47877       4
   47823   47811   47820   47832       4   47823   47814   47817   47829      11
   47823   47814   47826   47841      12   47823   47838  -47847   47832       4
   47820   47811   47823   47838       4   47820   47832  -47847   47838       4
   47820   47832   47850   47868       6   47817   47808   47811   47820      13
   47817   47808  -47811   47820      14   47817   47808  -47811   47820      15
   47817   47808  -47811   47823      13   47817   47808  -47811   47823      14
   47817   47808  -47811   47823      15   47817   47808  -47814   47823      16
   47817   47808  -47814   47826      16   47817   47814   47823   47838      17
   47817   47814  -47826   47841      12   47817   47829  -47841   47826       4
   47817   47829   47841   47856       4   47817   47829   47844   47859       4
   47814   47808   47811   47820      18   47814   47808  -47811   47823      18
   47814   47808  -47817   47829      19   47814   47817  -47829   47841      20
   47814   47817   47829   47844      20   47814   47823  -47811   47820       4
   47814   47823   47838   47847       4   47814   47826  -47841   47829      21
   47814   47826   47841   47856      21   47811   47808  -47814   47817      16
   47811   47808  -47814   47823      16   47811   47808   47814   47826      16
   47811   47808  -47817   47814      19   47811   47808   47817   47829      19
   47811   47820   47832   47847       4   47811   47820   47832   47850       4
   47811   47823  -47814   47817      17   47811   47823  -47814   47826      10
   47811   47823  -47838   47847       4   47808   47811   47820   47832       4
   47808   47811  -47823   47814       4   47808   47811   47823   47838       4
   47808   47814  -47817   47829       9   47808   47814  -47823   47811      10
   47808   47814  -47823   47838      10   47808   47814   47826   47841      12
   47808   47817  -47814   47823       9   47808   47817  -47814   47826       9
   47808   47817  -47829   47841      22   47808   47817   47829   47844      22
   48144   48162   48165   48177       3   48126   48144   48162   48165       3
   48105   48126   48144   48162       3   48102   48087   48099   48114       4
   48102   48120  -48135   48114       4   48099   48087   48102   48120       4
   48099   48114  -48135   48120       4   48090   48105   48126   48144       3
   48087   48099   48114   48135       4   48087   48102  -48120   48135       4
   48078   48090   48105   48126       3   48069   48087   48099   48114       4
   48069   48087   48102   48120       4   48060   48078   48090   48105       3
   48051   48069   48087   48099       5   48051   48069   48087   48102       5
   48048   48069   48087   48099       5   48048   48069   48087   48102       5
   48042   48060   48078   48090       3   48039   48024   48042   48060       6
   48036   48021   48033   48048       4   48036   48051  -48069   48048       4
   48036   48051   48069   48087       4   48033   48021   48036   48051       4
   48033   48048  -48069   48051       4   48033   48048   48069   48087       4
   48030   48039   48024   48042       4   48024   48042   48060   48078       8
   48021   48033   48048   48069       4   48021   48036  -48051   48069       4
   48018   48006  -48009   48021       9   48018   48006   48015   48030      10
   48018   48033   48021   48036       4   48018   48033   48048   48069       4
   48015   48003   48012   48024       4   48015   48006   48009   48021      11
   48015   48006   48018   48033      12   48015   48030  -48039   48024       4
   48012   48003   48015   48030       4   48012   48024  -48039   48030       4
   48012   48024   48042   48060       6   48009   48000   48003   48012      13
   48009   48000  -48003   48012      14   48009   48000  -48003   48012      15
   48009   48000  -48003   48015      13   48009   48000  -48003   48015      14
   48009   48000  -48003   48015      15   48009   48000  -48006   48015      16
   48009   48000  -48006   48018      16   48009   48006   48015   48030      17
   48009   48006  -48018   48033      12   48009   48021  -48033   48018       4
   48009   48021   48033   48048       4   48009   48021   48036   48051       4
   48006   48000   48003   48012      18   48006   48000  -48003   48015      18
   48006   48000  -48009   48021      19   48006   48009  -48021   48033      20
   48006   48009   48021   48036      20   48006   48015  -48003   48012       4
   48006   48015   48030   48039       4   48006   48018  -48033   48021      21
   48006   48018   48033   48048      21   48003   48000  -48006   48009      16
   48003   48000  -48006   48015      16   48003   48000   48006   48018      16
   48003   48000  -48009   48006      19   48003   48000   48009   48021      19
   48003   48012   48024   48039       4   48003   48012   48024   48042       4
   48003   48015  -48006   48009      17   48003   48015  -48006   48018      10
   48003   48015  -48030   48039       4   48000   48003   48012   48024       4
   48000   48003  -48015   48006       4   48000   48003   48015   48030       4
   48000   48006  -48009   48021       9   48000   48006  -48015   48003      10
   48000   48006  -48015   48030      10   48000   48006   48018   48033      12
   48000   48009  -48006   48015       9   48000   48009  -48006   48018       9
   48000   48009  -48021   48033      22   48000   48009   48021   48036      22
   48336   48354   48357   48369       3   48318   48336   48354   48357       3
   48297   48318   48336   48354       3   48294   48279   48291   48306       4
   48294   48312  -48327   48306       4   48291   48279   48294   48312       4
   48291   48306  -48327   48312       4   48282   48297   48318   48336       3
   48279   48291   48306   48327       4   48279   48294  -48312   48327       4
   48270   48282   48297   48318       3   48261   48279   48291   48306       4
   48261   48279   48294   48312       4   48252   48270   48282   48297       3
   48243   48261   48279   48291       5   48243   48261   48279   48294       5
   48240   48261   48279   48291       5   48240   48261   48279   48294       5
   48234   48252   48270   48282       3   48231   48216   48234   48252       6
   48228   48213   48225   48240       4   48228   48243  -48261   48240       4
   48228   48243   48261   48279       4   48225   48213   48228   48243       4
   48225   48240  -48261   48243       4   48225   48240   48261   48279       4
   48222   48231   48216   48234       4   48216   48234   48252   48270       8
   48213   48225   48240   48261       4   48213   48228  -48243   48261       4
   48210   48198  -48201   48213       9   48210   48198   48207   48222      10
   48210   48225   48213   48228       4   48210   48225   48240   48261       4
   48207   48195   48204   48216       4   48207   48198   48201   48213      11
   48207   48198   48210   48225      12   48207   48222  -48231   48216       4
   48204   48195   48207   48222       4   48204   48216  -48231   48222       4
   48204   48216   48234   48252       6   48201   48192   48195   48204      13
   48201   48192  -48195   48204      14   48201   48192  -48195   48204      15
   48201   48192  -48195   48207      13   48201   48192  -48195   48207      14
   48201   48192  -48195   48207      15   48201   48192  -48198   48207      16
   48201   48192  -48198   48210      16   48201   48198   48207   48222      17
   48201   48198  -48210   48225      12   48201   48213  -48225   48210       4
   48201   48213   48225   48240       4   48201   48213   48228   48243       4
   48198   48192   48195   48204      18   48198   48192  -48195   48207      18
   48198   48192  -48201   48213      19   48198   48201  -48213   48225      20
   48198   48201   48213   48228      20   48198   48207  -48195   48204       4
   48198   48207   48222   48231       4   48198   48210  -48225   48213      21
   48198   48210   48225   48240      21   48195   48192  -48198   48201      16
   48195   48192  -48198   48207      16   48195   48192   48198   48210      16
   48195   48192  -48201   48198      19   48195   48192   48201   48213      19
   48195   48204   48216   48231       4   48195   48204   48216   48234       4
   48195   48207  -48198   48201      17   48195   48207  -48198   48210      10
   48195   48207  -48222   48231       4   48192   48195   48204   48216       4
   48192   48195  -48207   48198       4   48192   48195   48207   48222       4
   48192   48198  -48201   48213       9   48192   48198  -48207   48195      10
   48192   48198  -48207   48222      10   48192   48198   48210   48225      12
   48192   48201  -48198   48207       9   48192   48201  -48198   48210       9
   48192   48201  -48213   48225      22   48192   48201   48213   48228      22
   48528   48546   48549   48561       3   48510   48528   48546   48549       3
   48489   48510   48528   48546       3   48486   48471   48483   48498       4
   48486   48504  -48519   48498       4   48483   48471   48486   48504       4
   48483   48498  -48519   48504       4   48474   48489   48510   48528       3
   48471   48483   48498   48519       4   48471   48486  -48504   48519       4
   48462   48474   48489   48510       3   48453   48471   48483   48498       4
   48453   48471   48486   48504       4   48444   48462   48474   48489       3
   48435   48453   48471   48483       5   48435   48453   48471   48486       5
   48432   48453   48471   48483       5   48432   48453   48471   48486       5
   48426   48444   48462   48474       3   48423   48408   48426   48444       6
   48420   48405   48417   48432       4   48420   48435  -48453   48432       4
   48420   48435   48453   48471       4   48417   48405   48420   48435       4
   48417   48432  -48453   48435       4   48417   48432   48453   48471       4
   48414   48423   48408   48426       4   48408   48426   48444   48462       8
   48405   48417   48432   48453       4   48405   48420  -48435   48453       4
   48402   48390  -48393   48405       9   48402   48390   48399   48414      10
   48402   48417   48405   48420       4   48402   48417   48432   48453       4
   48399   48387   48396   48408       4   48399   48390   48393   48405      11
   48399   48390   48402   48417      12   48399   48414  -48423   48408       4
   48396   48387   48399   48414       4   48396   48408  -48423   48414       4
   48396   48408   48426   48444       6   48393   48384   48387   48396      13
   48393   48384  -48387   48396      14   48393   48384  -48387   48396      15
   48393   48384  -48387   48399      13   48393   48384  -48387   48399      14
   48393   48384  -48387   48399      15   48393   48384  -48390   48399      16
   48393   48384  -48390   48402      16   48393   48390   48399   48414      17
   48393   48390  -48402   48417      12   48393   48405  -48417   48402       4
   48393   48405   48417   48432       4   48393   48405   48420   48435       4
   48390   48384   48387   48396      18   48390   48384  -48387   48399      18
   48390   48384  -48393   48405      19   48390   48393  -48405   48417      20
   48390   48393   48405   48420      20   48390   48399  -48387   48396       4
   48390   48399   48414   48423       4   48390   48402  -48417   48405      21
   48390   48402   48417   48432      21   48387   48384  -48390   48393      16
   48387   48384  -48390   48399      16   48387   48384   48390   48402      16
   48387   48384  -48393   48390      19   48387   48384   48393   48405      19
   48387   48396   48408   48423       4   48387   48396   48408   48426       4
   48387   48399  -48390   48393      17   48387   48399  -48390   48402      10
   48387   48399  -48414   48423       4   48384   48387   48396   48408       4
   48384   48387  -48399   48390       4   48384   48387   48399   48414       4
   48384   48390  -48393   48405       9   48384   48390  -48399   48387      10
   48384   48390  -48399   48414      10   48384   48390   48402   48417      12
   48384   48393  -48390   48399       9   48384   48393  -48390   48402       9
   48384   48393  -48405   48417      22   48384   48393   48405   48420      22
   48720   48738   48741   48753       3   48702   48720   48738   48741       3
   48681   48702   48720   48738       3   48678   48663   48675   48690       4
   48678   48696  -48711   48690       4   48675   48663   48678   48696       4
   48675   48690  -48711   48696       4   48666   48681   48702   48720       3
   48663   48675   48690   48711       4   48663   48678  -48696   48711       4
   48654   48666   48681   48702       3   48645   48663   48675   48690       4
   48645   48663   48678   48696       4   48636   48654   48666   48681       3
   48627   48645   48663   48675       5   48627   48645   48663   48678       5
   48624   48645   48663   48675       5   48624   48645   48663   48678       5
   48618   48636   48654   48666       3   48615   48600   48618   48636       6
   48612   48597   48609   48624       4   48612   48627  -48645   48624       4
   48612   48627   48645   48663       4   48609   48597   48612   48627       4
   48609   48624  -48645   48627       4   48609   48624   48645   48663       4
   48606   48615   48600   48618       4   48600   48618   48636   48654       8
   48597   48609   48624   48645       4   48597   48612  -48627   48645       4
   48594   48582  -48585   48597       9   48594   48582   48591   48606      10
   48594   48609   48597   48612       4   48594   48609   48624   48645       4
   48591   48579   48588   48600       4   48591   48582   48585   48597      11
   48591   48582   48594   48609      12   48591   48606  -48615   48600       4
   48588   48579   48591   48606       4   48588   48600  -48615   48606       4
   48588   48600   48618   48636       6   48585   48576   48579   48588      13
   48585   48576  -48579   48588      14   48585   48576  -48579   48588      15
   48585   48576  -48579   48591      13   48585   48576  -48579   48591      14
   48585   48576  -48579   48591      15   48585   48576  -48582   48591      16
   48585   48576  -48582   48594      16   48585   48582   48591   48606      17
   48585   48582  -48594   48609      12   48585   48597  -48609   48594       4
   48585   48597   48609   48624       4   48585   48597   48612   48627       4
   48582   48576   48579   48588      18   48582   48576  -48579   48591      18
   48582   48576  -48585   48597      19   48582   48585  -48597   48609      20
   48582   48585   48597   48612      20   48582   48591  -48579   48588       4
   48582   48591   48606   48615       4   48582   48594  -48609   48597      21
   48582   48594   48609   48624      21   48579   48576  -48582   48585      16
   48579   48576  -48582   48591      16   48579   48576   48582   48594      16
   48579   48576  -48585   48582      19   48579   48576   48585   48597      19
   48579   48588   48600   48615       4   48579   48588   48600   48618       4
   48579   48591  -48582   48585      17   48579   48591  -48582   48594      10
   48579   48591  -48606   48615       4   48576   48579   48588   48600       4
   48576   48579  -48591   48582       4   48576   48579   48591   48606       4
   48576   48582  -48585   48597       9   48576   48582  -48591   48579      10
   48576   48582  -48591   48606      10   48576   48582   48594   48609      12
   48576   48585  -48582   48591       9   48576   48585  -48582   48594       9
   48576   48585  -48597   48609      22   48576   48585   48597   48612      22
   48912   48930   48933   48945       3   48894   48912   48930   48933       3
   48873   48894   48912   48930       3   48870   48855   48867   48882       4
   48870   48888  -48903   48882       4   48867   48855   48870   48888       4
   48867   48882  -48903   48888       4   48858   48873   48894   48912       3
   48855   48867   48882   48903       4   48855   48870  -48888   48903       4
   48846   48858   48873   48894       3   48837   48855   48867   48882       4
   48837   48855   48870   48888       4   48828   48846   48858   48873       3
   48819   48837   48855   48867       5   48819   48837   48855   48870       5
   48816   48837   48855   48867       5   48816   48837   48855   48870       5
   48810   48828   48846   48858       3   48807   48792   48810   48828       6
   48804   48789   48801   48816       4   48804   48819  -48837   48816       4
   48804   48819   48837   48855       4   48801   48789   48804   48819       4
   48801   48816  -48837   48819       4   48801   48816   48837   48855       4
   48798   48807   48792   48810       4   48792   48810   48828   48846       8
   48789   48801   48816   48837       4   48789   48804  -48819   48837       4
   48786   48774  -48777   48789       9   48786   48774   48783   48798      10
   48786   48801   48789   48804       4   48786   48801   48816   48837       4
   48783   48771   48780   48792       4   48783   48774   48777   48789      11
   48783   48774   48786   48801      12   48783   48798  -48807   48792       4
   48780   48771   48783   48798       4   48780   48792  -48807   48798       4
   48780   48792   48810   48828       6   48777   48768   48771   48780      13
   48777   48768  -48771   48780      14   48777   48768  -48771   48780      15
   48777   48768  -48771   48783      13   48777   48768  -48771   48783      14
   48777   48768  -48771   48783      15   48777   48768  -48774   48783      16
   48777   48768  -48774   48786      16   48777   48774   48783   48798      17
   48777   48774  -48786   48801      12   48777   48789  -48801   48786       4
   48777   48789   48801   48816       4   48777   48789   48804   48819       4
   48774   48768   48771   48780      18   48774   48768  -48771   48783      18
   48774   48768  -48777   48789      19   48774   48777  -48789   48801      20
   48774   48777   48789   48804      20   48774   48783  -48771   48780       4
   48774   48783   48798   48807       4   48774   48786  -48801   48789      21
   48774   48786   48801   48816      21   48771   48768  -48774   48777      16
   48771   48768  -48774   48783      16   48771   48768   48774   48786      16
   48771   48768  -48777   48774      19   48771   48768   48777   48789      19
   48771   48780   48792   48807       4   48771   48780   48792   48810       4
   48771   48783  -48774   48777      17   48771   48783  -48774   48786      10
   48771   48783  -48798   48807       4   48768   48771   48780   48792       4
   48768   48771  -48783   48774       4   48768   48771   48783   48798       4
   48768   48774  -48777   48789       9   48768   48774  -48783   48771      10
   48768   48774  -48783   48798      10   48768   48774   48786   48801      12
   48768   48777  -48774   48783       9   48768   48777  -48774   48786       9
   48768   48777  -48789   48801      22   48768   48777   48789   48804      22
   49104   49122   49125   49137       3   49086   49104   49122   49125       3
   49065   49086   49104   49122       3   49062   49047   49059   49074       4
   49062   49080  -49095   49074       4   49059   49047   49062   49080       4
   49059   49074  -49095   49080       4   49050   49065   49086   49104       3
   49047   49059   49074   49095       4   49047   49062  -49080   49095       4
   49038   49050   49065   49086       3   49029   49047   49059   49074       4
   49029   49047   49062   49080       4   49020   49038   49050   49065       3
   49011   49029   49047   49059       5   49011   49029   49047   49062       5
   49008   49029   49047   49059       5   49008   49029   49047   49062       5
   49002   49020   49038   49050       3   48999   48984   49002   49020       6
   48996   48981   48993   49008       4   48996   49011  -49029   49008       4
   48996   49011   49029   49047       4   48993   48981   48996   49011       4
   48993   49008  -49029   49011       4   48993   49008   49029   49047       4
   48990   48999   48984   49002       4   48984   49002   49020   49038       8
   48981   48993   49008   49029       4   48981   48996  -49011   49029       4
   48978   48966  -48969   48981       9   48978   48966   48975   48990      10
   48978   48993   48981   48996       4   48978   48993   49008   49029       4
   48975   48963   48972   48984       4   48975   48966   48969   48981      11
   48975   48966   48978   48993      12   48975   48990  -48999   48984       4
   48972   48963   48975   48990       4   48972   48984  -48999   48990       4
   48972   48984   49002   49020       6   48969   48960   48963   48972      13
   48969   48960  -48963   48972      14   48969   48960  -48963   48972      15
   48969   48960  -48963   48975      13   48969   48960  -48963   48975      14
   48969   48960  -48963   48975      15   48969   48960  -48966   48975      16
   48969   48960  -48966   48978      16   48969   48966   48975   48990      17
   48969   48966  -48978   48993      12   48969   48981  -48993   48978       4
   48969   48981   48993   49008       4   48969   48981   48996   49011       4
   48966   48960   48963   48972      18   48966   48960  -48963   48975      18
   48966   48960  -48969   48981      19   48966   48969  -48981   48993      20
   48966   48969   48981   48996      20   48966   48975  -48963   48972       4
   48966   48975   48990   48999       4   48966   48978  -48993   48981      21
   48966   48978   48993   49008      21   48963   48960  -48966   48969      16
   48963   48960  -48966   48975      16   48963   48960   48966   48978      16
   48963   48960  -48969   48966      19   48963   48960   48969   48981      19
   48963   48972   48984   48999       4   48963   48972   48984   49002       4
   48963   48975  -48966   48969      17   48963   48975  -48966   48978      10
   48963   48975  -48990   48999       4   48960   48963   48972   48984       4
   48960   48963  -48975   48966       4   48960   48963   48975   48990       4
   48960   48966  -48969   48981       9   48960   48966  -48975   48963      10
   48960   48966  -48975   48990      10   48960   48966   48978   48993      12
   48960   48969  -48966   48975       9   48960   48969  -48966   48978       9
   48960   48969  -48981   48993      22   48960   48969   48981   48996      22
   49296   49314   49317   49329       3   49278   49296   49314   49317       3
   49257   49278   49296   49314       3   49254   49239   49251   49266       4
   49254   49272  -49287   49266       4   49251   49239   49254   49272       4
   49251   49266  -49287   49272       4   49242   49257   49278   49296       3
   49239   49251   49266   49287       4   49239   49254  -49272   49287       4
   49230   49242   49257   49278       3   49221   49239   49251   49266       4
   49221   49239   49254   49272       4   49212   49230   49242   49257       3
   49203   49221   49239   49251       5   49203   49221   49239   49254       5
   49200   49221   49239   49251       5   49200   49221   49239   49254       5
   49194   49212   49230   49242       3   49191   49176   49194   49212       6
   49188   49173   49185   49200       4   49188   49203  -49221   49200       4
   49188   49203   49221   49239       4   49185   49173   49188   49203       4
   49185   49200  -49221   49203       4   49185   49200   49221   49239       4
   49182   49191   49176   49194       4   49176   49194   49212   49230       8
   49173   49185   49200   49221       4   49173   49188  -49203   49221       4
   49170   49158  -49161   49173       9   49170   49158   49167   49182      10
   49170   49185   49173   49188       4   49170   49185   49200   49221       4
   49167   49155   49164   49176       4   49167   49158   49161   49173      11
   49167   49158   49170   49185      12   49167   49182  -49191   49176       4
   49164   49155   49167   49182       4   49164   49176  -49191   49182       4
   49164   49176   49194   49212       6   49161   49152   49155   49164      13
   49161   49152  -49155   49164      14   49161   49152  -49155   49164      15
   49161   49152  -49155   49167      13   49161   49152  -49155   49167      14
   49161   49152  -49155   49167      15   49161   49152  -49158   49167      16
   49161   49152  -49158   49170      16   49161   49158   49167   49182      17
   49161   49158  -49170   49185      12   49161   49173  -49185   49170       4
   49161   49173   49185   49200       4   49161   49173   49188   49203       4
   49158   49152   49155   49164      18   49158   49152  -49155   49167      18
   49158   49152  -49161   49173      19   49158   49161  -49173   49185      20
   49158   49161   49173   49188      20   49158   49167  -49155   49164       4
   49158   49167   49182   49191       4   49158   49170  -49185   49173      21
   49158   49170   49185   49200      21   49155   49152  -49158   49161      16
   49155   49152  -49158   49167      16   49155   49152   49158   49170      16
   49155   49152  -49161   49158      19   49155   49152   49161   49173      19
   49155   49164   49176   49191       4   49155   49164   49176   49194       4
   49155   49167  -49158   49161      17   49155   49167  -49158   49170      10
   49155   49167  -49182   49191       4   49152   49155   49164   49176       4
   49152   49155  -49167   49158       4   49152   49155   49167   49182       4
   49152   49158  -49161   49173       9   49152   49158  -49167   49155      10
   49152   49158  -49167   49182      10   49152   49158   49170   49185      12
   49152   49161  -49158   49167       9   49152   49161  -49158   49170       9
   49152   49161  -49173   49185      22   49152   49161   49173   49188      22
   49488   49506   49509   49521       3   49470   49488   49506   49509       3
   49449   49470   49488   49506       3   49446   49431   49443   49458       4
   49446   49464  -49479   49458       4   49443   49431   49446   49464       4
   49443   49458  -49479   49464       4   49434   49449   49470   49488       3
   49431   49443   49458   49479       4   49431   49446  -49464   49479       4
   49422   49434   49449   49470       3   49413   49431   49443   49458       4
   49413   49431   49446   49464       4   49404   49422   49434   49449       3
   49395   49413   49431   49443       5   49395   49413   49431   49446       5
   49392   49413   49431   49443       5   49392   49413   49431   49446       5
   49386   49404   49422   49434       3   49383   49368   49386   49404       6
   49380   49365   49377   49392       4   49380   49395  -49413   49392       4
   49380   49395   49413   49431       4   49377   49365   49380   49395       4
   49377   49392  -49413   49395       4   49377   49392   49413   49431       4
   49374   49383   49368   49386       4   49368   49386   49404   49422       8
   49365   49377   49392   49413       4   49365   49380  -49395   49413       4
   49362   49350  -49353   49365       9   49362   49350   49359   49374      10
   49362   49377   49365   49380       4   49362   49377   49392   49413       4
   49359   49347   49356   49368       4   49359   49350   49353   49365      11
   49359   49350   49362   49377      12   49359   49374  -49383   49368       4
   49356   49347   49359   49374       4   49356   49368  -49383   49374       4
   49356   49368   49386   49404       6   49353   49344   49347   49356      13
   49353   49344  -49347   49356      14   49353   49344  -49347   49356      15
   49353   49344  -49347   49359      13   49353   49344  -49347   49359      14
   49353   49344  -49347   49359      15   49353   49344  -49350   49359      16
   49353   49344  -49350   49362      16   49353   49350   49359   49374      17
   49353   49350  -49362   49377      12   49353   49365  -49377   49362       4
   49353   49365   49377   49392       4   49353   49365   49380   49395       4
   49350   49344   49347   49356      18   49350   49344  -49347   49359      18
   49350   49344  -49353   49365      19   49350   49353  -49365   49377      20
   49350   49353   49365   49380      20   49350   49359  -49347   49356       4
   49350   49359   49374   49383       4   49350   49362  -49377   49365      21
   49350   49362   49377   49392      21   49347   49344  -49350   49353      16
   49347   49344  -49350   49359      16   49347   49344   49350   49362      16
   49347   49344  -49353   49350      19   49347   49344   49353   49365      19
   49347   49356   49368   49383       4   49347   49356   49368   49386       4
   49347   49359  -49350   49353      17   49347   49359  -49350   49362      10
   49347   49359  -49374   49383       4   49344   49347   49356   49368       4
   49344   49347  -49359   49350       4   49344   49347   49359   49374       4
   49344   49350  -49353   49365       9   49344   49350  -49359   49347      10
   49344   49350  -49359   49374      10   49344   49350   49362   49377      12
   49344   49353  -49350   49359       9   49344   49353  -49350   49362       9
   49344   49353  -49365   49377      22   49344   49353   49365   49380      22
   49680   49698   49701   49713       3   49662   49680   49698   49701       3
   49641   49662   49680   49698       3   49638   49623   49635   49650       4
   49638   49656  -49671   49650       4   49635   49623   49638   49656       4
   49635   49650  -49671   49656       4   49626   49641   49662   49680       3
   49623   49635   49650   49671       4   49623   49638  -49656   49671       4
   49614   49626   49641   49662       3   49605   49623   49635   49650       4
   49605   49623   49638   49656       4   49596   49614   49626   49641       3
   49587   49605   49623   49635       5   49587   49605   49623   49638       5
   49584   49605   49623   49635       5   49584   49605   49623   49638       5
   49578   49596   49614   49626       3   49575   49560   49578   49596       6
   49572   49557   49569   49584       4   49572   49587  -49605   49584       4
   49572   49587   49605   49623       4   49569   49557   49572   49587       4
   49569   49584  -49605   49587       4   49569   49584   49605   49623       4
   49566   49575   49560   49578       4   49560   49578   49596   49614       8
   49557   49569   49584   49605       4   49557   49572  -49587   49605       4
   49554   49542  -49545   49557       9   49554   49542   49551   49566      10
   49554   49569   49557   49572       4   49554   49569   49584   49605       4
   49551   49539   49548   49560       4   49551   49542   49545   49557      11
   49551   49542   49554   49569      12   49551   49566  -49575   49560       4
   49548   49539   49551   49566       4   49548   49560  -49575   49566       4
   49548   49560   49578   49596       6   49545   49536   49539   49548      13
   49545   49536  -49539   49548      14   49545   49536  -49539   49548      15
   49545   49536  -49539   49551      13   49545   49536  -49539   49551      14
   49545   49536  -49539   49551      15   49545   49536  -49542   49551      16
   49545   49536  -49542   49554      16   49545   49542   49551   49566      17
   49545   49542  -49554   49569      12   49545   49557  -49569   49554       4
   49545   49557   49569   49584       4   49545   49557   49572   49587       4
   49542   49536   49539   49548      18   49542   49536  -49539   49551      18
   49542   49536  -49545   49557      19   49542   49545  -49557   49569      20
   49542   49545   49557   49572      20   49542   49551  -49539   49548       4
   49542   49551   49566   49575       4   49542   49554  -49569   49557      21
   49542   49554   49569   49584      21   49539   49536  -49542   49545      16
   49539   49536  -49542   49551      16   49539   49536   49542   49554      16
   49539   49536  -49545   49542      19   49539   49536   49545   49557      19
   49539   49548   49560   49575       4   49539   49548   49560   49578       4
   49539   49551  -49542   49545      17   49539   49551  -49542   49554      10
   49539   49551  -49566   49575       4   49536   49539   49548   49560       4
   49536   49539  -49551   49542       4   49536   49539   49551   49566       4
   49536   49542  -49545   49557       9   49536   49542  -49551   49539      10
   49536   49542  -49551   49566      10   49536   49542   49554   49569      12
   49536   49545  -49542   49551       9   49536   49545  -49542   49554       9
   49536   49545  -49557   49569      22   49536   49545   49557   49572      22
   49872   49890   49893   49905       3   49854   49872   49890   49893       3
   49833   49854   49872   49890       3   49830   49815   49827   49842       4
   49830   49848  -49863   49842       4   49827   49815   49830   49848       4
   49827   49842  -49863   49848       4   49818   49833   49854   49872       3
   49815   49827   49842   49863       4   49815   49830  -49848   49863       4
   49806   49818   49833   49854       3   49797   49815   49827   49842       4
   49797   49815   49830   49848       4   49788   49806   49818   49833       3
   49779   49797   49815   49827       5   49779   49797   49815   49830       5
   49776   49797   49815   49827       5   49776   49797   49815   49830       5
   49770   49788   49806   49818       3   49767   49752   49770   49788       6
   49764   49749   49761   49776       4   49764   49779  -49797   49776       4
   49764   49779   49797   49815       4   49761   49749   49764   49779       4
   49761   49776  -49797   49779       4   49761   49776   49797   49815       4
   49758   49767   49752   49770       4   49752   49770   49788   49806       8
   49749   49761   49776   49797       4   49749   49764  -49779   49797       4
   49746   49734  -49737   49749       9   49746   49734   49743   49758      10
   49746   49761   49749   49764       4   49746   49761   49776   49797       4
   49743   49731   49740   49752       4   49743   49734   49737   49749      11
   49743   49734   49746   49761      12   49743   49758  -49767   49752       4
   49740   49731   49743   49758       4   49740   49752  -49767   49758       4
   49740   49752   49770   49788       6   49737   49728   49731   49740      13
   49737   49728  -49731   49740      14   49737   49728  -49731   49740      15
   49737   49728  -49731   49743      13   49737   49728  -49731   49743      14
   49737   49728  -49731   49743      15   49737   49728  -49734   49743      16
   49737   49728  -49734   49746      16   49737   49734   49743   49758      17
   49737   49734  -49746   49761      12   49737   49749  -49761   49746       4
   49737   49749   49761   49776       4   49737   49749   49764   49779       4
   49734   49728   49731   49740      18   49734   49728  -49731   49743      18
   49734   49728  -49737   49749      19   49734   49737  -49749   49761      20
   49734   49737   49749   49764      20   49734   49743  -49731   49740       4
   49734   49743   49758   49767       4   49734   49746  -49761   49749      21
   49734   49746   49761   49776      21   49731   49728  -49734   49737      16
   49731   49728  -49734   49743      16   49731   49728   49734   49746      16
   49731   49728  -49737   49734      19   49731   49728   49737   49749      19
   49731   49740   49752   49767       4   49731   49740   49752   49770       4
   49731   49743  -49734   49737      17   49731   49743  -49734   49746      10
   49731   49743  -49758   49767       4   49728   49731   49740   49752       4
   49728   49731  -49743   49734       4   49728   49731   49743   49758       4
   49728   49734  -49737   49749       9   49728   49734  -49743   49731      10
   49728   49734  -49743   49758      10   49728   49734   49746   49761      12
   49728   49737  -49734   49743       9   49728   49737  -49734   49746       9
   49728   49737  -49749   49761      22   49728   49737   49749   49764      22
   50064   50082   50085   50097       3   50046   50064   50082   50085       3
   50025   50046   50064   50082       3   50022   50007   50019   50034       4
   50022   50040  -50055   50034       4   50019   50007   50022   50040       4
   50019   50034  -50055   50040       4   50010   50025   50046   50064       3
   50007   50019   50034   50055       4   50007   50022  -50040   50055       4
   49998   50010   50025   50046       3   49989   50007   50019   50034       4
   49989   50007   50022   50040       4   49980   49998   50010   50025       3
   49971   49989   50007   50019       5   49971   49989   50007   50022       5
   49968   49989   50007   50019       5   49968   49989   50007   50022       5
   49962   49980   49998   50010       3   49959   49944   49962   49980       6
   49956   49941   49953   49968       4   49956   49971  -49989   49968       4
   49956   49971   49989   50007       4   49953   49941   49956   49971       4
   49953   49968  -49989   49971       4   49953   49968   49989   50007       4
   49950   49959   49944   49962       4   49944   49962   49980   49998       8
   49941   49953   49968   49989       4   49941   49956  -49971   49989       4
   49938   49926  -49929   49941       9   49938   49926   49935   49950      10
   49938   49953   49941   49956       4   49938   49953   49968   49989       4
   49935   49923   49932   49944       4   49935   49926   49929   49941      11
   49935   49926   49938   49953      12   49935   49950  -49959   49944       4
   49932   49923   49935   49950       4   49932   49944  -49959   49950       4
   49932   49944   49962   49980       6   49929   49920   49923   49932      13
   49929   49920  -49923   49932      14   49929   49920  -49923   49932      15
   49929   49920  -49923   49935      13   49929   49920  -49923   49935      14
   49929   49920  -49923   49935      15   49929   49920  -49926   49935      16
   49929   49920  -49926   49938      16   49929   49926   49935   49950      17
   49929   49926  -49938   49953      12   49929   49941  -49953   49938       4
   49929   49941   49953   49968       4   49929   49941   49956   49971       4
   49926   49920   49923   49932      18   49926   49920  -49923   49935      18
   49926   49920  -49929   49941      19   49926   49929  -49941   49953      20
   49926   49929   49941   49956      20   49926   49935  -49923   49932       4
   49926   49935   49950   49959       4   49926   49938  -49953   49941      21
   49926   49938   49953   49968      21   49923   49920  -49926   49929      16
   49923   49920  -49926   49935      16   49923   49920   49926   49938      16
   49923   49920  -49929   49926      19   49923   49920   49929   49941      19
   49923   49932   49944   49959       4   49923   49932   49944   49962       4
   49923   49935  -49926   49929      17   49923   49935  -49926   49938      10
   49923   49935  -49950   49959       4   49920   49923   49932   49944       4
   49920   49923  -49935   49926       4   49920   49923   49935   49950       4
   49920   49926  -49929   49941       9   49920   49926  -49935   49923      10
   49920   49926  -49935   49950      10   49920   49926   49938   49953      12
   49920   49929  -49926   49935       9   49920   49929  -49926   49938       9
   49920   49929  -49941   49953      22   49920   49929   49941   49956      22
   50256   50274   50277   50289       3   50238   50256   50274   50277       3
   50217   50238   50256   50274       3   50214   50199   50211   50226       4
   50214   50232  -50247   50226       4   50211   50199   50214   50232       4
   50211   50226  -50247   50232       4   50202   50217   50238   50256       3
   50199   50211   50226   50247       4   50199   50214  -50232   50247       4
   50190   50202   50217   50238       3   50181   50199   50211   50226       4
   50181   50199   50214   50232       4   50172   50190   50202   50217       3
   50163   50181   50199   50211       5   50163   50181   50199   50214       5
   50160   50181   50199   50211       5   50160   50181   50199   50214       5
   50154   50172   50190   50202       3   50151   50136   50154   50172       6
   50148   50133   50145   50160       4   50148   50163  -50181   50160       4
   50148   50163   50181   50199       4   50145   50133   50148   50163       4
   50145   50160  -50181   50163       4   50145   50160   50181   50199       4
   50142   50151   50136   50154       4   50136   50154   50172   50190       8
   50133   50145   50160   50181       4   50133   50148  -50163   50181       4
   50130   50118  -50121   50133       9   50130   50118   50127   50142      10
   50130   50145   50133   50148       4   50130   50145   50160   50181       4
   50127   50115   50124   50136       4   50127   50118   50121   50133      11
   50127   50118   50130   50145      12   50127   50142  -50151   50136       4
   50124   50115   50127   50142       4   50124   50136  -50151   50142       4
   50124   50136   50154   50172       6   50121   50112   50115   50124      13
   50121   50112  -50115   50124      14   50121   50112  -50115   50124      15
   50121   50112  -50115   50127      13   50121   50112  -50115   50127      14
   50121   50112  -50115   50127      15   50121   50112  -50118   50127      16
   50121   50112  -50118   50130      16   50121   50118   50127   50142      17
   50121   50118  -50130   50145      12   50121   50133  -50145   50130       4
   50121   50133   50145   50160       4   50121   50133   50148   50163       4
   50118   50112   50115   50124      18   50118   50112  -50115   50127      18
   50118   50112  -50121   50133      19   50118   50121  -50133   50145      20
   50118   50121   50133   50148      20   50118   50127  -50115   50124       4
   50118   50127   50142   50151       4   50118   50130  -50145   50133      21
   50118   50130   50145   50160      21   50115   50112  -50118   50121      16
   50115   50112  -50118   50127      16   50115   50112   50118   50130      16
   50115   50112  -50121   50118      19   50115   50112   50121   50133      19
   50115   50124   50136   50151       4   50115   50124   50136   50154       4
   50115   50127  -50118   50121      17   50115   50127  -50118   50130      10
   50115   50127  -50142   50151       4   50112   50115   50124   50136       4
   50112   50115  -50127   50118       4   50112   50115   50127   50142       4
   50112   50118  -50121   50133       9   50112   50118  -50127   50115      10
   50112   50118  -50127   50142      10   50112   50118   50130   50145      12
   50112   50121  -50118   50127       9   50112   50121  -50118   50130       9
   50112   50121  -50133   50145      22   50112   50121   50133   50148      22
   50448   50466   50469   50481       3   50430   50448   50466   50469       3
   50409   50430   50448   50466       3   50406   50391   50403   50418       4
   50406   50424  -50439   50418       4   50403   50391   50406   50424       4
   50403   50418  -50439   50424       4   50394   50409   50430   50448       3
   50391   50403   50418   50439       4   50391   50406  -50424   50439       4
   50382   50394   50409   50430       3   50373   50391   50403   50418       4
   50373   50391   50406   50424       4   50364   50382   50394   50409       3
   50355   50373   50391   50403       5   50355   50373   50391   50406       5
   50352   50373   50391   50403       5   50352   50373   50391   50406       5
   50346   50364   50382   50394       3   50343   50328   50346   50364       6
   50340   50325   50337   50352       4   50340   50355  -50373   50352       4
   50340   50355   50373   50391       4   50337   50325   50340   50355       4
   50337   50352  -50373   50355       4   50337   50352   50373   50391       4
   50334   50343   50328   50346       4   50328   50346   50364   50382       8
   50325   50337   50352   50373       4   50325   50340  -50355   50373       4
   50322   50310  -50313   50325       9   50322   50310   50319   50334      10
   50322   50337   50325   50340       4   50322   50337   50352   50373       4
   50319   50307   50316   50328       4   50319   50310   50313   50325      11
   50319   50310   50322   50337      12   50319   50334  -50343   50328       4
   50316   50307   50319   50334       4   50316   50328  -50343   50334       4
   50316   50328   50346   50364       6   50313   50304   50307   50316      13
   50313   50304  -50307   50316      14   50313   50304  -50307   50316      15
   50313   50304  -50307   50319      13   50313   50304  -50307   50319      14
   50313   50304  -50307   50319      15   50313   50304  -50310   50319      16
   50313   50304  -50310   50322      16   50313   50310   50319   50334      17
   50313   50310  -50322   50337      12   50313   50325  -50337   50322       4
   50313   50325   50337   50352       4   50313   50325   50340   50355       4
   50310   50304   50307   50316      18   50310   50304  -50307   50319      18
   50310   50304  -50313   50325      19   50310   50313  -50325   50337      20
   50310   50313   50325   50340      20   50310   50319  -50307   50316       4
   50310   50319   50334   50343       4   50310   50322  -50337   50325      21
   50310   50322   50337   50352      21   50307   50304  -50310   50313      16
   50307   50304  -50310   50319      16   50307   50304   50310   50322      16
   50307   50304  -50313   50310      19   50307   50304   50313   50325      19
   50307   50316   50328   50343       4   50307   50316   50328   50346       4
   50307   50319  -50310   50313      17   50307   50319  -50310   50322      10
   50307   50319  -50334   50343       4   50304   50307   50316   50328       4
   50304   50307  -50319   50310       4   50304   50307   50319   50334       4
   50304   50310  -50313   50325       9   50304   50310  -50319   50307      10
   50304   50310  -50319   50334      10   50304   50310   50322   50337      12
   50304   50313  -50310   50319       9   50304   50313  -50310   50322       9
   50304   50313  -50325   50337      22   50304   50313   50325   50340      22
   50640   50658   50661   50673       3   50622   50640   50658   50661       3
   50601   50622   50640   50658       3   50598   50583   50595   50610       4
   50598   50616  -50631   50610       4   50595   50583   50598   50616       4
   50595   50610  -50631   50616       4   50586   50601   50622   50640       3
   50583   50595   50610   50631       4   50583   50598  -50616   50631       4
   50574   50586   50601   50622       3   50565   50583   50595   50610       4
   50565   50583   50598   50616       4   50556   50574   50586   50601       3
   50547   50565   50583   50595       5   50547   50565   50583   50598       5
   50544   50565   50583   50595       5   50544   50565   50583   50598       5
   50538   50556   50574   50586       3   50535   50520   50538   50556       6
   50532   50517   50529   50544       4   50532   50547  -50565   50544       4
   50532   50547   50565   50583       4   50529   50517   50532   50547       4
   50529   50544  -50565   50547       4   50529   50544   50565   50583       4
   50526   50535   50520   50538       4   50520   50538   50556   50574       8
   50517   50529   50544   50565       4   50517   50532  -50547   50565       4
   50514   50502  -50505   50517       9   50514   50502   50511   50526      10
   50514   50529   50517   50532       4   50514   50529   50544   50565       4
   50511   50499   50508   50520       4   50511   50502   50505   50517      11
   50511   50502   50514   50529      12   50511   50526  -50535   50520       4
   50508   50499   50511   50526       4   50508   50520  -50535   50526       4
   50508   50520   50538   50556       6   50505   50496   50499   50508      13
   50505   50496  -50499   50508      14   50505   50496  -50499   50508      15
   50505   50496  -50499   50511      13   50505   50496  -50499   50511      14
   50505   50496  -50499   50511      15   50505   50496  -50502   50511      16
   50505   50496  -50502   50514      16   50505   50502   50511   50526      17
   50505   50502  -50514   50529      12   50505   50517  -50529   50514       4
   50505   50517   50529   50544       4   50505   50517   50532   50547       4
   50502   50496   50499   50508      18   50502   50496  -50499   50511      18
   50502   50496  -50505   50517      19   50502   50505  -50517   50529      20
   50502   50505   50517   50532      20   50502   50511  -50499   50508       4
   50502   50511   50526   50535       4   50502   50514  -50529   50517      21
   50502   50514   50529   50544      21   50499   50496  -50502   50505      16
   50499   50496  -50502   50511      16   50499   50496   50502   50514      16
   50499   50496  -50505   50502      19   50499   50496   50505   50517      19
   50499   50508   50520   50535       4   50499   50508   50520   50538       4
   50499   50511  -50502   50505      17   50499   50511  -50502   50514      10
   50499   50511  -50526   50535       4   50496   50499   50508   50520       4
   50496   50499  -50511   50502       4   50496   50499   50511   50526       4
   50496   50502  -50505   50517       9   50496   50502  -50511   50499      10
   50496   50502  -50511   50526      10   50496   50502   50514   50529      12
   50496   50505  -50502   50511       9   50496   50505  -50502   50514       9
   50496   50505  -50517   50529      22   50496   50505   50517   50532      22
   50832   50850   50853   50865       3   50814   50832   50850   50853       3
   50793   50814   50832   50850       3   50790   50775   50787   50802       4
   50790   50808  -50823   50802       4   50787   50775   50790   50808       4
   50787   50802  -50823   50808       4   50778   50793   50814   50832       3
   50775   50787   50802   50823       4   50775   50790  -50808   50823       4
   50766   50778   50793   50814       3   50757   50775   50787   50802       4
   50757   50775   50790   50808       4   50748   50766   50778   50793       3
   50739   50757   50775   50787       5   50739   50757   50775   50790       5
   50736   50757   50775   50787       5   50736   50757   50775   50790       5
   50730   50748   50766   50778       3   50727   50712   50730   50748       6
   50724   50709   50721   50736       4   50724   50739  -50757   50736       4
   50724   50739   50757   50775       4   50721   50709   50724   50739       4
   50721   50736  -50757   50739       4   50721   50736   50757   50775       4
   50718   50727   50712   50730       4   50712   50730   50748   50766       8
   50709   50721   50736   50757       4   50709   50724  -50739   50757       4
   50706   50694  -50697   50709       9   50706   50694   50703   50718      10
   50706   50721   50709   50724       4   50706   50721   50736   50757       4
   50703   50691   50700   50712       4   50703   50694   50697   50709      11
   50703   50694   50706   50721      12   50703   50718  -50727   50712       4
   50700   50691   50703   50718       4   50700   50712  -50727   50718       4
   50700   50712   50730   50748       6   50697   50688   50691   50700      13
   50697   50688  -50691   50700      14   50697   50688  -50691   50700      15
   50697   50688  -50691   50703      13   50697   50688  -50691   50703      14
   50697   50688  -50691   50703      15   50697   50688  -50694   50703      16
   50697   50688  -50694   50706      16   50697   50694   50703   50718      17
   50697   50694  -50706   50721      12   50697   50709  -50721   50706       4
   50697   50709   50721   50736       4   50697   50709   50724   50739       4
   50694   50688   50691   50700      18   50694   50688  -50691   50703      18
   50694   50688  -50697   50709      19   50694   50697  -50709   50721      20
   50694   50697   50709   50724      20   50694   50703  -50691   50700       4
   50694   50703   50718   50727       4   50694   50706  -50721   50709      21
   50694   50706   50721   50736      21   50691   50688  -50694   50697      16
   50691   50688  -50694   50703      16   50691   50688   50694   50706      16
   50691   50688  -50697   50694      19   50691   50688   50697   50709      19
   50691   50700   50712   50727       4   50691   50700   50712   50730       4
   50691   50703  -50694   50697      17   50691   50703  -50694   50706      10
   50691   50703  -50718   50727       4   50688   50691   50700   50712       4
   50688   50691  -50703   50694       4   50688   50691   50703   50718       4
   50688   50694  -50697   50709       9   50688   50694  -50703   50691      10
   50688   50694  -50703   50718      10   50688   50694   50706   50721      12
   50688   50697  -50694   50703       9   50688   50697  -50694   50706       9
   50688   50697  -50709   50721      22   50688   50697   50709   50724      22
   51024   51042   51045   51057       3   51006   51024   51042   51045       3
   50985   51006   51024   51042       3   50982   50967   50979   50994       4
   50982   51000  -51015   50994       4   50979   50967   50982   51000       4
   50979   50994  -51015   51000       4   50970   50985   51006   51024       3
   50967   50979   50994   51015       4   50967   50982  -51000   51015       4
   50958   50970   50985   51006       3   50949   50967   50979   50994       4
   50949   50967   50982   51000       4   50940   50958   50970   50985       3
   50931   50949   50967   50979       5   50931   50949   50967   50982       5
   50928   50949   50967   50979       5   50928   50949   50967   50982       5
   50922   50940   50958   50970       3   50919   50904   50922   50940       6
   50916   50901   50913   50928       4   50916   50931  -50949   50928       4
   50916   50931   50949   50967       4   50913   50901   50916   50931       4
   50913   50928  -50949   50931       4   50913   50928   50949   50967       4
   50910   50919   50904   50922       4   50904   50922   50940   50958       8
   50901   50913   50928   50949       4   50901   50916  -50931   50949       4
   50898   50886  -50889   50901       9   50898   50886   50895   50910      10
   50898   50913   50901   50916       4   50898   50913   50928   50949       4
   50895   50883   50892   50904       4   50895   50886   50889   50901      11
   50895   50886   50898   50913      12   50895   50910  -50919   50904       4
   50892   50883   50895   50910       4   50892   50904  -50919   50910       4
   50892   50904   50922   50940       6   50889   50880   50883   50892      13
   50889   50880  -50883   50892      14   50889   50880  -50883   50892      15
   50889   50880  -50883   50895      13   50889   50880  -50883   50895      14
   50889   50880  -50883   50895      15   50889   50880  -50886   50895      16
   50889   50880  -50886   50898      16   50889   50886   50895   50910      17
   50889   50886  -50898   50913      12   50889   50901  -50913   50898       4
   50889   50901   50913   50928       4   50889   50901   50916   50931       4
   50886   50880   50883   50892      18   50886   50880  -50883   50895      18
   50886   50880  -50889   50901      19   50886   50889  -50901   50913      20
   50886   50889   50901   50916      20   50886   50895  -50883   50892       4
   50886   50895   50910   50919       4   50886   50898  -50913   50901      21
   50886   50898   50913   50928      21   50883   50880  -50886   50889      16
   50883   50880  -50886   50895      16   50883   50880   50886   50898      16
   50883   50880  -50889   50886      19   50883   50880   50889   50901      19
   50883   50892   50904   50919       4   50883   50892   50904   50922       4
   50883   50895  -50886   50889      17   50883   50895  -50886   50898      10
   50883   50895  -50910   50919       4   50880   50883   50892   50904       4
   50880   50883  -50895   50886       4   50880   50883   50895   50910       4
   50880   50886  -50889   50901       9   50880   50886  -50895   50883      10
   50880   50886  -50895   50910      10   50880   50886   50898   50913      12
   50880   50889  -50886   50895       9   50880   50889  -50886   50898       9
   50880   50889  -50901   50913      22   50880   50889   50901   50916      22
   51216   51234   51237   51249       3   51198   51216   51234   51237       3
   51177   51198   51216   51234       3   51174   51159   51171   51186       4
   51174   51192  -51207   51186       4   51171   51159   51174   51192       4
   51171   51186  -51207   51192       4   51162   51177   51198   51216       3
   51159   51171   51186   51207       4   51159   51174  -51192   51207       4
   51150   51162   51177   51198       3   51141   51159   51171   51186       4
   51141   51159   51174   51192       4   51132   51150   51162   51177       3
   51123   51141   51159   51171       5   51123   51141   51159   51174       5
   51120   51141   51159   51171       5   51120   51141   51159   51174       5
   51114   51132   51150   51162       3   51111   51096   51114   51132       6
   51108   51093   51105   51120       4   51108   51123  -51141   51120       4
   51108   51123   51141   51159       4   51105   51093   51108   51123       4
   51105   51120  -51141   51123       4   51105   51120   51141   51159       4
   51102   51111   51096   51114       4   51096   51114   51132   51150       8
   51093   51105   51120   51141       4   51093   51108  -51123   51141       4
   51090   51078  -51081   51093       9   51090   51078   51087   51102      10
   51090   51105   51093   51108       4   51090   51105   51120   51141       4
   51087   51075   51084   51096       4   51087   51078   51081   51093      11
   51087   51078   51090   51105      12   51087   51102  -51111   51096       4
   51084   51075   51087   51102       4   51084   51096  -51111   51102       4
   51084   51096   51114   51132       6   51081   51072   51075   51084      13
   51081   51072  -51075   51084      14   51081   51072  -51075   51084      15
   51081   51072  -51075   51087      13   51081   51072  -51075   51087      14
   51081   51072  -51075   51087      15   51081   51072  -51078   51087      16
   51081   51072  -51078   51090      16   51081   51078   51087   51102      17
   51081   51078  -51090   51105      12   51081   51093  -51105   51090       4
   51081   51093   51105   51120       4   51081   51093   51108   51123       4
   51078   51072   51075   51084      18   51078   51072  -51075   51087      18
   51078   51072  -51081   51093      19   51078   51081  -51093   51105      20
   51078   51081   51093   51108      20   51078   51087  -51075   51084       4
   51078   51087   51102   51111       4   51078   51090  -51105   51093      21
   51078   51090   51105   51120      21   51075   51072  -51078   51081      16
   51075   51072  -51078   51087      16   51075   51072   51078   51090      16
   51075   51072  -51081   51078      19   51075   51072   51081   51093      19
   51075   51084   51096   51111       4   51075   51084   51096   51114       4
   51075   51087  -51078   51081      17   51075   51087  -51078   51090      10
   51075   51087  -51102   51111       4   51072   51075   51084   51096       4
   51072   51075  -51087   51078       4   51072   51075   51087   51102       4
   51072   51078  -51081   51093       9   51072   51078  -51087   51075      10
   51072   51078  -51087   51102      10   51072   51078   51090   51105      12
   51072   51081  -51078   51087       9   51072   51081  -51078   51090       9
   51072   51081  -51093   51105      22   51072   51081   51093   51108      22
   51408   51426   51429   51441       3   51390   51408   51426   51429       3
   51369   51390   51408   51426       3   51366   51351   51363   51378       4
   51366   51384  -51399   51378       4   51363   51351   51366   51384       4
   51363   51378  -51399   51384       4   51354   51369   51390   51408       3
   51351   51363   51378   51399       4   51351   51366  -51384   51399       4
   51342   51354   51369   51390       3   51333   51351   51363   51378       4
   51333   51351   51366   51384       4   51324   51342   51354   51369       3
   51315   51333   51351   51363       5   51315   51333   51351   51366       5
   51312   51333   51351   51363       5   51312   51333   51351   51366       5
   51306   51324   51342   51354       3   51303   51288   51306   51324       6
   51300   51285   51297   51312       4   51300   51315  -51333   51312       4
   51300   51315   51333   51351       4   51297   51285   51300   51315       4
   51297   51312  -51333   51315       4   51297   51312   51333   51351       4
   51294   51303   51288   51306       4   51288   51306   51324   51342       8
   51285   51297   51312   51333       4   51285   51300  -51315   51333       4
   51282   51270  -51273   51285       9   51282   51270   51279   51294      10
   51282   51297   51285   51300       4   51282   51297   51312   51333       4
   51279   51267   51276   51288       4   51279   51270   51273   51285      11
   51279   51270   51282   51297      12   51279   51294  -51303   51288       4
   51276   51267   51279   51294       4   51276   51288  -51303   51294       4
   51276   51288   51306   51324       6   51273   51264   51267   51276      13
   51273   51264  -51267   51276      14   51273   51264  -51267   51276      15
   51273   51264  -51267   51279      13   51273   51264  -51267   51279      14
   51273   51264  -51267   51279      15   51273   51264  -51270   51279      16
   51273   51264  -51270   51282      16   51273   51270   51279   51294      17
   51273   51270  -51282   51297      12   51273   51285  -51297   51282       4
   51273   51285   51297   51312       4   51273   51285   51300   51315       4
   51270   51264   51267   51276      18   51270   51264  -51267   51279      18
   51270   51264  -51273   51285      19   51270   51273  -51285   51297      20
   51270   51273   51285   51300      20   51270   51279  -51267   51276       4
   51270   51279   51294   51303       4   51270   51282  -51297   51285      21
   51270   51282   51297   51312      21   51267   51264  -51270   51273      16
   51267   51264  -51270   51279      16   51267   51264   51270   51282      16
   51267   51264  -51273   51270      19   51267   51264   51273   51285      19
   51267   51276   51288   51303       4   51267   51276   51288   51306       4
   51267   51279  -51270   51273      17   51267   51279  -51270   51282      10
   51267   51279  -51294   51303       4   51264   51267   51276   51288       4
   51264   51267  -51279   51270       4   51264   51267   51279   51294       4
   51264   51270  -51273   51285       9   51264   51270  -51279   51267      10
   51264   51270  -51279   51294      10   51264   51270   51282   51297      12
   51264   51273  -51270   51279       9   51264   51273  -51270   51282       9
   51264   51273  -51285   51297      22   51264   51273   51285   51300      22
   51600   51618   51621   51633       3   51582   51600   51618   51621       3
   51561   51582   51600   51618       3   51558   51543   51555   51570       4
   51558   51576  -51591   51570       4   51555   51543   51558   51576       4
   51555   51570  -51591   51576       4   51546   51561   51582   51600       3
   51543   51555   51570   51591       4   51543   51558  -51576   51591       4
   51534   51546   51561   51582       3   51525   51543   51555   51570       4
   51525   51543   51558   51576       4   51516   51534   51546   51561       3
   51507   51525   51543   51555       5   51507   51525   51543   51558       5
   51504   51525   51543   51555       5   51504   51525   51543   51558       5
   51498   51516   51534   51546       3   51495   51480   51498   51516       6
   51492   51477   51489   51504       4   51492   51507  -51525   51504       4
   51492   51507   51525   51543       4   51489   51477   51492   51507       4
   51489   51504  -51525   51507       4   51489   51504   51525   51543       4
   51486   51495   51480   51498       4   51480   51498   51516   51534       8
   51477   51489   51504   51525       4   51477   51492  -51507   51525       4
   51474   51462  -51465   51477       9   51474   51462   51471   51486      10
   51474   51489   51477   51492       4   51474   51489   51504   51525       4
   51471   51459   51468   51480       4   51471   51462   51465   51477      11
   51471   51462   51474   51489      12   51471   51486  -51495   51480       4
   51468   51459   51471   51486       4   51468   51480  -51495   51486       4
   51468   51480   51498   51516       6   51465   51456   51459   51468      13
   51465   51456  -51459   51468      14   51465   51456  -51459   51468      15
   51465   51456  -51459   51471      13   51465   51456  -51459   51471      14
   51465   51456  -51459   51471      15   51465   51456  -51462   51471      16
   51465   51456  -51462   51474      16   51465   51462   51471   51486      17
   51465   51462  -51474   51489      12   51465   51477  -51489   51474       4
   51465   51477   51489   51504       4   51465   51477   51492   51507       4
   51462   51456   51459   51468      18   51462   51456  -51459   51471      18
   51462   51456  -51465   51477      19   51462   51465  -51477   51489      20
   51462   51465   51477   51492      20   51462   51471  -51459   51468       4
   51462   51471   51486   51495       4   51462   51474  -51489   51477      21
   51462   51474   51489   51504      21   51459   51456  -51462   51465      16
   51459   51456  -51462   51471      16   51459   51456   51462   51474      16
   51459   51456  -51465   51462      19   51459   51456   51465   51477      19
   51459   51468   51480   51495       4   51459   51468   51480   51498       4
   51459   51471  -51462   51465      17   51459   51471  -51462   51474      10
   51459   51471  -51486   51495       4   51456   51459   51468   51480       4
   51456   51459  -51471   51462       4   51456   51459   51471   51486       4
   51456   51462  -51465   51477       9   51456   51462  -51471   51459      10
   51456   51462  -51471   51486      10   51456   51462   51474   51489      12
   51456   51465  -51462   51471       9   51456   51465  -51462   51474       9
   51456   51465  -51477   51489      22   51456   51465   51477   51492      22
   51792   51810   51813   51825       3   51774   51792   51810   51813       3
   51753   51774   51792   51810       3   51750   51735   51747   51762       4
   51750   51768  -51783   51762       4   51747   51735   51750   51768       4
   51747   51762  -51783   51768       4   51738   51753   51774   51792       3
   51735   51747   51762   51783       4   51735   51750  -51768   51783       4
   51726   51738   51753   51774       3   51717   51735   51747   51762       4
   51717   51735   51750   51768       4   51708   51726   51738   51753       3
   51699   51717   51735   51747       5   51699   51717   51735   51750       5
   51696   51717   51735   51747       5   51696   51717   51735   51750       5
   51690   51708   51726   51738       3   51687   51672   51690   51708       6
   51684   51669   51681   51696       4   51684   51699  -51717   51696       4
   51684   51699   51717   51735       4   51681   51669   51684   51699       4
   51681   51696  -51717   51699       4   51681   51696   51717   51735       4
   51678   51687   51672   51690       4   51672   51690   51708   51726       8
   51669   51681   51696   51717       4   51669   51684  -51699   51717       4
   51666   51654  -51657   51669       9   51666   51654   51663   51678      10
   51666   51681   51669   51684       4   51666   51681   51696   51717       4
   51663   51651   51660   51672       4   51663   51654   51657   51669      11
   51663   51654   51666   51681      12   51663   51678  -51687   51672       4
   51660   51651   51663   51678       4   51660   51672  -51687   51678       4
   51660   51672   51690   51708       6   51657   51648   51651   51660      13
   51657   51648  -51651   51660      14   51657   51648  -51651   51660      15
   51657   51648  -51651   51663      13   51657   51648  -51651   51663      14
   51657   51648  -51651   51663      15   51657   51648  -51654   51663      16
   51657   51648  -51654   51666      16   51657   51654   51663   51678      17
   51657   51654  -51666   51681      12   51657   51669  -51681   51666       4
   51657   51669   51681   51696       4   51657   51669   51684   51699       4
   51654   51648   51651   51660      18   51654   51648  -51651   51663      18
   51654   51648  -51657   51669      19   51654   51657  -51669   51681      20
   51654   51657   51669   51684      20   51654   51663  -51651   51660       4
   51654   51663   51678   51687       4   51654   51666  -51681   51669      21
   51654   51666   51681   51696      21   51651   51648  -51654   51657      16
   51651   51648  -51654   51663      16   51651   51648   51654   51666      16
   51651   51648  -51657   51654      19   51651   51648   51657   51669      19
   51651   51660   51672   51687       4   51651   51660   51672   51690       4
   51651   51663  -51654   51657      17   51651   51663  -51654   51666      10
   51651   51663  -51678   51687       4   51648   51651   51660   51672       4
   51648   51651  -51663   51654       4   51648   51651   51663   51678       4
   51648   51654  -51657   51669       9   51648   51654  -51663   51651      10
   51648   51654  -51663   51678      10   51648   51654   51666   51681      12
   51648   51657  -51654   51663       9   51648   51657  -51654   51666       9
   51648   51657  -51669   51681      22   51648   51657   51669   51684      22
   51984   52002   52005   52017       3   51966   51984   52002   52005       3
   51945   51966   51984   52002       3   51942   51927   51939   51954       4
   51942   51960  -51975   51954       4   51939   51927   51942   51960       4
   51939   51954  -51975   51960       4   51930   51945   51966   51984       3
   51927   51939   51954   51975       4   51927   51942  -51960   51975       4
   51918   51930   51945   51966       3   51909   51927   51939   51954       4
   51909   51927   51942   51960       4   51900   51918   51930   51945       3
   51891   51909   51927   51939       5   51891   51909   51927   51942       5
   51888   51909   51927   51939       5   51888   51909   51927   51942       5
   51882   51900   51918   51930       3   51879   51864   51882   51900       6
   51876   51861   51873   51888       4   51876   51891  -51909   51888       4
   51876   51891   51909   51927       4   51873   51861   51876   51891       4
   51873   51888  -51909   51891       4   51873   51888   51909   51927       4
   51870   51879   51864   51882       4   51864   51882   51900   51918       8
   51861   51873   51888   51909       4   51861   51876  -51891   51909       4
   51858   51846  -51849   51861       9   51858   51846   51855   51870      10
   51858   51873   51861   51876       4   51858   51873   51888   51909       4
   51855   51843   51852   51864       4   51855   51846   51849   51861      11
   51855   51846   51858   51873      12   51855   51870  -51879   51864       4
   51852   51843   51855   51870       4   51852   51864  -51879   51870       4
   51852   51864   51882   51900       6   51849   51840   51843   51852      13
   51849   51840  -51843   51852      14   51849   51840  -51843   51852      15
   51849   51840  -51843   51855      13   51849   51840  -51843   51855      14
   51849   51840  -51843   51855      15   51849   51840  -51846   51855      16
   51849   51840  -51846   51858      16   51849   51846   51855   51870      17
   51849   51846  -51858   51873      12   51849   51861  -51873   51858       4
   51849   51861   51873   51888       4   51849   51861   51876   51891       4
   51846   51840   51843   51852      18   51846   51840  -51843   51855      18
   51846   51840  -51849   51861      19   51846   51849  -51861   51873      20
   51846   51849   51861   51876      20   51846   51855  -51843   51852       4
   51846   51855   51870   51879       4   51846   51858  -51873   51861      21
   51846   51858   51873   51888      21   51843   51840  -51846   51849      16
   51843   51840  -51846   51855      16   51843   51840   51846   51858      16
   51843   51840  -51849   51846      19   51843   51840   51849   51861      19
   51843   51852   51864   51879       4   51843   51852   51864   51882       4
   51843   51855  -51846   51849      17   51843   51855  -51846   51858      10
   51843   51855  -51870   51879       4   51840   51843   51852   51864       4
   51840   51843  -51855   51846       4   51840   51843   51855   51870       4
   51840   51846  -51849   51861       9   51840   51846  -51855   51843      10
   51840   51846  -51855   51870      10   51840   51846   51858   51873      12
   51840   51849  -51846   51855       9   51840   51849  -51846   51858       9
   51840   51849  -51861   51873      22   51840   51849   51861   51876      22
   52176   52194   52197   52209       3   52158   52176   52194   52197       3
   52137   52158   52176   52194       3   52134   52119   52131   52146       4
   52134   52152  -52167   52146       4   52131   52119   52134   52152       4
   52131   52146  -52167   52152       4   52122   52137   52158   52176       3
   52119   52131   52146   52167       4   52119   52134  -52152   52167       4
   52110   52122   52137   52158       3   52101   52119   52131   52146       4
   52101   52119   52134   52152       4   52092   52110   52122   52137       3
   52083   52101   52119   52131       5   52083   52101   52119   52134       5
   52080   52101   52119   52131       5   52080   52101   52119   52134       5
   52074   52092   52110   52122       3   52071   52056   52074   52092       6
   52068   52053   52065   52080       4   52068   52083  -52101   52080       4
   52068   52083   52101   52119       4   52065   52053   52068   52083       4
   52065   52080  -52101   52083       4   52065   52080   52101   52119       4
   52062   52071   52056   52074       4   52056   52074   52092   52110       8
   52053   52065   52080   52101       4   52053   52068  -52083   52101       4
   52050   52038  -52041   52053       9   52050   52038   52047   52062      10
   52050   52065   52053   52068       4   52050   52065   52080   52101       4
   52047   52035   52044   52056       4   52047   52038   52041   52053      11
   52047   52038   52050   52065      12   52047   52062  -52071   52056       4
   52044   52035   52047   52062       4   52044   52056  -52071   52062       4
   52044   52056   52074   52092       6   52041   52032   52035   52044      13
   52041   52032  -52035   52044      14   52041   52032  -52035   52044      15
   52041   52032  -52035   52047      13   52041   52032  -52035   52047      14
   52041   52032  -52035   52047      15   52041   52032  -52038   52047      16
   52041   52032  -52038   52050      16   52041   52038   52047   52062      17
   52041   52038  -52050   52065      12   52041   52053  -52065   52050       4
   52041   52053   52065   52080       4   52041   52053   52068   52083       4
   52038   52032   52035   52044      18   52038   52032  -52035   52047      18
   52038   52032  -52041   52053      19   52038   52041  -52053   52065      20
   52038   52041   52053   52068      20   52038   52047  -52035   52044       4
   52038   52047   52062   52071       4   52038   52050  -52065   52053      21
   52038   52050   52065   52080      21   52035   52032  -52038   52041      16
   52035   52032  -52038   52047      16   52035   52032   52038   52050      16
   52035   52032  -52041   52038      19   52035   52032   52041   52053      19
   52035   52044   52056   52071       4   52035   52044   52056   52074       4
   52035   52047  -52038   52041      17   52035   52047  -52038   52050      10
   52035   52047  -52062   52071       4   52032   52035   52044   52056       4
   52032   52035  -52047   52038       4   52032   52035   52047   52062       4
   52032   52038  -52041   52053       9   52032   52038  -52047   52035      10
   52032   52038  -52047   52062      10   52032   52038   52050   52065      12
   52032   52041  -52038   52047       9   52032   52041  -52038   52050       9
   52032   52041  -52053   52065      22   52032   52041   52053   52068      22
   52368   52386   52389   52401       3   52350   52368   52386   52389       3
   52329   52350   52368   52386       3   52326   52311   52323   52338       4
   52326   52344  -52359   52338       4   52323   52311   52326   52344       4
   52323   52338  -52359   52344       4   52314   52329   52350   52368       3
   52311   52323   52338   52359       4   52311   52326  -52344   52359       4
   52302   52314   52329   52350       3   52293   52311   52323   52338       4
   52293   52311   52326   52344       4   52284   52302   52314   52329       3
   52275   52293   52311   52323       5   52275   52293   52311   52326       5
   52272   52293   52311   52323       5   52272   52293   52311   52326       5
   52266   52284   52302   52314       3   52263   52248   52266   52284       6
   52260   52245   52257   52272       4   52260   52275  -52293   52272       4
   52260   52275   52293   52311       4   52257   52245   52260   52275       4
   52257   52272  -52293   52275       4   52257   52272   52293   52311       4
   52254   52263   52248   52266       4   52248   52266   52284   52302       8
   52245   52257   52272   52293       4   52245   52260  -52275   52293       4
   52242   52230  -52233   52245       9   52242   52230   52239   52254      10
   52242   52257   52245   52260       4   52242   52257   52272   52293       4
   52239   52227   52236   52248       4   52239   52230   52233   52245      11
   52239   52230   52242   52257      12   52239   52254  -52263   52248       4
   52236   52227   52239   52254       4   52236   52248  -52263   52254       4
   52236   52248   52266   52284       6   52233   52224   52227   52236      13
   52233   52224  -52227   52236      14   52233   52224  -52227   52236      15
   52233   52224  -52227   52239      13   52233   52224  -52227   52239      14
   52233   52224  -52227   52239      15   52233   52224  -52230   52239      16
   52233   52224  -52230   52242      16   52233   52230   52239   52254      17
   52233   52230  -52242   52257      12   52233   52245  -52257   52242       4
   52233   52245   52257   52272       4   52233   52245   52260   52275       4
   52230   52224   52227   52236      18   52230   52224  -52227   52239      18
   52230   52224  -52233   52245      19   52230   52233  -52245   52257      20
   52230   52233   52245   52260      20   52230   52239  -52227   52236       4
   52230   52239   52254   52263       4   52230   52242  -52257   52245      21
   52230   52242   52257   52272      21   52227   52224  -52230   52233      16
   52227   52224  -52230   52239      16   52227   52224   52230   52242      16
   52227   52224  -52233   52230      19   52227   52224   52233   52245      19
   52227   52236   52248   52263       4   52227   52236   52248   52266       4
   52227   52239  -52230   52233      17   52227   52239  -52230   52242      10
   52227   52239  -52254   52263       4   52224   52227   52236   52248       4
   52224   52227  -52239   52230       4   52224   52227   52239   52254       4
   52224   52230  -52233   52245       9   52224   52230  -52239   52227      10
   52224   52230  -52239   52254      10   52224   52230   52242   52257      12
   52224   52233  -52230   52239       9   52224   52233  -52230   52242       9
   52224   52233  -52245   52257      22   52224   52233   52245   52260      22
   52560   52578   52581   52593       3   52542   52560   52578   52581       3
   52521   52542   52560   52578       3   52518   52503   52515   52530       4
   52518   52536  -52551   52530       4   52515   52503   52518   52536       4
   52515   52530  -52551   52536       4   52506   52521   52542   52560       3
   52503   52515   52530   52551       4   52503   52518  -52536   52551       4
   52494   52506   52521   52542       3   52485   52503   52515   52530       4
   52485   52503   52518   52536       4   52476   52494   52506   52521       3
   52467   52485   52503   52515       5   52467   52485   52503   52518       5
   52464   52485   52503   52515       5   52464   52485   52503   52518       5
   52458   52476   52494   52506       3   52455   52440   52458   52476       6
   52452   52437   52449   52464       4   52452   52467  -52485   52464       4
   52452   52467   52485   52503       4   52449   52437   52452   52467       4
   52449   52464  -52485   52467       4   52449   52464   52485   52503       4
   52446   52455   52440   52458       4   52440   52458   52476   52494       8
   52437   52449   52464   52485       4   52437   52452  -52467   52485       4
   52434   52422  -52425   52437       9   52434   52422   52431   52446      10
   52434   52449   52437   52452       4   52434   52449   52464   52485       4
   52431   52419   52428   52440       4   52431   52422   52425   52437      11
   52431   52422   52434   52449      12   52431   52446  -52455   52440       4
   52428   52419   52431   52446       4   52428   52440  -52455   52446       4
   52428   52440   52458   52476       6   52425   52416   52419   52428      13
   52425   52416  -52419   52428      14   52425   52416  -52419   52428      15
   52425   52416  -52419   52431      13   52425   52416  -52419   52431      14
   52425   52416  -52419   52431      15   52425   52416  -52422   52431      16
   52425   52416  -52422   52434      16   52425   52422   52431   52446      17
   52425   52422  -52434   52449      12   52425   52437  -52449   52434       4
   52425   52437   52449   52464       4   52425   52437   52452   52467       4
   52422   52416   52419   52428      18   52422   52416  -52419   52431      18
   52422   52416  -52425   52437      19   52422   52425  -52437   52449      20
   52422   52425   52437   52452      20   52422   52431  -52419   52428       4
   52422   52431   52446   52455       4   52422   52434  -52449   52437      21
   52422   52434   52449   52464      21   52419   52416  -52422   52425      16
   52419   52416  -52422   52431      16   52419   52416   52422   52434      16
   52419   52416  -52425   52422      19   52419   52416   52425   52437      19
   52419   52428   52440   52455       4   52419   52428   52440   52458       4
   52419   52431  -52422   52425      17   52419   52431  -52422   52434      10
   52419   52431  -52446   52455       4   52416   52419   52428   52440       4
   52416   52419  -52431   52422       4   52416   52419   52431   52446       4
   52416   52422  -52425   52437       9   52416   52422  -52431   52419      10
   52416   52422  -52431   52446      10   52416   52422   52434   52449      12
   52416   52425  -52422   52431       9   52416   52425  -52422   52434       9
   52416   52425  -52437   52449      22   52416   52425   52437   52452      22
   52752   52770   52773   52785       3   52734   52752   52770   52773       3
   52713   52734   52752   52770       3   52710   52695   52707   52722       4
   52710   52728  -52743   52722       4   52707   52695   52710   52728       4
   52707   52722  -52743   52728       4   52698   52713   52734   52752       3
   52695   52707   52722   52743       4   52695   52710  -52728   52743       4
   52686   52698   52713   52734       3   52677   52695   52707   52722       4
   52677   52695   52710   52728       4   52668   52686   52698   52713       3
   52659   52677   52695   52707       5   52659   52677   52695   52710       5
   52656   52677   52695   52707       5   52656   52677   52695   52710       5
   52650   52668   52686   52698       3   52647   52632   52650   52668       6
   52644   52629   52641   52656       4   52644   52659  -52677   52656       4
   52644   52659   52677   52695       4   52641   52629   52644   52659       4
   52641   52656  -52677   52659       4   52641   52656   52677   52695       4
   52638   52647   52632   52650       4   52632   52650   52668   52686       8
   52629   52641   52656   52677       4   52629   52644  -52659   52677       4
   52626   52614  -52617   52629       9   52626   52614   52623   52638      10
   52626   52641   52629   52644       4   52626   52641   52656   52677       4
   52623   52611   52620   52632       4   52623   52614   52617   52629      11
   52623   52614   52626   52641      12   52623   52638  -52647   52632       4
   52620   52611   52623   52638       4   52620   52632  -52647   52638       4
   52620   52632   52650   52668       6   52617   52608   52611   52620      13
   52617   52608  -52611   52620      14   52617   52608  -52611   52620      15
   52617   52608  -52611   52623      13   52617   52608  -52611   52623      14
   52617   52608  -52611   52623      15   52617   52608  -52614   52623      16
   52617   52608  -52614   52626      16   52617   52614   52623   52638      17
   52617   52614  -52626   52641      12   52617   52629  -52641   52626       4
   52617   52629   52641   52656       4   52617   52629   52644   52659       4
   52614   52608   52611   52620      18   52614   52608  -52611   52623      18
   52614   52608  -52617   52629      19   52614   52617  -52629   52641      20
   52614   52617   52629   52644      20   52614   52623  -52611   52620       4
   52614   52623   52638   52647       4   52614   52626  -52641   52629      21
   52614   52626   52641   52656      21   52611   52608  -52614   52617      16
   52611   52608  -52614   52623      16   52611   52608   52614   52626      16
   52611   52608  -52617   52614      19   52611   52608   52617   52629      19
   52611   52620   52632   52647       4   52611   52620   52632   52650       4
   52611   52623  -52614   52617      17   52611   52623  -52614   52626      10
   52611   52623  -52638   52647       4   52608   52611   52620   52632       4
   52608   52611  -52623   52614       4   52608   52611   52623   52638       4
   52608   52614  -52617   52629       9   52608   52614  -52623   52611      10
   52608   52614  -52623   52638      10   52608   52614   52626   52641      12
   52608   52617  -52614   52623       9   52608   52617  -52614   52626       9
   52608   52617  -52629   52641      22   52608   52617   52629   52644      22
   52944   52962   52965   52977       3   52926   52944   52962   52965       3
   52905   52926   52944   52962       3   52902   52887   52899   52914       4
   52902   52920  -52935   52914       4   52899   52887   52902   52920       4
   52899   52914  -52935   52920       4   52890   52905   52926   52944       3
   52887   52899   52914   52935       4   52887   52902  -52920   52935       4
   52878   52890   52905   52926       3   52869   52887   52899   52914       4
   52869   52887   52902   52920       4   52860   52878   52890   52905       3
   52851   52869   52887   52899       5   52851   52869   52887   52902       5
   52848   52869   52887   52899       5   52848   52869   52887   52902       5
   52842   52860   52878   52890       3   52839   52824   52842   52860       6
   52836   52821   52833   52848       4   52836   52851  -52869   52848       4
   52836   52851   52869   52887       4   52833   52821   52836   52851       4
   52833   52848  -52869   52851       4   52833   52848   52869   52887       4
   52830   52839   52824   52842       4   52824   52842   52860   52878       8
   52821   52833   52848   52869       4   52821   52836  -52851   52869       4
   52818   52806  -52809   52821       9   52818   52806   52815   52830      10
   52818   52833   52821   52836       4   52818   52833   52848   52869       4
   52815   52803   52812   52824       4   52815   52806   52809   52821      11
   52815   52806   52818   52833      12   52815   52830  -52839   52824       4
   52812   52803   52815   52830       4   52812   52824  -52839   52830       4
   52812   52824   52842   52860       6   52809   52800   52803   52812      13
   52809   52800  -52803   52812      14   52809   52800  -52803   52812      15
   52809   52800  -52803   52815      13   52809   52800  -52803   52815      14
   52809   52800  -52803   52815      15   52809   52800  -52806   52815      16
   52809   52800  -52806   52818      16   52809   52806   52815   52830      17
   52809   52806  -52818   52833      12   52809   52821  -52833   52818       4
   52809   52821   52833   52848       4   52809   52821   52836   52851       4
   52806   52800   52803   52812      18   52806   52800  -52803   52815      18
   52806   52800  -52809   52821      19   52806   52809  -52821   52833      20
   52806   52809   52821   52836      20   52806   52815  -52803   52812       4
   52806   52815   52830   52839       4   52806   52818  -52833   52821      21
   52806   52818   52833   52848      21   52803   52800  -52806   52809      16
   52803   52800  -52806   52815      16   52803   52800   52806   52818      16
   52803   52800  -52809   52806      19   52803   52800   52809   52821      19
   52803   52812   52824   52839       4   52803   52812   52824   52842       4
   52803   52815  -52806   52809      17   52803   52815  -52806   52818      10
   52803   52815  -52830   52839       4   52800   52803   52812   52824       4
   52800   52803  -52815   52806       4   52800   52803   52815   52830       4
   52800   52806  -52809   52821       9   52800   52806  -52815   52803      10
   52800   52806  -52815   52830      10   52800   52806   52818   52833      12
   52800   52809  -52806   52815       9   52800   52809  -52806   52818       9
   52800   52809  -52821   52833      22   52800   52809   52821   52836      22
   53136   53154   53157   53169       3   53118   53136   53154   53157       3
   53097   53118   53136   53154       3   53094   53079   53091   53106       4
   53094   53112  -53127   53106       4   53091   53079   53094   53112       4
   53091   53106  -53127   53112       4   53082   53097   53118   53136       3
   53079   53091   53106   53127       4   53079   53094  -53112   53127       4
   53070   53082   53097   53118       3   53061   53079   53091   53106       4
   53061   53079   53094   53112       4   53052   53070   53082   53097       3
   53043   53061   53079   53091       5   53043   53061   53079   53094       5
   53040   53061   53079   53091       5   53040   53061   53079   53094       5
   53034   53052   53070   53082       3   53031   53016   53034   53052       6
   53028   53013   53025   53040       4   53028   53043  -53061   53040       4
   53028   53043   53061   53079       4   53025   53013   53028   53043       4
   53025   53040  -53061   53043       4   53025   53040   53061   53079       4
   53022   53031   53016   53034       4   53016   53034   53052   53070       8
   53013   53025   53040   53061       4   53013   53028  -53043   53061       4
   53010   52998  -53001   53013       9   53010   52998   53007   53022      10
   53010   53025   53013   53028       4   53010   53025   53040   53061       4
   53007   52995   53004   53016       4   53007   52998   53001   53013      11
   53007   52998   53010   53025      12   53007   53022  -53031   53016       4
   53004   52995   53007   53022       4   53004   53016  -53031   53022       4
   53004   53016   53034   53052       6   53001   52992   52995   53004      13
   53001   52992  -52995   53004      14   53001   52992  -52995   53004      15
   53001   52992  -52995   53007      13   53001   52992  -52995   53007      14
   53001   52992  -52995   53007      15   53001   52992  -52998   53007      16
   53001   52992  -52998   53010      16   53001   52998   53007   53022      17
   53001   52998  -53010   53025      12   53001   53013  -53025   53010       4
   53001   53013   53025   53040       4   53001   53013   53028   53043       4
   52998   52992   52995   53004      18   52998   52992  -52995   53007      18
   52998   52992  -53001   53013      19   52998   53001  -53013   53025      20
   52998   53001   53013   53028      20   52998   53007  -52995   53004       4
   52998   53007   53022   53031       4   52998   53010  -53025   53013      21
   52998   53010   53025   53040      21   52995   52992  -52998   53001      16
   52995   52992  -52998   53007      16   52995   52992   52998   53010      16
   52995   52992  -53001   52998      19   52995   52992   53001   53013      19
   52995   53004   53016   53031       4   52995   53004   53016   53034       4
   52995   53007  -52998   53001      17   52995   53007  -52998   53010      10
   52995   53007  -53022   53031       4   52992   52995   53004   53016       4
   52992   52995  -53007   52998       4   52992   52995   53007   53022       4
   52992   52998  -53001   53013       9   52992   52998  -53007   52995      10
   52992   52998  -53007   53022      10   52992   52998   53010   53025      12
   52992   53001  -52998   53007       9   52992   53001  -52998   53010       9
   52992   53001  -53013   53025      22   52992   53001   53013   53028      22
   53328   53346   53349   53361       3   53310   53328   53346   53349       3
   53289   53310   53328   53346       3   53286   53271   53283   53298       4
   53286   53304  -53319   53298       4   53283   53271   53286   53304       4
   53283   53298  -53319   53304       4   53274   53289   53310   53328       3
   53271   53283   53298   53319       4   53271   53286  -53304   53319       4
   53262   53274   53289   53310       3   53253   53271   53283   53298       4
   53253   53271   53286   53304       4   53244   53262   53274   53289       3
   53235   53253   53271   53283       5   53235   53253   53271   53286       5
   53232   53253   53271   53283       5   53232   53253   53271   53286       5
   53226   53244   53262   53274       3   53223   53208   53226   53244       6
   53220   53205   53217   53232       4   53220   53235  -53253   53232       4
   53220   53235   53253   53271       4   53217   53205   53220   53235       4
   53217   53232  -53253   53235       4   53217   53232   53253   53271       4
   53214   53223   53208   53226       4   53208   53226   53244   53262       8
   53205   53217   53232   53253       4   53205   53220  -53235   53253       4
   53202   53190  -53193   53205       9   53202   53190   53199   53214      10
   53202   53217   53205   53220       4   53202   53217   53232   53253       4
   53199   53187   53196   53208       4   53199   53190   53193   53205      11
   53199   53190   53202   53217      12   53199   53214  -53223   53208       4
   53196   53187   53199   53214       4   53196   53208  -53223   53214       4
   53196   53208   53226   53244       6   53193   53184   53187   53196      13
   53193   53184  -53187   53196      14   53193   53184  -53187   53196      15
   53193   53184  -53187   53199      13   53193   53184  -53187   53199      14
   53193   53184  -53187   53199      15   53193   53184  -53190   53199      16
   53193   53184  -53190   53202      16   53193   53190   53199   53214      17
   53193   53190  -53202   53217      12   53193   53205  -53217   53202       4
   53193   53205   53217   53232       4   53193   53205   53220   53235       4
   53190   53184   53187   53196      18   53190   53184  -53187   53199      18
   53190   53184  -53193   53205      19   53190   53193  -53205   53217      20
   53190   53193   53205   53220      20   53190   53199  -53187   53196       4
   53190   53199   53214   53223       4   53190   53202  -53217   53205      21
   53190   53202   53217   53232      21   53187   53184  -53190   53193      16
   53187   53184  -53190   53199      16   53187   53184   53190   53202      16
   53187   53184  -53193   53190      19   53187   53184   53193   53205      19
   53187   53196   53208   53223       4   53187   53196   53208   53226       4
   53187   53199  -53190   53193      17   53187   53199  -53190   53202      10
   53187   53199  -53214   53223       4   53184   53187   53196   53208       4
   53184   53187  -53199   53190       4   53184   53187   53199   53214       4
   53184   53190  -53193   53205       9   53184   53190  -53199   53187      10
   53184   53190  -53199   53214      10   53184   53190   53202   53217      12
   53184   53193  -53190   53199       9   53184   53193  -53190   53202       9
   53184   53193  -53205   53217      22   53184   53193   53205   53220      22
   53520   53538   53541   53553       3   53502   53520   53538   53541       3
   53481   53502   53520   53538       3   53478   53463   53475   53490       4
   53478   53496  -53511   53490       4   53475   53463   53478   53496       4
   53475   53490  -53511   53496       4   53466   53481   53502   53520       3
   53463   53475   53490   53511       4   53463   53478  -53496   53511       4
   53454   53466   53481   53502       3   53445   53463   53475   53490       4
   53445   53463   53478   53496       4   53436   53454   53466   53481       3
   53427   53445   53463   53475       5   53427   53445   53463   53478       5
   53424   53445   53463   53475       5   53424   53445   53463   53478       5
   53418   53436   53454   53466       3   53415   53400   53418   53436       6
   53412   53397   53409   53424       4   53412   53427  -53445   53424       4
   53412   53427   53445   53463       4   53409   53397   53412   53427       4
   53409   53424  -53445   53427       4   53409   53424   53445   53463       4
   53406   53415   53400   53418       4   53400   53418   53436   53454       8
   53397   53409   53424   53445       4   53397   53412  -53427   53445       4
   53394   53382  -53385   53397       9   53394   53382   53391   53406      10
   53394   53409   53397   53412       4   53394   53409   53424   53445       4
   53391   53379   53388   53400       4   53391   53382   53385   53397      11
   53391   53382   53394   53409      12   53391   53406  -53415   53400       4
   53388   53379   53391   53406       4   53388   53400  -53415   53406       4
   53388   53400   53418   53436       6   53385   53376   53379   53388      13
   53385   53376  -53379   53388      14   53385   53376  -53379   53388      15
   53385   53376  -53379   53391      13   53385   53376  -53379   53391      14
   53385   53376  -53379   53391      15   53385   53376  -53382   53391      16
   53385   53376  -53382   53394      16   53385   53382   53391   53406      17
   53385   53382  -53394   53409      12   53385   53397  -53409   53394       4
   53385   53397   53409   53424       4   53385   53397   53412   53427       4
   53382   53376   53379   53388      18   53382   53376  -53379   53391      18
   53382   53376  -53385   53397      19   53382   53385  -53397   53409      20
   53382   53385   53397   53412      20   53382   53391  -53379   53388       4
   53382   53391   53406   53415       4   53382   53394  -53409   53397      21
   53382   53394   53409   53424      21   53379   53376  -53382   53385      16
   53379   53376  -53382   53391      16   53379   53376   53382   53394      16
   53379   53376  -53385   53382      19   53379   53376   53385   53397      19
   53379   53388   53400   53415       4   53379   53388   53400   53418       4
   53379   53391  -53382   53385      17   53379   53391  -53382   53394      10
   53379   53391  -53406   53415       4   53376   53379   53388   53400       4
   53376   53379  -53391   53382       4   53376   53379   53391   53406       4
   53376   53382  -53385   53397       9   53376   53382  -53391   53379      10
   53376   53382  -53391   53406      10   53376   53382   53394   53409      12
   53376   53385  -53382   53391       9   53376   53385  -53382   53394       9
   53376   53385  -53397   53409      22   53376   53385   53397   53412      22
   53712   53730   53733   53745       3   53694   53712   53730   53733       3
   53673   53694   53712   53730       3   53670   53655   53667   53682       4
   53670   53688  -53703   53682       4   53667   53655   53670   53688       4
   53667   53682  -53703   53688       4   53658   53673   53694   53712       3
   53655   53667   53682   53703       4   53655   53670  -53688   53703       4
   53646   53658   53673   53694       3   53637   53655   53667   53682       4
   53637   53655   53670   53688       4   53628   53646   53658   53673       3
   53619   53637   53655   53667       5   53619   53637   53655   53670       5
   53616   53637   53655   53667       5   53616   53637   53655   53670       5
   53610   53628   53646   53658       3   53607   53592   53610   53628       6
   53604   53589   53601   53616       4   53604   53619  -53637   53616       4
   53604   53619   53637   53655       4   53601   53589   53604   53619       4
   53601   53616  -53637   53619       4   53601   53616   53637   53655       4
   53598   53607   53592   53610       4   53592   53610   53628   53646       8
   53589   53601   53616   53637       4   53589   53604  -53619   53637       4
   53586   53574  -53577   53589       9   53586   53574   53583   53598      10
   53586   53601   53589   53604       4   53586   53601   53616   53637       4
   53583   53571   53580   53592       4   53583   53574   53577   53589      11
   53583   53574   53586   53601      12   53583   53598  -53607   53592       4
   53580   53571   53583   53598       4   53580   53592  -53607   53598       4
   53580   53592   53610   53628       6   53577   53568   53571   53580      13
   53577   53568  -53571   53580      14   53577   53568  -53571   53580      15
   53577   53568  -53571   53583      13   53577   53568  -53571   53583      14
   53577   53568  -53571   53583      15   53577   53568  -53574   53583      16
   53577   53568  -53574   53586      16   53577   53574   53583   53598      17
   53577   53574  -53586   53601      12   53577   53589  -53601   53586       4
   53577   53589   53601   53616       4   53577   53589   53604   53619       4
   53574   53568   53571   53580      18   53574   53568  -53571   53583      18
   53574   53568  -53577   53589      19   53574   53577  -53589   53601      20
   53574   53577   53589   53604      20   53574   53583  -53571   53580       4
   53574   53583   53598   53607       4   53574   53586  -53601   53589      21
   53574   53586   53601   53616      21   53571   53568  -53574   53577      16
   53571   53568  -53574   53583      16   53571   53568   53574   53586      16
   53571   53568  -53577   53574      19   53571   53568   53577   53589      19
   53571   53580   53592   53607       4   53571   53580   53592   53610       4
   53571   53583  -53574   53577      17   53571   53583  -53574   53586      10
   53571   53583  -53598   53607       4   53568   53571   53580   53592       4
   53568   53571  -53583   53574       4   53568   53571   53583   53598       4
   53568   53574  -53577   53589       9   53568   53574  -53583   53571      10
   53568   53574  -53583   53598      10   53568   53574   53586   53601      12
   53568   53577  -53574   53583       9   53568   53577  -53574   53586       9
   53568   53577  -53589   53601      22   53568   53577   53589   53604      22
   53904   53922   53925   53937       3   53886   53904   53922   53925       3
   53865   53886   53904   53922       3   53862   53847   53859   53874       4
   53862   53880  -53895   53874       4   53859   53847   53862   53880       4
   53859   53874  -53895   53880       4   53850   53865   53886   53904       3
   53847   53859   53874   53895       4   53847   53862  -53880   53895       4
   53838   53850   53865   53886       3   53829   53847   53859   53874       4
   53829   53847   53862   53880       4   53820   53838   53850   53865       3
   53811   53829   53847   53859       5   53811   53829   53847   53862       5
   53808   53829   53847   53859       5   53808   53829   53847   53862       5
   53802   53820   53838   53850       3   53799   53784   53802   53820       6
   53796   53781   53793   53808       4   53796   53811  -53829   53808       4
   53796   53811   53829   53847       4   53793   53781   53796   53811       4
   53793   53808  -53829   53811       4   53793   53808   53829   53847       4
   53790   53799   53784   53802       4   53784   53802   53820   53838       8
   53781   53793   53808   53829       4   53781   53796  -53811   53829       4
   53778   53766  -53769   53781       9   53778   53766   53775   53790      10
   53778   53793   53781   53796       4   53778   53793   53808   53829       4
   53775   53763   53772   53784       4   53775   53766   53769   53781      11
   53775   53766   53778   53793      12   53775   53790  -53799   53784       4
   53772   53763   53775   53790       4   53772   53784  -53799   53790       4
   53772   53784   53802   53820       6   53769   53760   53763   53772      13
   53769   53760  -53763   53772      14   53769   53760  -53763   53772      15
   53769   53760  -53763   53775      13   53769   53760  -53763   53775      14
   53769   53760  -53763   53775      15   53769   53760  -53766   53775      16
   53769   53760  -53766   53778      16   53769   53766   53775   53790      17
   53769   53766  -53778   53793      12   53769   53781  -53793   53778       4
   53769   53781   53793   53808       4   53769   53781   53796   53811       4
   53766   53760   53763   53772      18   53766   53760  -53763   53775      18
   53766   53760  -53769   53781      19   53766   53769  -53781   53793      20
   53766   53769   53781   53796      20   53766   53775  -53763   53772       4
   53766   53775   53790   53799       4   53766   53778  -53793   53781      21
   53766   53778   53793   53808      21   53763   53760  -53766   53769      16
   53763   53760  -53766   53775      16   53763   53760   53766   53778      16
   53763   53760  -53769   53766      19   53763   53760   53769   53781      19
   53763   53772   53784   53799       4   53763   53772   53784   53802       4
   53763   53775  -53766   53769      17   53763   53775  -53766   53778      10
   53763   53775  -53790   53799       4   53760   53763   53772   53784       4
   53760   53763  -53775   53766       4   53760   53763   53775   53790       4
   53760   53766  -53769   53781       9   53760   53766  -53775   53763      10
   53760   53766  -53775   53790      10   53760   53766   53778   53793      12
   53760   53769  -53766   53775       9   53760   53769  -53766   53778       9
   53760   53769  -53781   53793      22   53760   53769   53781   53796      22
   54096   54114   54117   54129       3   54078   54096   54114   54117       3
   54057   54078   54096   54114       3   54054   54039   54051   54066       4
   54054   54072  -54087   54066       4   54051   54039   54054   54072       4
   54051   54066  -54087   54072       4   54042   54057   54078   54096       3
   54039   54051   54066   54087       4   54039   54054  -54072   54087       4
   54030   54042   54057   54078       3   54021   54039   54051   54066       4
   54021   54039   54054   54072       4   54012   54030   54042   54057       3
   54003   54021   54039   54051       5   54003   54021   54039   54054       5
   54000   54021   54039   54051       5   54000   54021   54039   54054       5
   53994   54012   54030   54042       3   53991   53976   53994   54012       6
   53988   53973   53985   54000       4   53988   54003  -54021   54000       4
   53988   54003   54021   54039       4   53985   53973   53988   54003       4
   53985   54000  -54021   54003       4   53985   54000   54021   54039       4
   53982   53991   53976   53994       4   53976   53994   54012   54030       8
   53973   53985   54000   54021       4   53973   53988  -54003   54021       4
   53970   53958  -53961   53973       9   53970   53958   53967   53982      10
   53970   53985   53973   53988       4   53970   53985   54000   54021       4
   53967   53955   53964   53976       4   53967   53958   53961   53973      11
   53967   53958   53970   53985      12   53967   53982  -53991   53976       4
   53964   53955   53967   53982       4   53964   53976  -53991   53982       4
   53964   53976   53994   54012       6   53961   53952   53955   53964      13
   53961   53952  -53955   53964      14   53961   53952  -53955   53964      15
   53961   53952  -53955   53967      13   53961   53952  -53955   53967      14
   53961   53952  -53955   53967      15   53961   53952  -53958   53967      16
   53961   53952  -53958   53970      16   53961   53958   53967   53982      17
   53961   53958  -53970   53985      12   53961   53973  -53985   53970       4
   53961   53973   53985   54000       4   53961   53973   53988   54003       4
   53958   53952   53955   53964      18   53958   53952  -53955   53967      18
   53958   53952  -53961   53973      19   53958   53961  -53973   53985      20
   53958   53961   53973   53988      20   53958   53967  -53955   53964       4
   53958   53967   53982   53991       4   53958   53970  -53985   53973      21
   53958   53970   53985   54000      21   53955   53952  -53958   53961      16
   53955   53952  -53958   53967      16   53955   53952   53958   53970      16
   53955   53952  -53961   53958      19   53955   53952   53961   53973      19
   53955   53964   53976   53991       4   53955   53964   53976   53994       4
   53955   53967  -53958   53961      17   53955   53967  -53958   53970      10
   53955   53967  -53982   53991       4   53952   53955   53964   53976       4
   53952   53955  -53967   53958       4   53952   53955   53967   53982       4
   53952   53958  -53961   53973       9   53952   53958  -53967   53955      10
   53952   53958  -53967   53982      10   53952   53958   53970   53985      12
   53952   53961  -53958   53967       9   53952   53961  -53958   53970       9
   53952   53961  -53973   53985      22   53952   53961   53973   53988      22
   54288   54306   54309   54321       3   54270   54288   54306   54309       3
   54249   54270   54288   54306       3   54246   54231   54243   54258       4
   54246   54264  -54279   54258       4   54243   54231   54246   54264       4
   54243   54258  -54279   54264       4   54234   54249   54270   54288       3
   54231   54243   54258   54279       4   54231   54246  -54264   54279       4
   54222   54234   54249   54270       3   54213   54231   54243   54258       4
   54213   54231   54246   54264       4   54204   54222   54234   54249       3
   54195   54213   54231   54243       5   54195   54213   54231   54246       5
   54192   54213   54231   54243       5   54192   54213   54231   54246       5
   54186   54204   54222   54234       3   54183   54168   54186   54204       6
   54180   54165   54177   54192       4   54180   54195  -54213   54192       4
   54180   54195   54213   54231       4   54177   54165   54180   54195       4
   54177   54192  -54213   54195       4   54177   54192   54213   54231       4
   54174   54183   54168   54186       4   54168   54186   54204   54222       8
   54165   54177   54192   54213       4   54165   54180  -54195   54213       4
   54162   54150  -54153   54165       9   54162   54150   54159   54174      10
   54162   54177   54165   54180       4   54162   54177   54192   54213       4
   54159   54147   54156   54168       4   54159   54150   54153   54165      11
   54159   54150   54162   54177      12   54159   54174  -54183   54168       4
   54156   54147   54159   54174       4   54156   54168  -54183   54174       4
   54156   54168   54186   54204       6   54153   54144   54147   54156      13
   54153   54144  -54147   54156      14   54153   54144  -54147   54156      15
   54153   54144  -54147   54159      13   54153   54144  -54147   54159      14
   54153   54144  -54147   54159      15   54153   54144  -54150   54159      16
   54153   54144  -54150   54162      16   54153   54150   54159   54174      17
   54153   54150  -54162   54177      12   54153   54165  -54177   54162       4
   54153   54165   54177   54192       4   54153   54165   54180   54195       4
   54150   54144   54147   54156      18   54150   54144  -54147   54159      18
   54150   54144  -54153   54165      19   54150   54153  -54165   54177      20
   54150   54153   54165   54180      20   54150   54159  -54147   54156       4
   54150   54159   54174   54183       4   54150   54162  -54177   54165      21
   54150   54162   54177   54192      21   54147   54144  -54150   54153      16
   54147   54144  -54150   54159      16   54147   54144   54150   54162      16
   54147   54144  -54153   54150      19   54147   54144   54153   54165      19
   54147   54156   54168   54183       4   54147   54156   54168   54186       4
   54147   54159  -54150   54153      17   54147   54159  -54150   54162      10
   54147   54159  -54174   54183       4   54144   54147   54156   54168       4
   54144   54147  -54159   54150       4   54144   54147   54159   54174       4
   54144   54150  -54153   54165       9   54144   54150  -54159   54147      10
   54144   54150  -54159   54174      10   54144   54150   54162   54177      12
   54144   54153  -54150   54159       9   54144   54153  -54150   54162       9
   54144   54153  -54165   54177      22   54144   54153   54165   54180      22
   54480   54498   54501   54513       3   54462   54480   54498   54501       3
   54441   54462   54480   54498       3   54438   54423   54435   54450       4
   54438   54456  -54471   54450       4   54435   54423   54438   54456       4
   54435   54450  -54471   54456       4   54426   54441   54462   54480       3
   54423   54435   54450   54471       4   54423   54438  -54456   54471       4
   54414   54426   54441   54462       3   54405   54423   54435   54450       4
   54405   54423   54438   54456       4   54396   54414   54426   54441       3
   54387   54405   54423   54435       5   54387   54405   54423   54438       5
   54384   54405   54423   54435       5   54384   54405   54423   54438       5
   54378   54396   54414   54426       3   54375   54360   54378   54396       6
   54372   54357   54369   54384       4   54372   54387  -54405   54384       4
   54372   54387   54405   54423       4   54369   54357   54372   54387       4
   54369   54384  -54405   54387       4   54369   54384   54405   54423       4
   54366   54375   54360   54378       4   54360   54378   54396   54414       8
   54357   54369   54384   54405       4   54357   54372  -54387   54405       4
   54354   54342  -54345   54357       9   54354   54342   54351   54366      10
   54354   54369   54357   54372       4   54354   54369   54384   54405       4
   54351   54339   54348   54360       4   54351   54342   54345   54357      11
   54351   54342   54354   54369      12   54351   54366  -54375   54360       4
   54348   54339   54351   54366       4   54348   54360  -54375   54366       4
   54348   54360   54378   54396       6   54345   54336   54339   54348      13
   54345   54336  -54339   54348      14   54345   54336  -54339   54348      15
   54345   54336  -54339   54351      13   54345   54336  -54339   54351      14
   54345   54336  -54339   54351      15   54345   54336  -54342   54351      16
   54345   54336  -54342   54354      16   54345   54342   54351   54366      17
   54345   54342  -54354   54369      12   54345   54357  -54369   54354       4
   54345   54357   54369   54384       4   54345   54357   54372   54387       4
   54342   54336   54339   54348      18   54342   54336  -54339   54351      18
   54342   54336  -54345   54357      19   54342   54345  -54357   54369      20
   54342   54345   54357   54372      20   54342   54351  -54339   54348       4
   54342   54351   54366   54375       4   54342   54354  -54369   54357      21
   54342   54354   54369   54384      21   54339   54336  -54342   54345      16
   54339   54336  -54342   54351      16   54339   54336   54342   54354      16
   54339   54336  -54345   54342      19   54339   54336   54345   54357      19
   54339   54348   54360   54375       4   54339   54348   54360   54378       4
   54339   54351  -54342   54345      17   54339   54351  -54342   54354      10
   54339   54351  -54366   54375       4   54336   54339   54348   54360       4
   54336   54339  -54351   54342       4   54336   54339   54351   54366       4
   54336   54342  -54345   54357       9   54336   54342  -54351   54339      10
   54336   54342  -54351   54366      10   54336   54342   54354   54369      12
   54336   54345  -54342   54351       9   54336   54345  -54342   54354       9
   54336   54345  -54357   54369      22   54336   54345   54357   54372      22
   54672   54690   54693   54705       3   54654   54672   54690   54693       3
   54633   54654   54672   54690       3   54630   54615   54627   54642       4
   54630   54648  -54663   54642       4   54627   54615   54630   54648       4
   54627   54642  -54663   54648       4   54618   54633   54654   54672       3
   54615   54627   54642   54663       4   54615   54630  -54648   54663       4
   54606   54618   54633   54654       3   54597   54615   54627   54642       4
   54597   54615   54630   54648       4   54588   54606   54618   54633       3
   54579   54597   54615   54627       5   54579   54597   54615   54630       5
   54576   54597   54615   54627       5   54576   54597   54615   54630       5
   54570   54588   54606   54618       3   54567   54552   54570   54588       6
   54564   54549   54561   54576       4   54564   54579  -54597   54576       4
   54564   54579   54597   54615       4   54561   54549   54564   54579       4
   54561   54576  -54597   54579       4   54561   54576   54597   54615       4
   54558   54567   54552   54570       4   54552   54570   54588   54606       8
   54549   54561   54576   54597       4   54549   54564  -54579   54597       4
   54546   54534  -54537   54549       9   54546   54534   54543   54558      10
   54546   54561   54549   54564       4   54546   54561   54576   54597       4
   54543   54531   54540   54552       4   54543   54534   54537   54549      11
   54543   54534   54546   54561      12   54543   54558  -54567   54552       4
   54540   54531   54543   54558       4   54540   54552  -54567   54558       4
   54540   54552   54570   54588       6   54537   54528   54531   54540      13
   54537   54528  -54531   54540      14   54537   54528  -54531   54540      15
   54537   54528  -54531   54543      13   54537   54528  -54531   54543      14
   54537   54528  -54531   54543      15   54537   54528  -54534   54543      16
   54537   54528  -54534   54546      16   54537   54534   54543   54558      17
   54537   54534  -54546   54561      12   54537   54549  -54561   54546       4
   54537   54549   54561   54576       4   54537   54549   54564   54579       4
   54534   54528   54531   54540      18   54534   54528  -54531   54543      18
   54534   54528  -54537   54549      19   54534   54537  -54549   54561      20
   54534   54537   54549   54564      20   54534   54543  -54531   54540       4
   54534   54543   54558   54567       4   54534   54546  -54561   54549      21
   54534   54546   54561   54576      21   54531   54528  -54534   54537      16
   54531   54528  -54534   54543      16   54531   54528   54534   54546      16
   54531   54528  -54537   54534      19   54531   54528   54537   54549      19
   54531   54540   54552   54567       4   54531   54540   54552   54570       4
   54531   54543  -54534   54537      17   54531   54543  -54534   54546      10
   54531   54543  -54558   54567       4   54528   54531   54540   54552       4
   54528   54531  -54543   54534       4   54528   54531   54543   54558       4
   54528   54534  -54537   54549       9   54528   54534  -54543   54531      10
   54528   54534  -54543   54558      10   54528   54534   54546   54561      12
   54528   54537  -54534   54543       9   54528   54537  -54534   54546       9
   54528   54537  -54549   54561      22   54528   54537   54549   54564      22
   54864   54882   54885   54897       3   54846   54864   54882   54885       3
   54825   54846   54864   54882       3   54822   54807   54819   54834       4
   54822   54840  -54855   54834       4   54819   54807   54822   54840       4
   54819   54834  -54855   54840       4   54810   54825   54846   54864       3
   54807   54819   54834   54855       4   54807   54822  -54840   54855       4
   54798   54810   54825   54846       3   54789   54807   54819   54834       4
   54789   54807   54822   54840       4   54780   54798   54810   54825       3
   54771   54789   54807   54819       5   54771   54789   54807   54822       5
   54768   54789   54807   54819       5   54768   54789   54807   54822       5
   54762   54780   54798   54810       3   54759   54744   54762   54780       6
   54756   54741   54753   54768       4   54756   54771  -54789   54768       4
   54756   54771   54789   54807       4   54753   54741   54756   54771       4
   54753   54768  -54789   54771       4   54753   54768   54789   54807       4
   54750   54759   54744   54762       4   54744   54762   54780   54798       8
   54741   54753   54768   54789       4   54741   54756  -54771   54789       4
   54738   54726  -54729   54741       9   54738   54726   54735   54750      10
   54738   54753   54741   54756       4   54738   54753   54768   54789       4
   54735   54723   54732   54744       4   54735   54726   54729   54741      11
   54735   54726   54738   54753      12   54735   54750  -54759   54744       4
   54732   54723   54735   54750       4   54732   54744  -54759   54750       4
   54732   54744   54762   54780       6   54729   54720   54723   54732      13
   54729   54720  -54723   54732      14   54729   54720  -54723   54732      15
   54729   54720  -54723   54735      13   54729   54720  -54723   54735      14
   54729   54720  -54723   54735      15   54729   54720  -54726   54735      16
   54729   54720  -54726   54738      16   54729   54726   54735   54750      17
   54729   54726  -54738   54753      12   54729   54741  -54753   54738       4
   54729   54741   54753   54768       4   54729   54741   54756   54771       4
   54726   54720   54723   54732      18   54726   54720  -54723   54735      18
   54726   54720  -54729   54741      19   54726   54729  -54741   54753      20
   54726   54729   54741   54756      20   54726   54735  -54723   54732       4
   54726   54735   54750   54759       4   54726   54738  -54753   54741      21
   54726   54738   54753   54768      21   54723   54720  -54726   54729      16
   54723   54720  -54726   54735      16   54723   54720   54726   54738      16
   54723   54720  -54729   54726      19   54723   54720   54729   54741      19
   54723   54732   54744   54759       4   54723   54732   54744   54762       4
   54723   54735  -54726   54729      17   54723   54735  -54726   54738      10
   54723   54735  -54750   54759       4   54720   54723   54732   54744       4
   54720   54723  -54735   54726       4   54720   54723   54735   54750       4
   54720   54726  -54729   54741       9   54720   54726  -54735   54723      10
   54720   54726  -54735   54750      10   54720   54726   54738   54753      12
   54720   54729  -54726   54735       9   54720   54729  -54726   54738       9
   54720   54729  -54741   54753      22   54720   54729   54741   54756      22
   55056   55074   55077   55089       3   55038   55056   55074   55077       3
   55017   55038   55056   55074       3   55014   54999   55011   55026       4
   55014   55032  -55047   55026       4   55011   54999   55014   55032       4
   55011   55026  -55047   55032       4   55002   55017   55038   55056       3
   54999   55011   55026   55047       4   54999   55014  -55032   55047       4
   54990   55002   55017   55038       3   54981   54999   55011   55026       4
   54981   54999   55014   55032       4   54972   54990   55002   55017       3
   54963   54981   54999   55011       5   54963   54981   54999   55014       5
   54960   54981   54999   55011       5   54960   54981   54999   55014       5
   54954   54972   54990   55002       3   54951   54936   54954   54972       6
   54948   54933   54945   54960       4   54948   54963  -54981   54960       4
   54948   54963   54981   54999       4   54945   54933   54948   54963       4
   54945   54960  -54981   54963       4   54945   54960   54981   54999       4
   54942   54951   54936   54954       4   54936   54954   54972   54990       8
   54933   54945   54960   54981       4   54933   54948  -54963   54981       4
   54930   54918  -54921   54933       9   54930   54918   54927   54942      10
   54930   54945   54933   54948       4   54930   54945   54960   54981       4
   54927   54915   54924   54936       4   54927   54918   54921   54933      11
   54927   54918   54930   54945      12   54927   54942  -54951   54936       4
   54924   54915   54927   54942       4   54924   54936  -54951   54942       4
   54924   54936   54954   54972       6   54921   54912   54915   54924      13
   54921   54912  -54915   54924      14   54921   54912  -54915   54924      15
   54921   54912  -54915   54927      13   54921   54912  -54915   54927      14
   54921   54912  -54915   54927      15   54921   54912  -54918   54927      16
   54921   54912  -54918   54930      16   54921   54918   54927   54942      17
   54921   54918  -54930   54945      12   54921   54933  -54945   54930       4
   54921   54933   54945   54960       4   54921   54933   54948   54963       4
   54918   54912   54915   54924      18   54918   54912  -54915   54927      18
   54918   54912  -54921   54933      19   54918   54921  -54933   54945      20
   54918   54921   54933   54948      20   54918   54927  -54915   54924       4
   54918   54927   54942   54951       4   54918   54930  -54945   54933      21
   54918   54930   54945   54960      21   54915   54912  -54918   54921      16
   54915   54912  -54918   54927      16   54915   54912   54918   54930      16
   54915   54912  -54921   54918      19   54915   54912   54921   54933      19
   54915   54924   54936   54951       4   54915   54924   54936   54954       4
   54915   54927  -54918   54921      17   54915   54927  -54918   54930      10
   54915   54927  -54942   54951       4   54912   54915   54924   54936       4
   54912   54915  -54927   54918       4   54912   54915   54927   54942       4
   54912   54918  -54921   54933       9   54912   54918  -54927   54915      10
   54912   54918  -54927   54942      10   54912   54918   54930   54945      12
   54912   54921  -54918   54927       9   54912   54921  -54918   54930       9
   54912   54921  -54933   54945      22   54912   54921   54933   54948      22
   55248   55266   55269   55281       3   55230   55248   55266   55269       3
   55209   55230   55248   55266       3   55206   55191   55203   55218       4
   55206   55224  -55239   55218       4   55203   55191   55206   55224       4
   55203   55218  -55239   55224       4   55194   55209   55230   55248       3
   55191   55203   55218   55239       4   55191   55206  -55224   55239       4
   55182   55194   55209   55230       3   55173   55191   55203   55218       4
   55173   55191   55206   55224       4   55164   55182   55194   55209       3
   55155   55173   55191   55203       5   55155   55173   55191   55206       5
   55152   55173   55191   55203       5   55152   55173   55191   55206       5
   55146   55164   55182   55194       3   55143   55128   55146   55164       6
   55140   55125   55137   55152       4   55140   55155  -55173   55152       4
   55140   55155   55173   55191       4   55137   55125   55140   55155       4
   55137   55152  -55173   55155       4   55137   55152   55173   55191       4
   55134   55143   55128   55146       4   55128   55146   55164   55182       8
   55125   55137   55152   55173       4   55125   55140  -55155   55173       4
   55122   55110  -55113   55125       9   55122   55110   55119   55134      10
   55122   55137   55125   55140       4   55122   55137   55152   55173       4
   55119   55107   55116   55128       4   55119   55110   55113   55125      11
   55119   55110   55122   55137      12   55119   55134  -55143   55128       4
   55116   55107   55119   55134       4   55116   55128  -55143   55134       4
   55116   55128   55146   55164       6   55113   55104   55107   55116      13
   55113   55104  -55107   55116      14   55113   55104  -55107   55116      15
   55113   55104  -55107   55119      13   55113   55104  -55107   55119      14
   55113   55104  -55107   55119      15   55113   55104  -55110   55119      16
   55113   55104  -55110   55122      16   55113   55110   55119   55134      17
   55113   55110  -55122   55137      12   55113   55125  -55137   55122       4
   55113   55125   55137   55152       4   55113   55125   55140   55155       4
   55110   55104   55107   55116      18   55110   55104  -55107   55119      18
   55110   55104  -55113   55125      19   55110   55113  -55125   55137      20
   55110   55113   55125   55140      20   55110   55119  -55107   55116       4
   55110   55119   55134   55143       4   55110   55122  -55137   55125      21
   55110   55122   55137   55152      21   55107   55104  -55110   55113      16
   55107   55104  -55110   55119      16   55107   55104   55110   55122      16
   55107   55104  -55113   55110      19   55107   55104   55113   55125      19
   55107   55116   55128   55143       4   55107   55116   55128   55146       4
   55107   55119  -55110   55113      17   55107   55119  -55110   55122      10
   55107   55119  -55134   55143       4   55104   55107   55116   55128       4
   55104   55107  -55119   55110       4   55104   55107   55119   55134       4
   55104   55110  -55113   55125       9   55104   55110  -55119   55107      10
   55104   55110  -55119   55134      10   55104   55110   55122   55137      12
   55104   55113  -55110   55119       9   55104   55113  -55110   55122       9
   55104   55113  -55125   55137      22   55104   55113   55125   55140      22
      99     102     -87     -69      23      48      51     -69     -87      23
      21      48     -33     -18      23      12      39     -24     -42      23
      33      36     -21      -9      23       3      30     -15      -6      23
       0       9      -6     -21      23       0       3     -15     -12      23
     291     294    -279    -261      23     240     243    -261    -279      23
     213     240    -225    -210      23     234     204    -216    -231      23
     225     228    -213    -201      23     195     222    -207    -198      23
     213     198    -201    -192      23     204     207    -195    -192      23
     483     486    -471    -453      23     432     435    -453    -471      23
     405     432    -417    -402      23     426     396    -408    -423      23
     417     420    -405    -393      23     387     414    -399    -390      23
     405     390    -393    -384      23     396     399    -387    -384      23
     675     678    -663    -645      23     624     627    -645    -663      23
     597     624    -609    -594      23     618     588    -600    -615      23
     609     612    -597    -585      23     579     606    -591    -582      23
     597     582    -585    -576      23     588     591    -579    -576      23
     867     870    -855    -837      23     816     819    -837    -855      23
     789     816    -801    -786      23     810     780    -792    -807      23
     801     804    -789    -777      23     771     798    -783    -774      23
     789     774    -777    -768      23     780     783    -771    -768      23
    1059    1062   -1047   -1029      23    1008    1011   -1029   -1047      23
     981    1008    -993    -978      23    1002     972    -984    -999      23
     993     996    -981    -969      23     963     990    -975    -966      23
     981     966    -969    -960      23     972     975    -963    -960      23
    1251    1254   -1239   -1221      23    1200    1203   -1221   -1239      23
    1173    1200   -1185   -1170      23    1194    1164   -1176   -1191      23
    1185    1188   -1173   -1161      23    1155    1182   -1167   -1158      23
    1173    1158   -1161   -1152      23    1164    1167   -1155   -1152      23
    1443    1446   -1431   -1413      23    1392    1395   -1413   -1431      23
    1365    1392   -1377   -1362      23    1386    1356   -1368   -1383      23
    1377    1380   -1365   -1353      23    1347    1374   -1359   -1350      23
    1365    1350   -1353   -1344      23    1356    1359   -1347   -1344      23
    1635    1638   -1623   -1605      23    1584    1587   -1605   -1623      23
    1557    1584   -1569   -1554      23    1578    1548   -1560   -1575      23
    1569    1572   -1557   -1545      23    1539    1566   -1551   -1542      23
    1557    1542   -1545   -1536      23    1548    1551   -1539   -1536      23
    1827    1830   -1815   -1797      23    1776    1779   -1797   -1815      23
    1749    1776   -1761   -1746      23    1770    1740   -1752   -1767      23
    1761    1764   -1749   -1737      23    1731    1758   -1743   -1734      23
    1749    1734   -1737   -1728      23    1740    1743   -1731   -1728      23
    2019    2022   -2007   -1989      23    1968    1971   -1989   -2007      23
    1941    1968   -1953   -1938      23    1962    1932   -1944   -1959      23
    1953    1956   -1941   -1929      23    1923    1950   -1935   -1926      23
    1941    1926   -1929   -1920      23    1932    1935   -1923   -1920      23
    2211    2214   -2199   -2181      23    2160    2163   -2181   -2199      23
    2133    2160   -2145   -2130      23    2154    2124   -2136   -2151      23
    2145    2148   -2133   -2121      23    2115    2142   -2127   -2118      23
    2133    2118   -2121   -2112      23    2124    2127   -2115   -2112      23
    2403    2406   -2391   -2373      23    2352    2355   -2373   -2391      23
    2325    2352   -2337   -2322      23    2346    2316   -2328   -2343      23
    2337    2340   -2325   -2313      23    2307    2334   -2319   -2310      23
    2325    2310   -2313   -2304      23    2316    2319   -2307   -2304      23
    2595    2598   -2583   -2565      23    2544    2547   -2565   -2583      23
    2517    2544   -2529   -2514      23    2538    2508   -2520   -2535      23
    2529    2532   -2517   -2505      23    2499    2526   -2511   -2502      23
    2517    2502   -2505   -2496      23    2508    2511   -2499   -2496      23
    2787    2790   -2775   -2757      23    2736    2739   -2757   -2775      23
    2709    2736   -2721   -2706      23    2730    2700   -2712   -2727      23
    2721    2724   -2709   -2697      23    2691    2718   -2703   -2694      23
    2709    2694   -2697   -2688      23    2700    2703   -2691   -2688      23
    2979    2982   -2967   -2949      23    2928    2931   -2949   -2967      23
    2901    2928   -2913   -2898      23    2922    2892   -2904   -2919      23
    2913    2916   -2901   -2889      23    2883    2910   -2895   -2886      23
    2901    2886   -2889   -2880      23    2892    2895   -2883   -2880      23
    3171    3174   -3159   -3141      23    3120    3123   -3141   -3159      23
    3093    3120   -3105   -3090      23    3114    3084   -3096   -3111      23
    3105    3108   -3093   -3081      23    3075    3102   -3087   -3078      23
    3093    3078   -3081   -3072      23    3084    3087   -3075   -3072      23
    3363    3366   -3351   -3333      23    3312    3315   -3333   -3351      23
    3285    3312   -3297   -3282      23    3306    3276   -3288   -3303      23
    3297    3300   -3285   -3273      23    3267    3294   -3279   -3270      23
    3285    3270   -3273   -3264      23    3276    3279   -3267   -3264      23
    3555    3558   -3543   -3525      23    3504    3507   -3525   -3543      23
    3477    3504   -3489   -3474      23    3498    3468   -3480   -3495      23
    3489    3492   -3477   -3465      23    3459    3486   -3471   -3462      23
    3477    3462   -3465   -3456      23    3468    3471   -3459   -3456      23
    3747    3750   -3735   -3717      23    3696    3699   -3717   -3735      23
    3669    3696   -3681   -3666      23    3690    3660   -3672   -3687      23
    3681    3684   -3669   -3657      23    3651    3678   -3663   -3654      23
    3669    3654   -3657   -3648      23    3660    3663   -3651   -3648      23
    3939    3942   -3927   -3909      23    3888    3891   -3909   -3927      23
    3861    3888   -3873   -3858      23    3882    3852   -3864   -3879      23
    3873    3876   -3861   -3849      23    3843    3870   -3855   -3846      23
    3861    3846   -3849   -3840      23    3852    3855   -3843   -3840      23
    4131    4134   -4119   -4101      23    4080    4083   -4101   -4119      23
    4053    4080   -4065   -4050      23    4074    4044   -4056   -4071      23
    4065    4068   -4053   -4041      23    4035    4062   -4047   -4038      23
    4053    4038   -4041   -4032      23    4044    4047   -4035   -4032      23
    4323    4326   -4311   -4293      23    4272    4275   -4293   -4311      23
    4245    4272   -4257   -4242      23    4266    4236   -4248   -4263      23
    4257    4260   -4245   -4233      23    4227    4254   -4239   -4230      23
    4245    4230   -4233   -4224      23    4236    4239   -4227   -4224      23
    4515    4518   -4503   -4485      23    4464    4467   -4485   -4503      23
    4437    4464   -4449   -4434      23    4458    4428   -4440   -4455      23
    4449    4452   -4437   -4425      23    4419    4446   -4431   -4422      23
    4437    4422   -4425   -4416      23    4428    4431   -4419   -4416      23
    4707    4710   -4695   -4677      23    4656    4659   -4677   -4695      23
    4629    4656   -4641   -4626      23    4650    4620   -4632   -4647      23
    4641    4644   -4629   -4617      23    4611    4638   -4623   -4614      23
    4629    4614   -4617   -4608      23    4620    4623   -4611   -4608      23
    4899    4902   -4887   -4869      23    4848    4851   -4869   -4887      23
    4821    4848   -4833   -4818      23    4842    4812   -4824   -4839      23
    4833    4836   -4821   -4809      23    4803    4830   -4815   -4806      23
    4821    4806   -4809   -4800      23    4812    4815   -4803   -4800      23
    5091    5094   -5079   -5061      23    5040    5043   -5061   -5079      23
    5013    5040   -5025   -5010      23    5034    5004   -5016   -5031      23
    5025    5028   -5013   -5001      23    4995    5022   -5007   -4998      23
    5013    4998   -5001   -4992      23    5004    5007   -4995   -4992      23
    5283    5286   -5271   -5253      23    5232    5235   -5253   -5271      23
    5205    5232   -5217   -5202      23    5226    5196   -5208   -5223      23
    5217    5220   -5205   -5193      23    5187    5214   -5199   -5190      23
    5205    5190   -5193   -5184      23    5196    5199   -5187   -5184      23
    5475    5478   -5463   -5445      23    5424    5427   -5445   -5463      23
    5397    5424   -5409   -5394      23    5418    5388   -5400   -5415      23
    5409    5412   -5397   -5385      23    5379    5406   -5391   -5382      23
    5397    5382   -5385   -5376      23    5388    5391   -5379   -5376      23
    5667    5670   -5655   -5637      23    5616    5619   -5637   -5655      23
    5589    5616   -5601   -5586      23    5610    5580   -5592   -5607      23
    5601    5604   -5589   -5577      23    5571    5598   -5583   -5574      23
    5589    5574   -5577   -5568      23    5580    5583   -5571   -5568      23
    5859    5862   -5847   -5829      23    5808    5811   -5829   -5847      23
    5781    5808   -5793   -5778      23    5802    5772   -5784   -5799      23
    5793    5796   -5781   -5769      23    5763    5790   -5775   -5766      23
    5781    5766   -5769   -5760      23    5772    5775   -5763   -5760      23
    6051    6054   -6039   -6021      23    6000    6003   -6021   -6039      23
    5973    6000   -5985   -5970      23    5994    5964   -5976   -5991      23
    5985    5988   -5973   -5961      23    5955    5982   -5967   -5958      23
    5973    5958   -5961   -5952      23    5964    5967   -5955   -5952      23
    6243    6246   -6231   -6213      23    6192    6195   -6213   -6231      23
    6165    6192   -6177   -6162      23    6186    6156   -6168   -6183      23
    6177    6180   -6165   -6153      23    6147    6174   -6159   -6150      23
    6165    6150   -6153   -6144      23    6156    6159   -6147   -6144      23
    6435    6438   -6423   -6405      23    6384    6387   -6405   -6423      23
    6357    6384   -6369   -6354      23    6378    6348   -6360   -6375      23
    6369    6372   -6357   -6345      23    6339    6366   -6351   -6342      23
    6357    6342   -6345   -6336      23    6348    6351   -6339   -6336      23
    6627    6630   -6615   -6597      23    6576    6579   -6597   -6615      23
    6549    6576   -6561   -6546      23    6570    6540   -6552   -6567      23
    6561    6564   -6549   -6537      23    6531    6558   -6543   -6534      23
    6549    6534   -6537   -6528      23    6540    6543   -6531   -6528      23
    6819    6822   -6807   -6789      23    6768    6771   -6789   -6807      23
    6741    6768   -6753   -6738      23    6762    6732   -6744   -6759      23
    6753    6756   -6741   -6729      23    6723    6750   -6735   -6726      23
    6741    6726   -6729   -6720      23    6732    6735   -6723   -6720      23
    7011    7014   -6999   -6981      23    6960    6963   -6981   -6999      23
    6933    6960   -6945   -6930      23    6954    6924   -6936   -6951      23
    6945    6948   -6933   -6921      23    6915    6942   -6927   -6918      23
    6933    6918   -6921   -6912      23    6924    6927   -6915   -6912      23
    7203    7206   -7191   -7173      23    7152    7155   -7173   -7191      23
    7125    7152   -7137   -7122      23    7146    7116   -7128   -7143      23
    7137    7140   -7125   -7113      23    7107    7134   -7119   -7110      23
    7125    7110   -7113   -7104      23    7116    7119   -7107   -7104      23
    7395    7398   -7383   -7365      23    7344    7347   -7365   -7383      23
    7317    7344   -7329   -7314      23    7338    7308   -7320   -7335      23
    7329    7332   -7317   -7305      23    7299    7326   -7311   -7302      23
    7317    7302   -7305   -7296      23    7308    7311   -7299   -7296      23
    7587    7590   -7575   -7557      23    7536    7539   -7557   -7575      23
    7509    7536   -7521   -7506      23    7530    7500   -7512   -7527      23
    7521    7524   -7509   -7497      23    7491    7518   -7503   -7494      23
    7509    7494   -7497   -7488      23    7500    7503   -7491   -7488      23
    7779    7782   -7767   -7749      23    7728    7731   -7749   -7767      23
    7701    7728   -7713   -7698      23    7722    7692   -7704   -7719      23
    7713    7716   -7701   -7689      23    7683    7710   -7695   -7686      23
    7701    7686   -7689   -7680      23    7692    7695   -7683   -7680      23
    7971    7974   -7959   -7941      23    7920    7923   -7941   -7959      23
    7893    7920   -7905   -7890      23    7914    7884   -7896   -7911      23
    7905    7908   -7893   -7881      23    7875    7902   -7887   -7878      23
    7893    7878   -7881   -7872      23    7884    7887   -7875   -7872      23
    8163    8166   -8151   -8133      23    8112    8115   -8133   -8151      23
    8085    8112   -8097   -8082      23    8106    8076   -8088   -8103      23
    8097    8100   -8085   -8073      23    8067    8094   -8079   -8070      23
    8085    8070   -8073   -8064      23    8076    8079   -8067   -8064      23
    8355    8358   -8343   -8325      23    8304    8307   -8325   -8343      23
    8277    8304   -8289   -8274      23    8298    8268   -8280   -8295      23
    8289    8292   -8277   -8265      23    8259    8286   -8271   -8262      23
    8277    8262   -8265   -8256      23    8268    8271   -8259   -8256      23
    8547    8550   -8535   -8517      23    8496    8499   -8517   -8535      23
    8469    8496   -8481   -8466      23    8490    8460   -8472   -8487      23
    8481    8484   -8469   -8457      23    8451    8478   -8463   -8454      23
    8469    8454   -8457   -8448      23    8460    8463   -8451   -8448      23
    8739    8742   -8727   -8709      23    8688    8691   -8709   -8727      23
    8661    8688   -8673   -8658      23    8682    8652   -8664   -8679      23
    8673    8676   -8661   -8649      23    8643    8670   -8655   -8646      23
    8661    8646   -8649   -8640      23    8652    8655   -8643   -8640      23
    8931    8934   -8919   -8901      23    8880    8883   -8901   -8919      23
    8853    8880   -8865   -8850      23    8874    8844   -8856   -8871      23
    8865    8868   -8853   -8841      23    8835    8862   -8847   -8838      23
    8853    8838   -8841   -8832      23    8844    8847   -8835   -8832      23
    9123    9126   -9111   -9093      23    9072    9075   -9093   -9111      23
    9045    9072   -9057   -9042      23    9066    9036   -9048   -9063      23
    9057    9060   -9045   -9033      23    9027    9054   -9039   -9030      23
    9045    9030   -9033   -9024      23    9036    9039   -9027   -9024      23
    9315    9318   -9303   -9285      23    9264    9267   -9285   -9303      23
    9237    9264   -9249   -9234      23    9258    9228   -9240   -9255      23
    9249    9252   -9237   -9225      23    9219    9246   -9231   -9222      23
    9237    9222   -9225   -9216      23    9228    9231   -9219   -9216      23
    9507    9510   -9495   -9477      23    9456    9459   -9477   -9495      23
    9429    9456   -9441   -9426      23    9450    9420   -9432   -9447      23
    9441    9444   -9429   -9417      23    9411    9438   -9423   -9414      23
    9429    9414   -9417   -9408      23    9420    9423   -9411   -9408      23
    9699    9702   -9687   -9669      23    9648    9651   -9669   -9687      23
    9621    9648   -9633   -9618      23    9642    9612   -9624   -9639      23
    9633    9636   -9621   -9609      23    9603    9630   -9615   -9606      23
    9621    9606   -9609   -9600      23    9612    9615   -9603   -9600      23
    9891    9894   -9879   -9861      23    9840    9843   -9861   -9879      23
    9813    9840   -9825   -9810      23    9834    9804   -9816   -9831      23
    9825    9828   -9813   -9801      23    9795    9822   -9807   -9798      23
    9813    9798   -9801   -9792      23    9804    9807   -9795   -9792      23
   10083   10086  -10071  -10053      23   10032   10035  -10053  -10071      23
   10005   10032  -10017  -10002      23   10026    9996  -10008  -10023      23
   10017   10020  -10005   -9993      23    9987   10014   -9999   -9990      23
   10005    9990   -9993   -9984      23    9996    9999   -9987   -9984      23
   10275   10278  -10263  -10245      23   10224   10227  -10245  -10263      23
   10197   10224  -10209  -10194      23   10218   10188  -10200  -10215      23
   10209   10212  -10197  -10185      23   10179   10206  -10191  -10182      23
   10197   10182  -10185  -10176      23   10188   10191  -10179  -10176      23
   10467   10470  -10455  -10437      23   10416   10419  -10437  -10455      23
   10389   10416  -10401  -10386      23   10410   10380  -10392  -10407      23
   10401   10404  -10389  -10377      23   10371   10398  -10383  -10374      23
   10389   10374  -10377  -10368      23   10380   10383  -10371  -10368      23
   10659   10662  -10647  -10629      23   10608   10611  -10629  -10647      23
   10581   10608  -10593  -10578      23   10602   10572  -10584  -10599      23
   10593   10596  -10581  -10569      23   10563   10590  -10575  -10566      23
   10581   10566  -10569  -10560      23   10572   10575  -10563  -10560      23
   10851   10854  -10839  -10821      23   10800   10803  -10821  -10839      23
   10773   10800  -10785  -10770      23   10794   10764  -10776  -10791      23
   10785   10788  -10773  -10761      23   10755   10782  -10767  -10758      23
   10773   10758  -10761  -10752      23   10764   10767  -10755  -10752      23
   11043   11046  -11031  -11013      23   10992   10995  -11013  -11031      23
   10965   10992  -10977  -10962      23   10986   10956  -10968  -10983      23
   10977   10980  -10965  -10953      23   10947   10974  -10959  -10950      23
   10965   10950  -10953  -10944      23   10956   10959  -10947  -10944      23
   11235   11238  -11223  -11205      23   11184   11187  -11205  -11223      23
   11157   11184  -11169  -11154      23   11178   11148  -11160  -11175      23
   11169   11172  -11157  -11145      23   11139   11166  -11151  -11142      23
   11157   11142  -11145  -11136      23   11148   11151  -11139  -11136      23
   11427   11430  -11415  -11397      23   11376   11379  -11397  -11415      23
   11349   11376  -11361  -11346      23   11370   11340  -11352  -11367      23
   11361   11364  -11349  -11337      23   11331   11358  -11343  -11334      23
   11349   11334  -11337  -11328      23   11340   11343  -11331  -11328      23
   11619   11622  -11607  -11589      23   11568   11571  -11589  -11607      23
   11541   11568  -11553  -11538      23   11562   11532  -11544  -11559      23
   11553   11556  -11541  -11529      23   11523   11550  -11535  -11526      23
   11541   11526  -11529  -11520      23   11532   11535  -11523  -11520      23
   11811   11814  -11799  -11781      23   11760   11763  -11781  -11799      23
   11733   11760  -11745  -11730      23   11754   11724  -11736  -11751      23
   11745   11748  -11733  -11721      23   11715   11742  -11727  -11718      23
   11733   11718  -11721  -11712      23   11724   11727  -11715  -11712      23
   12003   12006  -11991  -11973      23   11952   11955  -11973  -11991      23
   11925   11952  -11937  -11922      23   11946   11916  -11928  -11943      23
   11937   11940  -11925  -11913      23   11907   11934  -11919  -11910      23
   11925   11910  -11913  -11904      23   11916   11919  -11907  -11904      23
   12195   12198  -12183  -12165      23   12144   12147  -12165  -12183      23
   12117   12144  -12129  -12114      23   12138   12108  -12120  -12135      23
   12129   12132  -12117  -12105      23   12099   12126  -12111  -12102      23
   12117   12102  -12105  -12096      23   12108   12111  -12099  -12096      23
   12387   12390  -12375  -12357      23   12336   12339  -12357  -12375      23
   12309   12336  -12321  -12306      23   12330   12300  -12312  -12327      23
   12321   12324  -12309  -12297      23   12291   12318  -12303  -12294      23
   12309   12294  -12297  -12288      23   12300   12303  -12291  -12288      23
   12579   12582  -12567  -12549      23   12528   12531  -12549  -12567      23
   12501   12528  -12513  -12498      23   12522   12492  -12504  -12519      23
   12513   12516  -12501  -12489      23   12483   12510  -12495  -12486      23
   12501   12486  -12489  -12480      23   12492   12495  -12483  -12480      23
   12771   12774  -12759  -12741      23   12720   12723  -12741  -12759      23
   12693   12720  -12705  -12690      23   12714   12684  -12696  -12711      23
   12705   12708  -12693  -12681      23   12675   12702  -12687  -12678      23
   12693   12678  -12681  -12672      23   12684   12687  -12675  -12672      23
   12963   12966  -12951  -12933      23   12912   12915  -12933  -12951      23
   12885   12912  -12897  -12882      23   12906   12876  -12888  -12903      23
   12897   12900  -12885  -12873      23   12867   12894  -12879  -12870      23
   12885   12870  -12873  -12864      23   12876   12879  -12867  -12864      23
   13155   13158  -13143  -13125      23   13104   13107  -13125  -13143      23
   13077   13104  -13089  -13074      23   13098   13068  -13080  -13095      23
   13089   13092  -13077  -13065      23   13059   13086  -13071  -13062      23
   13077   13062  -13065  -13056      23   13068   13071  -13059  -13056      23
   13347   13350  -13335  -13317      23   13296   13299  -13317  -13335      23
   13269   13296  -13281  -13266      23   13290   13260  -13272  -13287      23
   13281   13284  -13269  -13257      23   13251   13278  -13263  -13254      23
   13269   13254  -13257  -13248      23   13260   13263  -13251  -13248      23
   13539   13542  -13527  -13509      23   13488   13491  -13509  -13527      23
   13461   13488  -13473  -13458      23   13482   13452  -13464  -13479      23
   13473   13476  -13461  -13449      23   13443   13470  -13455  -13446      23
   13461   13446  -13449  -13440      23   13452   13455  -13443  -13440      23
   13731   13734  -13719  -13701      23   13680   13683  -13701  -13719      23
   13653   13680  -13665  -13650      23   13674   13644  -13656  -13671      23
   13665   13668  -13653  -13641      23   13635   13662  -13647  -13638      23
   13653   13638  -13641  -13632      23   13644   13647  -13635  -13632      23
   13923   13926  -13911  -13893      23   13872   13875  -13893  -13911      23
   13845   13872  -13857  -13842      23   13866   13836  -13848  -13863      23
   13857   13860  -13845  -13833      23   13827   13854  -13839  -13830      23
   13845   13830  -13833  -13824      23   13836   13839  -13827  -13824      23
   14115   14118  -14103  -14085      23   14064   14067  -14085  -14103      23
   14037   14064  -14049  -14034      23   14058   14028  -14040  -14055      23
   14049   14052  -14037  -14025      23   14019   14046  -14031  -14022      23
   14037   14022  -14025  -14016      23   14028   14031  -14019  -14016      23
   14307   14310  -14295  -14277      23   14256   14259  -14277  -14295      23
   14229   14256  -14241  -14226      23   14250   14220  -14232  -14247      23
   14241   14244  -14229  -14217      23   14211   14238  -14223  -14214      23
   14229   14214  -14217  -14208      23   14220   14223  -14211  -14208      23
   14499   14502  -14487  -14469      23   14448   14451  -14469  -14487      23
   14421   14448  -14433  -14418      23   14442   14412  -14424  -14439      23
   14433   14436  -14421  -14409      23   14403   14430  -14415  -14406      23
   14421   14406  -14409  -14400      23   14412   14415  -14403  -14400      23
   14691   14694  -14679  -14661      23   14640   14643  -14661  -14679      23
   14613   14640  -14625  -14610      23   14634   14604  -14616  -14631      23
   14625   14628  -14613  -14601      23   14595   14622  -14607  -14598      23
   14613   14598  -14601  -14592      23   14604   14607  -14595  -14592      23
   14883   14886  -14871  -14853      23   14832   14835  -14853  -14871      23
   14805   14832  -14817  -14802      23   14826   14796  -14808  -14823      23
   14817   14820  -14805  -14793      23   14787   14814  -14799  -14790      23
   14805   14790  -14793  -14784      23   14796   14799  -14787  -14784      23
   15075   15078  -15063  -15045      23   15024   15027  -15045  -15063      23
   14997   15024  -15009  -14994      23   15018   14988  -15000  -15015      23
   15009   15012  -14997  -14985      23   14979   15006  -14991  -14982      23
   14997   14982  -14985  -14976      23   14988   14991  -14979  -14976      23
   15267   15270  -15255  -15237      23   15216   15219  -15237  -15255      23
   15189   15216  -15201  -15186      23   15210   15180  -15192  -15207      23
   15201   15204  -15189  -15177      23   15171   15198  -15183  -15174      23
   15189   15174  -15177  -15168      23   15180   15183  -15171  -15168      23
   15459   15462  -15447  -15429      23   15408   15411  -15429  -15447      23
   15381   15408  -15393  -15378      23   15402   15372  -15384  -15399      23
   15393   15396  -15381  -15369      23   15363   15390  -15375  -15366      23
   15381   15366  -15369  -15360      23   15372   15375  -15363  -15360      23
   15651   15654  -15639  -15621      23   15600   15603  -15621  -15639      23
   15573   15600  -15585  -15570      23   15594   15564  -15576  -15591      23
   15585   15588  -15573  -15561      23   15555   15582  -15567  -15558      23
   15573   15558  -15561  -15552      23   15564   15567  -15555  -15552      23
   15843   15846  -15831  -15813      23   15792   15795  -15813  -15831      23
   15765   15792  -15777  -15762      23   15786   15756  -15768  -15783      23
   15777   15780  -15765  -15753      23   15747   15774  -15759  -15750      23
   15765   15750  -15753  -15744      23   15756   15759  -15747  -15744      23
   16035   16038  -16023  -16005      23   15984   15987  -16005  -16023      23
   15957   15984  -15969  -15954      23   15978   15948  -15960  -15975      23
   15969   15972  -15957  -15945      23   15939   15966  -15951  -15942      23
   15957   15942  -15945  -15936      23   15948   15951  -15939  -15936      23
   16227   16230  -16215  -16197      23   16176   16179  -16197  -16215      23
   16149   16176  -16161  -16146      23   16170   16140  -16152  -16167      23
   16161   16164  -16149  -16137      23   16131   16158  -16143  -16134      23
   16149   16134  -16137  -16128      23   16140   16143  -16131  -16128      23
   16419   16422  -16407  -16389      23   16368   16371  -16389  -16407      23
   16341   16368  -16353  -16338      23   16362   16332  -16344  -16359      23
   16353   16356  -16341  -16329      23   16323   16350  -16335  -16326      23
   16341   16326  -16329  -16320      23   16332   16335  -16323  -16320      23
   16611   16614  -16599  -16581      23   16560   16563  -16581  -16599      23
   16533   16560  -16545  -16530      23   16554   16524  -16536  -16551      23
   16545   16548  -16533  -16521      23   16515   16542  -16527  -16518      23
   16533   16518  -16521  -16512      23   16524   16527  -16515  -16512      23
   16803   16806  -16791  -16773      23   16752   16755  -16773  -16791      23
   16725   16752  -16737  -16722      23   16746   16716  -16728  -16743      23
   16737   16740  -16725  -16713      23   16707   16734  -16719  -16710      23
   16725   16710  -16713  -16704      23   16716   16719  -16707  -16704      23
   16995   16998  -16983  -16965      23   16944   16947  -16965  -16983      23
   16917   16944  -16929  -16914      23   16938   16908  -16920  -16935      23
   16929   16932  -16917  -16905      23   16899   16926  -16911  -16902      23
   16917   16902  -16905  -16896      23   16908   16911  -16899  -16896      23
   17187   17190  -17175  -17157      23   17136   17139  -17157  -17175      23
   17109   17136  -17121  -17106      23   17130   17100  -17112  -17127      23
   17121   17124  -17109  -17097      23   17091   17118  -17103  -17094      23
   17109   17094  -17097  -17088      23   17100   17103  -17091  -17088      23
   17379   17382  -17367  -17349      23   17328   17331  -17349  -17367      23
   17301   17328  -17313  -17298      23   17322   17292  -17304  -17319      23
   17313   17316  -17301  -17289      23   17283   17310  -17295  -17286      23
   17301   17286  -17289  -17280      23   17292   17295  -17283  -17280      23
   17571   17574  -17559  -17541      23   17520   17523  -17541  -17559      23
   17493   17520  -17505  -17490      23   17514   17484  -17496  -17511      23
   17505   17508  -17493  -17481      23   17475   17502  -17487  -17478      23
   17493   17478  -17481  -17472      23   17484   17487  -17475  -17472      23
   17763   17766  -17751  -17733      23   17712   17715  -17733  -17751      23
   17685   17712  -17697  -17682      23   17706   17676  -17688  -17703      23
   17697   17700  -17685  -17673      23   17667   17694  -17679  -17670      23
   17685   17670  -17673  -17664      23   17676   17679  -17667  -17664      23
   17955   17958  -17943  -17925      23   17904   17907  -17925  -17943      23
   17877   17904  -17889  -17874      23   17898   17868  -17880  -17895      23
   17889   17892  -17877  -17865      23   17859   17886  -17871  -17862      23
   17877   17862  -17865  -17856      23   17868   17871  -17859  -17856      23
   18147   18150  -18135  -18117      23   18096   18099  -18117  -18135      23
   18069   18096  -18081  -18066      23   18090   18060  -18072  -18087      23
   18081   18084  -18069  -18057      23   18051   18078  -18063  -18054      23
   18069   18054  -18057  -18048      23   18060   18063  -18051  -18048      23
   18339   18342  -18327  -18309      23   18288   18291  -18309  -18327      23
   18261   18288  -18273  -18258      23   18282   18252  -18264  -18279      23
   18273   18276  -18261  -18249      23   18243   18270  -18255  -18246      23
   18261   18246  -18249  -18240      23   18252   18255  -18243  -18240      23
   18531   18534  -18519  -18501      23   18480   18483  -18501  -18519      23
   18453   18480  -18465  -18450      23   18474   18444  -18456  -18471      23
   18465   18468  -18453  -18441      23   18435   18462  -18447  -18438      23
   18453   18438  -18441  -18432      23   18444   18447  -18435  -18432      23
   18723   18726  -18711  -18693      23   18672   18675  -18693  -18711      23
   18645   18672  -18657  -18642      23   18666   18636  -18648  -18663      23
   18657   18660  -18645  -18633      23   18627   18654  -18639  -18630      23
   18645   18630  -18633  -18624      23   18636   18639  -18627  -18624      23
   18915   18918  -18903  -18885      23   18864   18867  -18885  -18903      23
   18837   18864  -18849  -18834      23   18858   18828  -18840  -18855      23
   18849   18852  -18837  -18825      23   18819   18846  -18831  -18822      23
   18837   18822  -18825  -18816      23   18828   18831  -18819  -18816      23
   19107   19110  -19095  -19077      23   19056   19059  -19077  -19095      23
   19029   19056  -19041  -19026      23   19050   19020  -19032  -19047      23
   19041   19044  -19029  -19017      23   19011   19038  -19023  -19014      23
   19029   19014  -19017  -19008      23   19020   19023  -19011  -19008      23
   19299   19302  -19287  -19269      23   19248   19251  -19269  -19287      23
   19221   19248  -19233  -19218      23   19242   19212  -19224  -19239      23
   19233   19236  -19221  -19209      23   19203   19230  -19215  -19206      23
   19221   19206  -19209  -19200      23   19212   19215  -19203  -19200      23
   19491   19494  -19479  -19461      23   19440   19443  -19461  -19479      23
   19413   19440  -19425  -19410      23   19434   19404  -19416  -19431      23
   19425   19428  -19413  -19401      23   19395   19422  -19407  -19398      23
   19413   19398  -19401  -19392      23   19404   19407  -19395  -19392      23
   19683   19686  -19671  -19653      23   19632   19635  -19653  -19671      23
   19605   19632  -19617  -19602      23   19626   19596  -19608  -19623      23
   19617   19620  -19605  -19593      23   19587   19614  -19599  -19590      23
   19605   19590  -19593  -19584      23   19596   19599  -19587  -19584      23
   19875   19878  -19863  -19845      23   19824   19827  -19845  -19863      23
   19797   19824  -19809  -19794      23   19818   19788  -19800  -19815      23
   19809   19812  -19797  -19785      23   19779   19806  -19791  -19782      23
   19797   19782  -19785  -19776      23   19788   19791  -19779  -19776      23
   20067   20070  -20055  -20037      23   20016   20019  -20037  -20055      23
   19989   20016  -20001  -19986      23   20010   19980  -19992  -20007      23
   20001   20004  -19989  -19977      23   19971   19998  -19983  -19974      23
   19989   19974  -19977  -19968      23   19980   19983  -19971  -19968      23
   20259   20262  -20247  -20229      23   20208   20211  -20229  -20247      23
   20181   20208  -20193  -20178      23   20202   20172  -20184  -20199      23
   20193   20196  -20181  -20169      23   20163   20190  -20175  -20166      23
   20181   20166  -20169  -20160      23   20172   20175  -20163  -20160      23
   20451   20454  -20439  -20421      23   20400   20403  -20421  -20439      23
   20373   20400  -20385  -20370      23   20394   20364  -20376  -20391      23
   20385   20388  -20373  -20361      23   20355   20382  -20367  -20358      23
   20373   20358  -20361  -20352      23   20364   20367  -20355  -20352      23
   20643   20646  -20631  -20613      23   20592   20595  -20613  -20631      23
   20565   20592  -20577  -20562      23   20586   20556  -20568  -20583      23
   20577   20580  -20565  -20553      23   20547   20574  -20559  -20550      23
   20565   20550  -20553  -20544      23   20556   20559  -20547  -20544      23
   20835   20838  -20823  -20805      23   20784   20787  -20805  -20823      23
   20757   20784  -20769  -20754      23   20778   20748  -20760  -20775      23
   20769   20772  -20757  -20745      23   20739   20766  -20751  -20742      23
   20757   20742  -20745  -20736      23   20748   20751  -20739  -20736      23
   21027   21030  -21015  -20997      23   20976   20979  -20997  -21015      23
   20949   20976  -20961  -20946      23   20970   20940  -20952  -20967      23
   20961   20964  -20949  -20937      23   20931   20958  -20943  -20934      23
   20949   20934  -20937  -20928      23   20940   20943  -20931  -20928      23
   21219   21222  -21207  -21189      23   21168   21171  -21189  -21207      23
   21141   21168  -21153  -21138      23   21162   21132  -21144  -21159      23
   21153   21156  -21141  -21129      23   21123   21150  -21135  -21126      23
   21141   21126  -21129  -21120      23   21132   21135  -21123  -21120      23
   21411   21414  -21399  -21381      23   21360   21363  -21381  -21399      23
   21333   21360  -21345  -21330      23   21354   21324  -21336  -21351      23
   21345   21348  -21333  -21321      23   21315   21342  -21327  -21318      23
   21333   21318  -21321  -21312      23   21324   21327  -21315  -21312      23
   21603   21606  -21591  -21573      23   21552   21555  -21573  -21591      23
   21525   21552  -21537  -21522      23   21546   21516  -21528  -21543      23
   21537   21540  -21525  -21513      23   21507   21534  -21519  -21510      23
   21525   21510  -21513  -21504      23   21516   21519  -21507  -21504      23
   21795   21798  -21783  -21765      23   21744   21747  -21765  -21783      23
   21717   21744  -21729  -21714      23   21738   21708  -21720  -21735      23
   21729   21732  -21717  -21705      23   21699   21726  -21711  -21702      23
   21717   21702  -21705  -21696      23   21708   21711  -21699  -21696      23
   21987   21990  -21975  -21957      23   21936   21939  -21957  -21975      23
   21909   21936  -21921  -21906      23   21930   21900  -21912  -21927      23
   21921   21924  -21909  -21897      23   21891   21918  -21903  -21894      23
   21909   21894  -21897  -21888      23   21900   21903  -21891  -21888      23
   22179   22182  -22167  -22149      23   22128   22131  -22149  -22167      23
   22101   22128  -22113  -22098      23   22122   22092  -22104  -22119      23
   22113   22116  -22101  -22089      23   22083   22110  -22095  -22086      23
   22101   22086  -22089  -22080      23   22092   22095  -22083  -22080      23
   22371   22374  -22359  -22341      23   22320   22323  -22341  -22359      23
   22293   22320  -22305  -22290      23   22314   22284  -22296  -22311      23
   22305   22308  -22293  -22281      23   22275   22302  -22287  -22278      23
   22293   22278  -22281  -22272      23   22284   22287  -22275  -22272      23
   22563   22566  -22551  -22533      23   22512   22515  -22533  -22551      23
   22485   22512  -22497  -22482      23   22506   22476  -22488  -22503      23
   22497   22500  -22485  -22473      23   22467   22494  -22479  -22470      23
   22485   22470  -22473  -22464      23   22476   22479  -22467  -22464      23
   22755   22758  -22743  -22725      23   22704   22707  -22725  -22743      23
   22677   22704  -22689  -22674      23   22698   22668  -22680  -22695      23
   22689   22692  -22677  -22665      23   22659   22686  -22671  -22662      23
   22677   22662  -22665  -22656      23   22668   22671  -22659  -22656      23
   22947   22950  -22935  -22917      23   22896   22899  -22917  -22935      23
   22869   22896  -22881  -22866      23   22890   22860  -22872  -22887      23
   22881   22884  -22869  -22857      23   22851   22878  -22863  -22854      23
   22869   22854  -22857  -22848      23   22860   22863  -22851  -22848      23
   23139   23142  -23127  -23109      23   23088   23091  -23109  -23127      23
   23061   23088  -23073  -23058      23   23082   23052  -23064  -23079      23
   23073   23076  -23061  -23049      23   23043   23070  -23055  -23046      23
   23061   23046  -23049  -23040      23   23052   23055  -23043  -23040      23
   23331   23334  -23319  -23301      23   23280   23283  -23301  -23319      23
   23253   23280  -23265  -23250      23   23274   23244  -23256  -23271      23
   23265   23268  -23253  -23241      23   23235   23262  -23247  -23238      23
   23253   23238  -23241  -23232      23   23244   23247  -23235  -23232      23
   23523   23526  -23511  -23493      23   23472   23475  -23493  -23511      23
   23445   23472  -23457  -23442      23   23466   23436  -23448  -23463      23
   23457   23460  -23445  -23433      23   23427   23454  -23439  -23430      23
   23445   23430  -23433  -23424      23   23436   23439  -23427  -23424      23
   23715   23718  -23703  -23685      23   23664   23667  -23685  -23703      23
   23637   23664  -23649  -23634      23   23658   23628  -23640  -23655      23
   23649   23652  -23637  -23625      23   23619   23646  -23631  -23622      23
   23637   23622  -23625  -23616      23   23628   23631  -23619  -23616      23
   23907   23910  -23895  -23877      23   23856   23859  -23877  -23895      23
   23829   23856  -23841  -23826      23   23850   23820  -23832  -23847      23
   23841   23844  -23829  -23817      23   23811   23838  -23823  -23814      23
   23829   23814  -23817  -23808      23   23820   23823  -23811  -23808      23
   24099   24102  -24087  -24069      23   24048   24051  -24069  -24087      23
   24021   24048  -24033  -24018      23   24042   24012  -24024  -24039      23
   24033   24036  -24021  -24009      23   24003   24030  -24015  -24006      23
   24021   24006  -24009  -24000      23   24012   24015  -24003  -24000      23
   24291   24294  -24279  -24261      23   24240   24243  -24261  -24279      23
   24213   24240  -24225  -24210      23   24234   24204  -24216  -24231      23
   24225   24228  -24213  -24201      23   24195   24222  -24207  -24198      23
   24213   24198  -24201  -24192      23   24204   24207  -24195  -24192      23
   24483   24486  -24471  -24453      23   24432   24435  -24453  -24471      23
   24405   24432  -24417  -24402      23   24426   24396  -24408  -24423      23
   24417   24420  -24405  -24393      23   24387   24414  -24399  -24390      23
   24405   24390  -24393  -24384      23   24396   24399  -24387  -24384      23
   24675   24678  -24663  -24645      23   24624   24627  -24645  -24663      23
   24597   24624  -24609  -24594      23   24618   24588  -24600  -24615      23
   24609   24612  -24597  -24585      23   24579   24606  -24591  -24582      23
   24597   24582  -24585  -24576      23   24588   24591  -24579  -24576      23
   24867   24870  -24855  -24837      23   24816   24819  -24837  -24855      23
   24789   24816  -24801  -24786      23   24810   24780  -24792  -24807      23
   24801   24804  -24789  -24777      23   24771   24798  -24783  -24774      23
   24789   24774  -24777  -24768      23   24780   24783  -24771  -24768      23
   25059   25062  -25047  -25029      23   25008   25011  -25029  -25047      23
   24981   25008  -24993  -24978      23   25002   24972  -24984  -24999      23
   24993   24996  -24981  -24969      23   24963   24990  -24975  -24966      23
   24981   24966  -24969  -24960      23   24972   24975  -24963  -24960      23
   25251   25254  -25239  -25221      23   25200   25203  -25221  -25239      23
   25173   25200  -25185  -25170      23   25194   25164  -25176  -25191      23
   25185   25188  -25173  -25161      23   25155   25182  -25167  -25158      23
   25173   25158  -25161  -25152      23   25164   25167  -25155  -25152      23
   25443   25446  -25431  -25413      23   25392   25395  -25413  -25431      23
   25365   25392  -25377  -25362      23   25386   25356  -25368  -25383      23
   25377   25380  -25365  -25353      23   25347   25374  -25359  -25350      23
   25365   25350  -25353  -25344      23   25356   25359  -25347  -25344      23
   25635   25638  -25623  -25605      23   25584   25587  -25605  -25623      23
   25557   25584  -25569  -25554      23   25578   25548  -25560  -25575      23
   25569   25572  -25557  -25545      23   25539   25566  -25551  -25542      23
   25557   25542  -25545  -25536      23   25548   25551  -25539  -25536      23
   25827   25830  -25815  -25797      23   25776   25779  -25797  -25815      23
   25749   25776  -25761  -25746      23   25770   25740  -25752  -25767      23
   25761   25764  -25749  -25737      23   25731   25758  -25743  -25734      23
   25749   25734  -25737  -25728      23   25740   25743  -25731  -25728      23
   26019   26022  -26007  -25989      23   25968   25971  -25989  -26007      23
   25941   25968  -25953  -25938      23   25962   25932  -25944  -25959      23
   25953   25956  -25941  -25929      23   25923   25950  -25935  -25926      23
   25941   25926  -25929  -25920      23   25932   25935  -25923  -25920      23
   26211   26214  -26199  -26181      23   26160   26163  -26181  -26199      23
   26133   26160  -26145  -26130      23   26154   26124  -26136  -26151      23
   26145   26148  -26133  -26121      23   26115   26142  -26127  -26118      23
   26133   26118  -26121  -26112      23   26124   26127  -26115  -26112      23
   26403   26406  -26391  -26373      23   26352   26355  -26373  -26391      23
   26325   26352  -26337  -26322      23   26346   26316  -26328  -26343      23
   26337   26340  -26325  -26313      23   26307   26334  -26319  -26310      23
   26325   26310  -26313  -26304      23   26316   26319  -26307  -26304      23
   26595   26598  -26583  -26565      23   26544   26547  -26565  -26583      23
   26517   26544  -26529  -26514      23   26538   26508  -26520  -26535      23
   26529   26532  -26517  -26505      23   26499   26526  -26511  -26502      23
   26517   26502  -26505  -26496      23   26508   26511  -26499  -26496      23
   26787   26790  -26775  -26757      23   26736   26739  -26757  -26775      23
   26709   26736  -26721  -26706      23   26730   26700  -26712  -26727      23
   26721   26724  -26709  -26697      23   26691   26718  -26703  -26694      23
   26709   26694  -26697  -26688      23   26700   26703  -26691  -26688      23
   26979   26982  -26967  -26949      23   26928   26931  -26949  -26967      23
   26901   26928  -26913  -26898      23   26922   26892  -26904  -26919      23
   26913   26916  -26901  -26889      23   26883   26910  -26895  -26886      23
   26901   26886  -26889  -26880      23   26892   26895  -26883  -26880      23
   27171   27174  -27159  -27141      23   27120   27123  -27141  -27159      23
   27093   27120  -27105  -27090      23   27114   27084  -27096  -27111      23
   27105   27108  -27093  -27081      23   27075   27102  -27087  -27078      23
   27093   27078  -27081  -27072      23   27084   27087  -27075  -27072      23
   27363   27366  -27351  -27333      23   27312   27315  -27333  -27351      23
   27285   27312  -27297  -27282      23   27306   27276  -27288  -27303      23
   27297   27300  -27285  -27273      23   27267   27294  -27279  -27270      23
   27285   27270  -27273  -27264      23   27276   27279  -27267  -27264      23
   27555   27558  -27543  -27525      23   27504   27507  -27525  -27543      23
   27477   27504  -27489  -27474      23   27498   27468  -27480  -27495      23
   27489   27492  -27477  -27465      23   27459   27486  -27471  -27462      23
   27477   27462  -27465  -27456      23   27468   27471  -27459  -27456      23
   27747   27750  -27735  -27717      23   27696   27699  -27717  -27735      23
   27669   27696  -27681  -27666      23   27690   27660  -27672  -27687      23
   27681   27684  -27669  -27657      23   27651   27678  -27663  -27654      23
   27669   27654  -27657  -27648      23   27660   27663  -27651  -27648      23
   27939   27942  -27927  -27909      23   27888   27891  -27909  -27927      23
   27861   27888  -27873  -27858      23   27882   27852  -27864  -27879      23
   27873   27876  -27861  -27849      23   27843   27870  -27855  -27846      23
   27861   27846  -27849  -27840      23   27852   27855  -27843  -27840      23
   28131   28134  -28119  -28101      23   28080   28083  -28101  -28119      23
   28053   28080  -28065  -28050      23   28074   28044  -28056  -28071      23
   28065   28068  -28053  -28041      23   28035   28062  -28047  -28038      23
   28053   28038  -28041  -28032      23   28044   28047  -28035  -28032      23
   28323   28326  -28311  -28293      23   28272   28275  -28293  -28311      23
   28245   28272  -28257  -28242      23   28266   28236  -28248  -28263      23
   28257   28260  -28245  -28233      23   28227   28254  -28239  -28230      23
   28245   28230  -28233  -28224      23   28236   28239  -28227  -28224      23
   28515   28518  -28503  -28485      23   28464   28467  -28485  -28503      23
   28437   28464  -28449  -28434      23   28458   28428  -28440  -28455      23
   28449   28452  -28437  -28425      23   28419   28446  -28431  -28422      23
   28437   28422  -28425  -28416      23   28428   28431  -28419  -28416      23
   28707   28710  -28695  -28677      23   28656   28659  -28677  -28695      23
   28629   28656  -28641  -28626      23   28650   28620  -28632  -28647      23
   28641   28644  -28629  -28617      23   28611   28638  -28623  -28614      23
   28629   28614  -28617  -28608      23   28620   28623  -28611  -28608      23
   28899   28902  -28887  -28869      23   28848   28851  -28869  -28887      23
   28821   28848  -28833  -28818      23   28842   28812  -28824  -28839      23
   28833   28836  -28821  -28809      23   28803   28830  -28815  -28806      23
   28821   28806  -28809  -28800      23   28812   28815  -28803  -28800      23
   29091   29094  -29079  -29061      23   29040   29043  -29061  -29079      23
   29013   29040  -29025  -29010      23   29034   29004  -29016  -29031      23
   29025   29028  -29013  -29001      23   28995   29022  -29007  -28998      23
   29013   28998  -29001  -28992      23   29004   29007  -28995  -28992      23
   29283   29286  -29271  -29253      23   29232   29235  -29253  -29271      23
   29205   29232  -29217  -29202      23   29226   29196  -29208  -29223      23
   29217   29220  -29205  -29193      23   29187   29214  -29199  -29190      23
   29205   29190  -29193  -29184      23   29196   29199  -29187  -29184      23
   29475   29478  -29463  -29445      23   29424   29427  -29445  -29463      23
   29397   29424  -29409  -29394      23   29418   29388  -29400  -29415      23
   29409   29412  -29397  -29385      23   29379   29406  -29391  -29382      23
   29397   29382  -29385  -29376      23   29388   29391  -29379  -29376      23
   29667   29670  -29655  -29637      23   29616   29619  -29637  -29655      23
   29589   29616  -29601  -29586      23   29610   29580  -29592  -29607      23
   29601   29604  -29589  -29577      23   29571   29598  -29583  -29574      23
   29589   29574  -29577  -29568      23   29580   29583  -29571  -29568      23
   29859   29862  -29847  -29829      23   29808   29811  -29829  -29847      23
   29781   29808  -29793  -29778      23   29802   29772  -29784  -29799      23
   29793   29796  -29781  -29769      23   29763   29790  -29775  -29766      23
   29781   29766  -29769  -29760      23   29772   29775  -29763  -29760      23
   30051   30054  -30039  -30021      23   30000   30003  -30021  -30039      23
   29973   30000  -29985  -29970      23   29994   29964  -29976  -29991      23
   29985   29988  -29973  -29961      23   29955   29982  -29967  -29958      23
   29973   29958  -29961  -29952      23   29964   29967  -29955  -29952      23
   30243   30246  -30231  -30213      23   30192   30195  -30213  -30231      23
   30165   30192  -30177  -30162      23   30186   30156  -30168  -30183      23
   30177   30180  -30165  -30153      23   30147   30174  -30159  -30150      23
   30165   30150  -30153  -30144      23   30156   30159  -30147  -30144      23
   30435   30438  -30423  -30405      23   30384   30387  -30405  -30423      23
   30357   30384  -30369  -30354      23   30378   30348  -30360  -30375      23
   30369   30372  -30357  -30345      23   30339   30366  -30351  -30342      23
   30357   30342  -30345  -30336      23   30348   30351  -30339  -30336      23
   30627   30630  -30615  -30597      23   30576   30579  -30597  -30615      23
   30549   30576  -30561  -30546      23   30570   30540  -30552  -30567      23
   30561   30564  -30549  -30537      23   30531   30558  -30543  -30534      23
   30549   30534  -30537  -30528      23   30540   30543  -30531  -30528      23
   30819   30822  -30807  -30789      23   30768   30771  -30789  -30807      23
   30741   30768  -30753  -30738      23   30762   30732  -30744  -30759      23
   30753   30756  -30741  -30729      23   30723   30750  -30735  -30726      23
   30741   30726  -30729  -30720      23   30732   30735  -30723  -30720      23
   31011   31014  -30999  -30981      23   30960   30963  -30981  -30999      23
   30933   30960  -30945  -30930      23   30954   30924  -30936  -30951      23
   30945   30948  -30933  -30921      23   30915   30942  -30927  -30918      23
   30933   30918  -30921  -30912      23   30924   30927  -30915  -30912      23
   31203   31206  -31191  -31173      23   31152   31155  -31173  -31191      23
   31125   31152  -31137  -31122      23   31146   31116  -31128  -31143      23
   31137   31140  -31125  -31113      23   31107   31134  -31119  -31110      23
   31125   31110  -31113  -31104      23   31116   31119  -31107  -31104      23
   31395   31398  -31383  -31365      23   31344   31347  -31365  -31383      23
   31317   31344  -31329  -31314      23   31338   31308  -31320  -31335      23
   31329   31332  -31317  -31305      23   31299   31326  -31311  -31302      23
   31317   31302  -31305  -31296      23   31308   31311  -31299  -31296      23
   31587   31590  -31575  -31557      23   31536   31539  -31557  -31575      23
   31509   31536  -31521  -31506      23   31530   31500  -31512  -31527      23
   31521   31524  -31509  -31497      23   31491   31518  -31503  -31494      23
   31509   31494  -31497  -31488      23   31500   31503  -31491  -31488      23
   31779   31782  -31767  -31749      23   31728   31731  -31749  -31767      23
   31701   31728  -31713  -31698      23   31722   31692  -31704  -31719      23
   31713   31716  -31701  -31689      23   31683   31710  -31695  -31686      23
   31701   31686  -31689  -31680      23   31692   31695  -31683  -31680      23
   31971   31974  -31959  -31941      23   31920   31923  -31941  -31959      23
   31893   31920  -31905  -31890      23   31914   31884  -31896  -31911      23
   31905   31908  -31893  -31881      23   31875   31902  -31887  -31878      23
   31893   31878  -31881  -31872      23   31884   31887  -31875  -31872      23
   32163   32166  -32151  -32133      23   32112   32115  -32133  -32151      23
   32085   32112  -32097  -32082      23   32106   32076  -32088  -32103      23
   32097   32100  -32085  -32073      23   32067   32094  -32079  -32070      23
   32085   32070  -32073  -32064      23   32076   32079  -32067  -32064      23
   32355   32358  -32343  -32325      23   32304   32307  -32325  -32343      23
   32277   32304  -32289  -32274      23   32298   32268  -32280  -32295      23
   32289   32292  -32277  -32265      23   32259   32286  -32271  -32262      23
   32277   32262  -32265  -32256      23   32268   32271  -32259  -32256      23
   32547   32550  -32535  -32517      23   32496   32499  -32517  -32535      23
   32469   32496  -32481  -32466      23   32490   32460  -32472  -32487      23
   32481   32484  -32469  -32457      23   32451   32478  -32463  -32454      23
   32469   32454  -32457  -32448      23   32460   32463  -32451  -32448      23
   32739   32742  -32727  -32709      23   32688   32691  -32709  -32727      23
   32661   32688  -32673  -32658      23   32682   32652  -32664  -32679      23
   32673   32676  -32661  -32649      23   32643   32670  -32655  -32646      23
   32661   32646  -32649  -32640      23   32652   32655  -32643  -32640      23
   32931   32934  -32919  -32901      23   32880   32883  -32901  -32919      23
   32853   32880  -32865  -32850      23   32874   32844  -32856  -32871      23
   32865   32868  -32853  -32841      23   32835   32862  -32847  -32838      23
   32853   32838  -32841  -32832      23   32844   32847  -32835  -32832      23
   33123   33126  -33111  -33093      23   33072   33075  -33093  -33111      23
   33045   33072  -33057  -33042      23   33066   33036  -33048  -33063      23
   33057   33060  -33045  -33033      23   33027   33054  -33039  -33030      23
   33045   33030  -33033  -33024      23   33036   33039  -33027  -33024      23
   33315   33318  -33303  -33285      23   33264   33267  -33285  -33303      23
   33237   33264  -33249  -33234      23   33258   33228  -33240  -33255      23
   33249   33252  -33237  -33225      23   33219   33246  -33231  -33222      23
   33237   33222  -33225  -33216      23   33228   33231  -33219  -33216      23
   33507   33510  -33495  -33477      23   33456   33459  -33477  -33495      23
   33429   33456  -33441  -33426      23   33450   33420  -33432  -33447      23
   33441   33444  -33429  -33417      23   33411   33438  -33423  -33414      23
   33429   33414  -33417  -33408      23   33420   33423  -33411  -33408      23
   33699   33702  -33687  -33669      23   33648   33651  -33669  -33687      23
   33621   33648  -33633  -33618      23   33642   33612  -33624  -33639      23
   33633   33636  -33621  -33609      23   33603   33630  -33615  -33606      23
   33621   33606  -33609  -33600      23   33612   33615  -33603  -33600      23
   33891   33894  -33879  -33861      23   33840   33843  -33861  -33879      23
   33813   33840  -33825  -33810      23   33834   33804  -33816  -33831      23
   33825   33828  -33813  -33801      23   33795   33822  -33807  -33798      23
   33813   33798  -33801  -33792      23   33804   33807  -33795  -33792      23
   34083   34086  -34071  -34053      23   34032   34035  -34053  -34071      23
   34005   34032  -34017  -34002      23   34026   33996  -34008  -34023      23
   34017   34020  -34005  -33993      23   33987   34014  -33999  -33990      23
   34005   33990  -33993  -33984      23   33996   33999  -33987  -33984      23
   34275   34278  -34263  -34245      23   34224   34227  -34245  -34263      23
   34197   34224  -34209  -34194      23   34218   34188  -34200  -34215      23
   34209   34212  -34197  -34185      23   34179   34206  -34191  -34182      23
   34197   34182  -34185  -34176      23   34188   34191  -34179  -34176      23
   34467   34470  -34455  -34437      23   34416   34419  -34437  -34455      23
   34389   34416  -34401  -34386      23   34410   34380  -34392  -34407      23
   34401   34404  -34389  -34377      23   34371   34398  -34383  -34374      23
   34389   34374  -34377  -34368      23   34380   34383  -34371  -34368      23
   34659   34662  -34647  -34629      23   34608   34611  -34629  -34647      23
   34581   34608  -34593  -34578      23   34602   34572  -34584  -34599      23
   34593   34596  -34581  -34569      23   34563   34590  -34575  -34566      23
   34581   34566  -34569  -34560      23   34572   34575  -34563  -34560      23
   34851   34854  -34839  -34821      23   34800   34803  -34821  -34839      23
   34773   34800  -34785  -34770      23   34794   34764  -34776  -34791      23
   34785   34788  -34773  -34761      23   34755   34782  -34767  -34758      23
   34773   34758  -34761  -34752      23   34764   34767  -34755  -34752      23
   35043   35046  -35031  -35013      23   34992   34995  -35013  -35031      23
   34965   34992  -34977  -34962      23   34986   34956  -34968  -34983      23
   34977   34980  -34965  -34953      23   34947   34974  -34959  -34950      23
   34965   34950  -34953  -34944      23   34956   34959  -34947  -34944      23
   35235   35238  -35223  -35205      23   35184   35187  -35205  -35223      23
   35157   35184  -35169  -35154      23   35178   35148  -35160  -35175      23
   35169   35172  -35157  -35145      23   35139   35166  -35151  -35142      23
   35157   35142  -35145  -35136      23   35148   35151  -35139  -35136      23
   35427   35430  -35415  -35397      23   35376   35379  -35397  -35415      23
   35349   35376  -35361  -35346      23   35370   35340  -35352  -35367      23
   35361   35364  -35349  -35337      23   35331   35358  -35343  -35334      23
   35349   35334  -35337  -35328      23   35340   35343  -35331  -35328      23
   35619   35622  -35607  -35589      23   35568   35571  -35589  -35607      23
   35541   35568  -35553  -35538      23   35562   35532  -35544  -35559      23
   35553   35556  -35541  -35529      23   35523   35550  -35535  -35526      23
   35541   35526  -35529  -35520      23   35532   35535  -35523  -35520      23
   35811   35814  -35799  -35781      23   35760   35763  -35781  -35799      23
   35733   35760  -35745  -35730      23   35754   35724  -35736  -35751      23
   35745   35748  -35733  -35721      23   35715   35742  -35727  -35718      23
   35733   35718  -35721  -35712      23   35724   35727  -35715  -35712      23
   36003   36006  -35991  -35973      23   35952   35955  -35973  -35991      23
   35925   35952  -35937  -35922      23   35946   35916  -35928  -35943      23
   35937   35940  -35925  -35913      23   35907   35934  -35919  -35910      23
   35925   35910  -35913  -35904      23   35916   35919  -35907  -35904      23
   36195   36198  -36183  -36165      23   36144   36147  -36165  -36183      23
   36117   36144  -36129  -36114      23   36138   36108  -36120  -36135      23
   36129   36132  -36117  -36105      23   36099   36126  -36111  -36102      23
   36117   36102  -36105  -36096      23   36108   36111  -36099  -36096      23
   36387   36390  -36375  -36357      23   36336   36339  -36357  -36375      23
   36309   36336  -36321  -36306      23   36330   36300  -36312  -36327      23
   36321   36324  -36309  -36297      23   36291   36318  -36303  -36294      23
   36309   36294  -36297  -36288      23   36300   36303  -36291  -36288      23
   36579   36582  -36567  -36549      23   36528   36531  -36549  -36567      23
   36501   36528  -36513  -36498      23   36522   36492  -36504  -36519      23
   36513   36516  -36501  -36489      23   36483   36510  -36495  -36486      23
   36501   36486  -36489  -36480      23   36492   36495  -36483  -36480      23
   36771   36774  -36759  -36741      23   36720   36723  -36741  -36759      23
   36693   36720  -36705  -36690      23   36714   36684  -36696  -36711      23
   36705   36708  -36693  -36681      23   36675   36702  -36687  -36678      23
   36693   36678  -36681  -36672      23   36684   36687  -36675  -36672      23
   36963   36966  -36951  -36933      23   36912   36915  -36933  -36951      23
   36885   36912  -36897  -36882      23   36906   36876  -36888  -36903      23
   36897   36900  -36885  -36873      23   36867   36894  -36879  -36870      23
   36885   36870  -36873  -36864      23   36876   36879  -36867  -36864      23
   37155   37158  -37143  -37125      23   37104   37107  -37125  -37143      23
   37077   37104  -37089  -37074      23   37098   37068  -37080  -37095      23
   37089   37092  -37077  -37065      23   37059   37086  -37071  -37062      23
   37077   37062  -37065  -37056      23   37068   37071  -37059  -37056      23
   37347   37350  -37335  -37317      23   37296   37299  -37317  -37335      23
   37269   37296  -37281  -37266      23   37290   37260  -37272  -37287      23
   37281   37284  -37269  -37257      23   37251   37278  -37263  -37254      23
   37269   37254  -37257  -37248      23   37260   37263  -37251  -37248      23
   37539   37542  -37527  -37509      23   37488   37491  -37509  -37527      23
   37461   37488  -37473  -37458      23   37482   37452  -37464  -37479      23
   37473   37476  -37461  -37449      23   37443   37470  -37455  -37446      23
   37461   37446  -37449  -37440      23   37452   37455  -37443  -37440      23
   37731   37734  -37719  -37701      23   37680   37683  -37701  -37719      23
   37653   37680  -37665  -37650      23   37674   37644  -37656  -37671      23
   37665   37668  -37653  -37641      23   37635   37662  -37647  -37638      23
   37653   37638  -37641  -37632      23   37644   37647  -37635  -37632      23
   37923   37926  -37911  -37893      23   37872   37875  -37893  -37911      23
   37845   37872  -37857  -37842      23   37866   37836  -37848  -37863      23
   37857   37860  -37845  -37833      23   37827   37854  -37839  -37830      23
   37845   37830  -37833  -37824      23   37836   37839  -37827  -37824      23
   38115   38118  -38103  -38085      23   38064   38067  -38085  -38103      23
   38037   38064  -38049  -38034      23   38058   38028  -38040  -38055      23
   38049   38052  -38037  -38025      23   38019   38046  -38031  -38022      23
   38037   38022  -38025  -38016      23   38028   38031  -38019  -38016      23
   38307   38310  -38295  -38277      23   38256   38259  -38277  -38295      23
   38229   38256  -38241  -38226      23   38250   38220  -38232  -38247      23
   38241   38244  -38229  -38217      23   38211   38238  -38223  -38214      23
   38229   38214  -38217  -38208      23   38220   38223  -38211  -38208      23
   38499   38502  -38487  -38469      23   38448   38451  -38469  -38487      23
   38421   38448  -38433  -38418      23   38442   38412  -38424  -38439      23
   38433   38436  -38421  -38409      23   38403   38430  -38415  -38406      23
   38421   38406  -38409  -38400      23   38412   38415  -38403  -38400      23
   38691   38694  -38679  -38661      23   38640   38643  -38661  -38679      23
   38613   38640  -38625  -38610      23   38634   38604  -38616  -38631      23
   38625   38628  -38613  -38601      23   38595   38622  -38607  -38598      23
   38613   38598  -38601  -38592      23   38604   38607  -38595  -38592      23
   38883   38886  -38871  -38853      23   38832   38835  -38853  -38871      23
   38805   38832  -38817  -38802      23   38826   38796  -38808  -38823      23
   38817   38820  -38805  -38793      23   38787   38814  -38799  -38790      23
   38805   38790  -38793  -38784      23   38796   38799  -38787  -38784      23
   39075   39078  -39063  -39045      23   39024   39027  -39045  -39063      23
   38997   39024  -39009  -38994      23   39018   38988  -39000  -39015      23
   39009   39012  -38997  -38985      23   38979   39006  -38991  -38982      23
   38997   38982  -38985  -38976      23   38988   38991  -38979  -38976      23
   39267   39270  -39255  -39237      23   39216   39219  -39237  -39255      23
   39189   39216  -39201  -39186      23   39210   39180  -39192  -39207      23
   39201   39204  -39189  -39177      23   39171   39198  -39183  -39174      23
   39189   39174  -39177  -39168      23   39180   39183  -39171  -39168      23
   39459   39462  -39447  -39429      23   39408   39411  -39429  -39447      23
   39381   39408  -39393  -39378      23   39402   39372  -39384  -39399      23
   39393   39396  -39381  -39369      23   39363   39390  -39375  -39366      23
   39381   39366  -39369  -39360      23   39372   39375  -39363  -39360      23
   39651   39654  -39639  -39621      23   39600   39603  -39621  -39639      23
   39573   39600  -39585  -39570      23   39594   39564  -39576  -39591      23
   39585   39588  -39573  -39561      23   39555   39582  -39567  -39558      23
   39573   39558  -39561  -39552      23   39564   39567  -39555  -39552      23
   39843   39846  -39831  -39813      23   39792   39795  -39813  -39831      23
   39765   39792  -39777  -39762      23   39786   39756  -39768  -39783      23
   39777   39780  -39765  -39753      23   39747   39774  -39759  -39750      23
   39765   39750  -39753  -39744      23   39756   39759  -39747  -39744      23
   40035   40038  -40023  -40005      23   39984   39987  -40005  -40023      23
   39957   39984  -39969  -39954      23   39978   39948  -39960  -39975      23
   39969   39972  -39957  -39945      23   39939   39966  -39951  -39942      23
   39957   39942  -39945  -39936      23   39948   39951  -39939  -39936      23
   40227   40230  -40215  -40197      23   40176   40179  -40197  -40215      23
   40149   40176  -40161  -40146      23   40170   40140  -40152  -40167      23
   40161   40164  -40149  -40137      23   40131   40158  -40143  -40134      23
   40149   40134  -40137  -40128      23   40140   40143  -40131  -40128      23
   40419   40422  -40407  -40389      23   40368   40371  -40389  -40407      23
   40341   40368  -40353  -40338      23   40362   40332  -40344  -40359      23
   40353   40356  -40341  -40329      23   40323   40350  -40335  -40326      23
   40341   40326  -40329  -40320      23   40332   40335  -40323  -40320      23
   40611   40614  -40599  -40581      23   40560   40563  -40581  -40599      23
   40533   40560  -40545  -40530      23   40554   40524  -40536  -40551      23
   40545   40548  -40533  -40521      23   40515   40542  -40527  -40518      23
   40533   40518  -40521  -40512      23   40524   40527  -40515  -40512      23
   40803   40806  -40791  -40773      23   40752   40755  -40773  -40791      23
   40725   40752  -40737  -40722      23   40746   40716  -40728  -40743      23
   40737   40740  -40725  -40713      23   40707   40734  -40719  -40710      23
   40725   40710  -40713  -40704      23   40716   40719  -40707  -40704      23
   40995   40998  -40983  -40965      23   40944   40947  -40965  -40983      23
   40917   40944  -40929  -40914      23   40938   40908  -40920  -40935      23
   40929   40932  -40917  -40905      23   40899   40926  -40911  -40902      23
   40917   40902  -40905  -40896      23   40908   40911  -40899  -40896      23
   41187   41190  -41175  -41157      23   41136   41139  -41157  -41175      23
   41109   41136  -41121  -41106      23   41130   41100  -41112  -41127      23
   41121   41124  -41109  -41097      23   41091   41118  -41103  -41094      23
   41109   41094  -41097  -41088      23   41100   41103  -41091  -41088      23
   41379   41382  -41367  -41349      23   41328   41331  -41349  -41367      23
   41301   41328  -41313  -41298      23   41322   41292  -41304  -41319      23
   41313   41316  -41301  -41289      23   41283   41310  -41295  -41286      23
   41301   41286  -41289  -41280      23   41292   41295  -41283  -41280      23
   41571   41574  -41559  -41541      23   41520   41523  -41541  -41559      23
   41493   41520  -41505  -41490      23   41514   41484  -41496  -41511      23
   41505   41508  -41493  -41481      23   41475   41502  -41487  -41478      23
   41493   41478  -41481  -41472      23   41484   41487  -41475  -41472      23
   41763   41766  -41751  -41733      23   41712   41715  -41733  -41751      23
   41685   41712  -41697  -41682      23   41706   41676  -41688  -41703      23
   41697   41700  -41685  -41673      23   41667   41694  -41679  -41670      23
   41685   41670  -41673  -41664      23   41676   41679  -41667  -41664      23
   41955   41958  -41943  -41925      23   41904   41907  -41925  -41943      23
   41877   41904  -41889  -41874      23   41898   41868  -41880  -41895      23
   41889   41892  -41877  -41865      23   41859   41886  -41871  -41862      23
   41877   41862  -41865  -41856      23   41868   41871  -41859  -41856      23
   42147   42150  -42135  -42117      23   42096   42099  -42117  -42135      23
   42069   42096  -42081  -42066      23   42090   42060  -42072  -42087      23
   42081   42084  -42069  -42057      23   42051   42078  -42063  -42054      23
   42069   42054  -42057  -42048      23   42060   42063  -42051  -42048      23
   42339   42342  -42327  -42309      23   42288   42291  -42309  -42327      23
   42261   42288  -42273  -42258      23   42282   42252  -42264  -42279      23
   42273   42276  -42261  -42249      23   42243   42270  -42255  -42246      23
   42261   42246  -42249  -42240      23   42252   42255  -42243  -42240      23
   42531   42534  -42519  -42501      23   42480   42483  -42501  -42519      23
   42453   42480  -42465  -42450      23   42474   42444  -42456  -42471      23
   42465   42468  -42453  -42441      23   42435   42462  -42447  -42438      23
   42453   42438  -42441  -42432      23   42444   42447  -42435  -42432      23
   42723   42726  -42711  -42693      23   42672   42675  -42693  -42711      23
   42645   42672  -42657  -42642      23   42666   42636  -42648  -42663      23
   42657   42660  -42645  -42633      23   42627   42654  -42639  -42630      23
   42645   42630  -42633  -42624      23   42636   42639  -42627  -42624      23
   42915   42918  -42903  -42885      23   42864   42867  -42885  -42903      23
   42837   42864  -42849  -42834      23   42858   42828  -42840  -42855      23
   42849   42852  -42837  -42825      23   42819   42846  -42831  -42822      23
   42837   42822  -42825  -42816      23   42828   42831  -42819  -42816      23
   43107   43110  -43095  -43077      23   43056   43059  -43077  -43095      23
   43029   43056  -43041  -43026      23   43050   43020  -43032  -43047      23
   43041   43044  -43029  -43017      23   43011   43038  -43023  -43014      23
   43029   43014  -43017  -43008      23   43020   43023  -43011  -43008      23
   43299   43302  -43287  -43269      23   43248   43251  -43269  -43287      23
   43221   43248  -43233  -43218      23   43242   43212  -43224  -43239      23
   43233   43236  -43221  -43209      23   43203   43230  -43215  -43206      23
   43221   43206  -43209  -43200      23   43212   43215  -43203  -43200      23
   43491   43494  -43479  -43461      23   43440   43443  -43461  -43479      23
   43413   43440  -43425  -43410      23   43434   43404  -43416  -43431      23
   43425   43428  -43413  -43401      23   43395   43422  -43407  -43398      23
   43413   43398  -43401  -43392      23   43404   43407  -43395  -43392      23
   43683   43686  -43671  -43653      23   43632   43635  -43653  -43671      23
   43605   43632  -43617  -43602      23   43626   43596  -43608  -43623      23
   43617   43620  -43605  -43593      23   43587   43614  -43599  -43590      23
   43605   43590  -43593  -43584      23   43596   43599  -43587  -43584      23
   43875   43878  -43863  -43845      23   43824   43827  -43845  -43863      23
   43797   43824  -43809  -43794      23   43818   43788  -43800  -43815      23
   43809   43812  -43797  -43785      23   43779   43806  -43791  -43782      23
   43797   43782  -43785  -43776      23   43788   43791  -43779  -43776      23
   44067   44070  -44055  -44037      23   44016   44019  -44037  -44055      23
   43989   44016  -44001  -43986      23   44010   43980  -43992  -44007      23
   44001   44004  -43989  -43977      23   43971   43998  -43983  -43974      23
   43989   43974  -43977  -43968      23   43980   43983  -43971  -43968      23
   44259   44262  -44247  -44229      23   44208   44211  -44229  -44247      23
   44181   44208  -44193  -44178      23   44202   44172  -44184  -44199      23
   44193   44196  -44181  -44169      23   44163   44190  -44175  -44166      23
   44181   44166  -44169  -44160      23   44172   44175  -44163  -44160      23
   44451   44454  -44439  -44421      23   44400   44403  -44421  -44439      23
   44373   44400  -44385  -44370      23   44394   44364  -44376  -44391      23
   44385   44388  -44373  -44361      23   44355   44382  -44367  -44358      23
   44373   44358  -44361  -44352      23   44364   44367  -44355  -44352      23
   44643   44646  -44631  -44613      23   44592   44595  -44613  -44631      23
   44565   44592  -44577  -44562      23   44586   44556  -44568  -44583      23
   44577   44580  -44565  -44553      23   44547   44574  -44559  -44550      23
   44565   44550  -44553  -44544      23   44556   44559  -44547  -44544      23
   44835   44838  -44823  -44805      23   44784   44787  -44805  -44823      23
   44757   44784  -44769  -44754      23   44778   44748  -44760  -44775      23
   44769   44772  -44757  -44745      23   44739   44766  -44751  -44742      23
   44757   44742  -44745  -44736      23   44748   44751  -44739  -44736      23
   45027   45030  -45015  -44997      23   44976   44979  -44997  -45015      23
   44949   44976  -44961  -44946      23   44970   44940  -44952  -44967      23
   44961   44964  -44949  -44937      23   44931   44958  -44943  -44934      23
   44949   44934  -44937  -44928      23   44940   44943  -44931  -44928      23
   45219   45222  -45207  -45189      23   45168   45171  -45189  -45207      23
   45141   45168  -45153  -45138      23   45162   45132  -45144  -45159      23
   45153   45156  -45141  -45129      23   45123   45150  -45135  -45126      23
   45141   45126  -45129  -45120      23   45132   45135  -45123  -45120      23
   45411   45414  -45399  -45381      23   45360   45363  -45381  -45399      23
   45333   45360  -45345  -45330      23   45354   45324  -45336  -45351      23
   45345   45348  -45333  -45321      23   45315   45342  -45327  -45318      23
   45333   45318  -45321  -45312      23   45324   45327  -45315  -45312      23
   45603   45606  -45591  -45573      23   45552   45555  -45573  -45591      23
   45525   45552  -45537  -45522      23   45546   45516  -45528  -45543      23
   45537   45540  -45525  -45513      23   45507   45534  -45519  -45510      23
   45525   45510  -45513  -45504      23   45516   45519  -45507  -45504      23
   45795   45798  -45783  -45765      23   45744   45747  -45765  -45783      23
   45717   45744  -45729  -45714      23   45738   45708  -45720  -45735      23
   45729   45732  -45717  -45705      23   45699   45726  -45711  -45702      23
   45717   45702  -45705  -45696      23   45708   45711  -45699  -45696      23
   45987   45990  -45975  -45957      23   45936   45939  -45957  -45975      23
   45909   45936  -45921  -45906      23   45930   45900  -45912  -45927      23
   45921   45924  -45909  -45897      23   45891   45918  -45903  -45894      23
   45909   45894  -45897  -45888      23   45900   45903  -45891  -45888      23
   46179   46182  -46167  -46149      23   46128   46131  -46149  -46167      23
   46101   46128  -46113  -46098      23   46122   46092  -46104  -46119      23
   46113   46116  -46101  -46089      23   46083   46110  -46095  -46086      23
   46101   46086  -46089  -46080      23   46092   46095  -46083  -46080      23
   46371   46374  -46359  -46341      23   46320   46323  -46341  -46359      23
   46293   46320  -46305  -46290      23   46314   46284  -46296  -46311      23
   46305   46308  -46293  -46281      23   46275   46302  -46287  -46278      23
   46293   46278  -46281  -46272      23   46284   46287  -46275  -46272      23
   46563   46566  -46551  -46533      23   46512   46515  -46533  -46551      23
   46485   46512  -46497  -46482      23   46506   46476  -46488  -46503      23
   46497   46500  -46485  -46473      23   46467   46494  -46479  -46470      23
   46485   46470  -46473  -46464      23   46476   46479  -46467  -46464      23
   46755   46758  -46743  -46725      23   46704   46707  -46725  -46743      23
   46677   46704  -46689  -46674      23   46698   46668  -46680  -46695      23
   46689   46692  -46677  -46665      23   46659   46686  -46671  -46662      23
   46677   46662  -46665  -46656      23   46668   46671  -46659  -46656      23
   46947   46950  -46935  -46917      23   46896   46899  -46917  -46935      23
   46869   46896  -46881  -46866      23   46890   46860  -46872  -46887      23
   46881   46884  -46869  -46857      23   46851   46878  -46863  -46854      23
   46869   46854  -46857  -46848      23   46860   46863  -46851  -46848      23
   47139   47142  -47127  -47109      23   47088   47091  -47109  -47127      23
   47061   47088  -47073  -47058      23   47082   47052  -47064  -47079      23
   47073   47076  -47061  -47049      23   47043   47070  -47055  -47046      23
   47061   47046  -47049  -47040      23   47052   47055  -47043  -47040      23
   47331   47334  -47319  -47301      23   47280   47283  -47301  -47319      23
   47253   47280  -47265  -47250      23   47274   47244  -47256  -47271      23
   47265   47268  -47253  -47241      23   47235   47262  -47247  -47238      23
   47253   47238  -47241  -47232      23   47244   47247  -47235  -47232      23
   47523   47526  -47511  -47493      23   47472   47475  -47493  -47511      23
   47445   47472  -47457  -47442      23   47466   47436  -47448  -47463      23
   47457   47460  -47445  -47433      23   47427   47454  -47439  -47430      23
   47445   47430  -47433  -47424      23   47436   47439  -47427  -47424      23
   47715   47718  -47703  -47685      23   47664   47667  -47685  -47703      23
   47637   47664  -47649  -47634      23   47658   47628  -47640  -47655      23
   47649   47652  -47637  -47625      23   47619   47646  -47631  -47622      23
   47637   47622  -47625  -47616      23   47628   47631  -47619  -47616      23
   47907   47910  -47895  -47877      23   47856   47859  -47877  -47895      23
   47829   47856  -47841  -47826      23   47850   47820  -47832  -47847      23
   47841   47844  -47829  -47817      23   47811   47838  -47823  -47814      23
   47829   47814  -47817  -47808      23   47820   47823  -47811  -47808      23
   48099   48102  -48087  -48069      23   48048   48051  -48069  -48087      23
   48021   48048  -48033  -48018      23   48042   48012  -48024  -48039      23
   48033   48036  -48021  -48009      23   48003   48030  -48015  -48006      23
   48021   48006  -48009  -48000      23   48012   48015  -48003  -48000      23
   48291   48294  -48279  -48261      23   48240   48243  -48261  -48279      23
   48213   48240  -48225  -48210      23   48234   48204  -48216  -48231      23
   48225   48228  -48213  -48201      23   48195   48222  -48207  -48198      23
   48213   48198  -48201  -48192      23   48204   48207  -48195  -48192      23
   48483   48486  -48471  -48453      23   48432   48435  -48453  -48471      23
   48405   48432  -48417  -48402      23   48426   48396  -48408  -48423      23
   48417   48420  -48405  -48393      23   48387   48414  -48399  -48390      23
   48405   48390  -48393  -48384      23   48396   48399  -48387  -48384      23
   48675   48678  -48663  -48645      23   48624   48627  -48645  -48663      23
   48597   48624  -48609  -48594      23   48618   48588  -48600  -48615      23
   48609   48612  -48597  -48585      23   48579   48606  -48591  -48582      23
   48597   48582  -48585  -48576      23   48588   48591  -48579  -48576      23
   48867   48870  -48855  -48837      23   48816   48819  -48837  -48855      23
   48789   48816  -48801  -48786      23   48810   48780  -48792  -48807      23
   48801   48804  -48789  -48777      23   48771   48798  -48783  -48774      23
   48789   48774  -48777  -48768      23   48780   48783  -48771  -48768      23
   49059   49062  -49047  -49029      23   49008   49011  -49029  -49047      23
   48981   49008  -48993  -48978      23   49002   48972  -48984  -48999      23
   48993   48996  -48981  -48969      23   48963   48990  -48975  -48966      23
   48981   48966  -48969  -48960      23   48972   48975  -48963  -48960      23
   49251   49254  -49239  -49221      23   49200   49203  -49221  -49239      23
   49173   49200  -49185  -49170      23   49194   49164  -49176  -49191      23
   49185   49188  -49173  -49161      23   49155   49182  -49167  -49158      23
   49173   49158  -49161  -49152      23   49164   49167  -49155  -49152      23
   49443   49446  -49431  -49413      23   49392   49395  -49413  -49431      23
   49365   49392  -49377  -49362      23   49386   49356  -49368  -49383      23
   49377   49380  -49365  -49353      23   49347   49374  -49359  -49350      23
   49365   49350  -49353  -49344      23   49356   49359  -49347  -49344      23
   49635   49638  -49623  -49605      23   49584   49587  -49605  -49623      23
   49557   49584  -49569  -49554      23   49578   49548  -49560  -49575      23
   49569   49572  -49557  -49545      23   49539   49566  -49551  -49542      23
   49557   49542  -49545  -49536      23   49548   49551  -49539  -49536      23
   49827   49830  -49815  -49797      23   49776   49779  -49797  -49815      23
   49749   49776  -49761  -49746      23   49770   49740  -49752  -49767      23
   49761   49764  -49749  -49737      23   49731   49758  -49743  -49734      23
   49749   49734  -49737  -49728      23   49740   49743  -49731  -49728      23
   50019   50022  -50007  -49989      23   49968   49971  -49989  -50007      23
   49941   49968  -49953  -49938      23   49962   49932  -49944  -49959      23
   49953   49956  -49941  -49929      23   49923   49950  -49935  -49926      23
   49941   49926  -49929  -49920      23   49932   49935  -49923  -49920      23
   50211   50214  -50199  -50181      23   50160   50163  -50181  -50199      23
   50133   50160  -50145  -50130      23   50154   50124  -50136  -50151      23
   50145   50148  -50133  -50121      23   50115   50142  -50127  -50118      23
   50133   50118  -50121  -50112      23   50124   50127  -50115  -50112      23
   50403   50406  -50391  -50373      23   50352   50355  -50373  -50391      23
   50325   50352  -50337  -50322      23   50346   50316  -50328  -50343      23
   50337   50340  -50325  -50313      23   50307   50334  -50319  -50310      23
   50325   50310  -50313  -50304      23   50316   50319  -50307  -50304      23
   50595   50598  -50583  -50565      23   50544   50547  -50565  -50583      23
   50517   50544  -50529  -50514      23   50538   50508  -50520  -50535      23
   50529   50532  -50517  -50505      23   50499   50526  -50511  -50502      23
   50517   50502  -50505  -50496      23   50508   50511  -50499  -50496      23
   50787   50790  -50775  -50757      23   50736   50739  -50757  -50775      23
   50709   50736  -50721  -50706      23   50730   50700  -50712  -50727      23
   50721   50724  -50709  -50697      23   50691   50718  -50703  -50694      23
   50709   50694  -50697  -50688      23   50700   50703  -50691  -50688      23
   50979   50982  -50967  -50949      23   50928   50931  -50949  -50967      23
   50901   50928  -50913  -50898      23   50922   50892  -50904  -50919      23
   50913   50916  -50901  -50889      23   50883   50910  -50895  -50886      23
   50901   50886  -50889  -50880      23   50892   50895  -50883  -50880      23
   51171   51174  -51159  -51141      23   51120   51123  -51141  -51159      23
   51093   51120  -51105  -51090      23   51114   51084  -51096  -51111      23
   51105   51108  -51093  -51081      23   51075   51102  -51087  -51078      23
   51093   51078  -51081  -51072      23   51084   51087  -51075  -51072      23
   51363   51366  -51351  -51333      23   51312   51315  -51333  -51351      23
   51285   51312  -51297  -51282      23   51306   51276  -51288  -51303      23
   51297   51300  -51285  -51273      23   51267   51294  -51279  -51270      23
   51285   51270  -51273  -51264      23   51276   51279  -51267  -51264      23
   51555   51558  -51543  -51525      23   51504   51507  -51525  -51543      23
   51477   51504  -51489  -51474      23   51498   51468  -51480  -51495      23
   51489   51492  -51477  -51465      23   51459   51486  -51471  -51462      23
   51477   51462  -51465  -51456      23   51468   51471  -51459  -51456      23
   51747   51750  -51735  -51717      23   51696   51699  -51717  -51735      23
   51669   51696  -51681  -51666      23   51690   51660  -51672  -51687      23
   51681   51684  -51669  -51657      23   51651   51678  -51663  -51654      23
   51669   51654  -51657  -51648      23   51660   51663  -51651  -51648      23
   51939   51942  -51927  -51909      23   51888   51891  -51909  -51927      23
   51861   51888  -51873  -51858      23   51882   51852  -51864  -51879      23
   51873   51876  -51861  -51849      23   51843   51870  -51855  -51846      23
   51861   51846  -51849  -51840      23   51852   51855  -51843  -51840      23
   52131   52134  -52119  -52101      23   52080   52083  -52101  -52119      23
   52053   52080  -52065  -52050      23   52074   52044  -52056  -52071      23
   52065   52068  -52053  -52041      23   52035   52062  -52047  -52038      23
   52053   52038  -52041  -52032      23   52044   52047  -52035  -52032      23
   52323   52326  -52311  -52293      23   52272   52275  -52293  -52311      23
   52245   52272  -52257  -52242      23   52266   52236  -52248  -52263      23
   52257   52260  -52245  -52233      23   52227   52254  -52239  -52230      23
   52245   52230  -52233  -52224      23   52236   52239  -52227  -52224      23
   52515   52518  -52503  -52485      23   52464   52467  -52485  -52503      23
   52437   52464  -52449  -52434      23   52458   52428  -52440  -52455      23
   52449   52452  -52437  -52425      23   52419   52446  -52431  -52422      23
   52437   52422  -52425  -52416      23   52428   52431  -52419  -52416      23
   52707   52710  -52695  -52677      23   52656   52659  -52677  -52695      23
   52629   52656  -52641  -52626      23   52650   52620  -52632  -52647      23
   52641   52644  -52629  -52617      23   52611   52638  -52623  -52614      23
   52629   52614  -52617  -52608      23   52620   52623  -52611  -52608      23
   52899   52902  -52887  -52869      23   52848   52851  -52869  -52887      23
   52821   52848  -52833  -52818      23   52842   52812  -52824  -52839      23
   52833   52836  -52821  -52809      23   52803   52830  -52815  -52806      23
   52821   52806  -52809  -52800      23   52812   52815  -52803  -52800      23
   53091   53094  -53079  -53061      23   53040   53043  -53061  -53079      23
   53013   53040  -53025  -53010      23   53034   53004  -53016  -53031      23
   53025   53028  -53013  -53001      23   52995   53022  -53007  -52998      23
   53013   52998  -53001  -52992      23   53004   53007  -52995  -52992      23
   53283   53286  -53271  -53253      23   53232   53235  -53253  -53271      23
   53205   53232  -53217  -53202      23   53226   53196  -53208  -53223      23
   53217   53220  -53205  -53193      23   53187   53214  -53199  -53190      23
   53205   53190  -53193  -53184      23   53196   53199  -53187  -53184      23
   53475   53478  -53463  -53445      23   53424   53427  -53445  -53463      23
   53397   53424  -53409  -53394      23   53418   53388  -53400  -53415      23
   53409   53412  -53397  -53385      23   53379   53406  -53391  -53382      23
   53397   53382  -53385  -53376      23   53388   53391  -53379  -53376      23
   53667   53670  -53655  -53637      23   53616   53619  -53637  -53655      23
   53589   53616  -53601  -53586      23   53610   53580  -53592  -53607      23
   53601   53604  -53589  -53577      23   53571   53598  -53583  -53574      23
   53589   53574  -53577  -53568      23   53580   53583  -53571  -53568      23
   53859   53862  -53847  -53829      23   53808   53811  -53829  -53847      23
   53781   53808  -53793  -53778      23   53802   53772  -53784  -53799      23
   53793   53796  -53781  -53769      23   53763   53790  -53775  -53766      23
   53781   53766  -53769  -53760      23   53772   53775  -53763  -53760      23
   54051   54054  -54039  -54021      23   54000   54003  -54021  -54039      23
   53973   54000  -53985  -53970      23   53994   53964  -53976  -53991      23
   53985   53988  -53973  -53961      23   53955   53982  -53967  -53958      23
   53973   53958  -53961  -53952      23   53964   53967  -53955  -53952      23
   54243   54246  -54231  -54213      23   54192   54195  -54213  -54231      23
   54165   54192  -54177  -54162      23   54186   54156  -54168  -54183      23
   54177   54180  -54165  -54153      23   54147   54174  -54159  -54150      23
   54165   54150  -54153  -54144      23   54156   54159  -54147  -54144      23
   54435   54438  -54423  -54405      23   54384   54387  -54405  -54423      23
   54357   54384  -54369  -54354      23   54378   54348  -54360  -54375      23
   54369   54372  -54357  -54345      23   54339   54366  -54351  -54342      23
   54357   54342  -54345  -54336      23   54348   54351  -54339  -54336      23
   54627   54630  -54615  -54597      23   54576   54579  -54597  -54615      23
   54549   54576  -54561  -54546      23   54570   54540  -54552  -54567      23
   54561   54564  -54549  -54537      23   54531   54558  -54543  -54534      23
   54549   54534  -54537  -54528      23   54540   54543  -54531  -54528      23
   54819   54822  -54807  -54789      23   54768   54771  -54789  -54807      23
   54741   54768  -54753  -54738      23   54762   54732  -54744  -54759      23
   54753   54756  -54741  -54729      23   54723   54750  -54735  -54726      23
   54741   54726  -54729  -54720      23   54732   54735  -54723  -54720      23
   55011   55014  -54999  -54981      23   54960   54963  -54981  -54999      23
   54933   54960  -54945  -54930      23   54954   54924  -54936  -54951      23
   54945   54948  -54933  -54921      23   54915   54942  -54927  -54918      23
   54933   54918  -54921  -54912      23   54924   54927  -54915  -54912      23
   55203   55206  -55191  -55173      23   55152   55155  -55173  -55191      23
   55125   55152  -55137  -55122      23   55146   55116  -55128  -55143      23
   55137   55140  -55125  -55113      23   55107   55134  -55119  -55110      23
   55125   55110  -55113  -55104      23   55116   55119  -55107  -55104      23
%FLAG EXCLUDED_ATOMS_LIST                                                       
%FORMAT(10I8)                                                                   
       2       3       4       5       6       7       8       9      10      11
      12      13       3       4       5       6       7       8       9      10
      11      14      15      16       4       5       6       7       8      11
      12      13      14      16      17       5       6       7       8      11
      12      13      17      18      19       6       9      10      11      14
      15      20      21      22      23       7       8       9      10      11
      12      14      16      20       8      11      12      13      17      24
      25      12      13      17      18      19      24      25      26      10
      11      14      15      16      20      21      22      23      27      28
      29      14      15      14      15      16      20      13      17      18
      19      24      25      30      17      18      19      24      26      30
      15      16      20      21      22      23      20      21      22      23
      27      28      29      31      32      33      20      18      24      25
      26      30      34      35      19      24      25      26      30      34
      35      24      26       0      22      23      27      28      29      31
      32      33      36      37      38      23      27      28      29      27
      28      29      25      26      30      34      35      39      40      41
      42      30      30      28      29      31      32      33      36      37
      38      43      44      45      29      31      32      33      31      32
      33      34      35      39      40      41      42      46      47      48
      32      33      36      37      38      43      44      45      49      50
      51      33      36      37      38      36      37      38      35      39
      40      41      42      46      47      52      39      40      41      42
      46      48      52      37      38      43      44      45      49      50
      51      53      54      55      38      43      44      45      43      44
      45      40      41      46      47      48      52      46      47      42
      46      47      48      52      46      48      44      45      49      50
      51      53      54      55      56      57      58      45      49      50
      51      49      50      51      47      48      52      52      52      50
      51      53      54      55      56      57      58      59      60      61
      51      53      54      55      53      54      55       0      54      55
      56      57      58      55      56      57      58      56      57      58
      59      60      61      62      63      64      57      58      59      60
      61      62      63      64      58      59      60      61      59      60
      61      60      61      62      63      64      61      62      63      64
      62      63      64      63      64      64       0      66      67      68
      69      70      71      72      73      74      75      76      77      67
      68      69      70      71      72      73      74      75      78      79
      80      68      69      70      71      72      75      76      77      78
      80      81      69      70      71      72      75      76      77      81
      82      83      70      73      74      75      78      79      84      85
      86      87      71      72      73      74      75      76      78      80
      84      72      75      76      77      81      88      89      76      77
      81      82      83      88      89      90      74      75      78      79
      80      84      85      86      87      91      92      93      78      79
      78      79      80      84      77      81      82      83      88      89
      94      81      82      83      88      90      94      79      80      84
      85      86      87      84      85      86      87      91      92      93
      95      96      97      84      82      88      89      90      94      98
      99      83      88      89      90      94      98      99      88      90
       0      86      87      91      92      93      95      96      97     100
     101     102      87      91      92      93      91      92      93      89
      90      94      98      99     103     104     105     106      94      94
      92      93      95      96      97     100     101     102     107     108
     109      93      95      96      97      95      96      97      98      99
     103     104     105     106     110     111     112      96      97     100
     101     102     107     108     109     113     114     115      97     100
     101     102     100     101     102      99     103     104     105     106
     110     111     116     103     104     105     106     110     112     116
     101     102     107     108     109     113     114     115     117     118
     119     102     107     108     109     107     108     109     104     105
     110     111     112     116     110     111     106     110     111     112
     116     110     112     108     109     113     114     115     117     118
     119     120     121     122     109     113     114     115     113     114
     115     111     112     116     116     116     114     115     117     118
     119     120     121     122     123     124     125     115     117     118
     119     117     118     119       0     118     119     120     121     122
     119     120     121     122     120     121     122     123     124     125
     126     127     128     121     122     123     124     125     126     127
     128     122     123     124     125     123     124     125     124     125
     126     127     128     125     126     127     128     126     127     128
     127     128     128       0     130     131     132     133     134     135
     136     137     138     139     140     141     131     132     133     134
     135     136     137     138     139     142     143     144     132     133
     134     135     136     139     140     141     142     144     145     133
     134     135     136     139     140     141     145     146     147     134
     137     138     139     142     143     148     149     150     151     135
     136     137     138     139     140     142     144     148     136     139
     140     141     145     152     153     140     141     145     146     147
     152     153     154     138     139     142     143     144     148     149
     150     151     155     156     157     142     143     142     143     144
     148     141     145     146     147     152     153     158     145     146
     147     152     154     158     143     144     148     149     150     151
     148     149     150     151     155     156     157     159     160     161
     148     146     152     153     154     158     162     163     147     152
     153     154     158     162     163     152     154       0     150     151
     155     156     157     159     160     161     164     165     166     151
     155     156     157     155     156     157     153     154     158     162
     163     167     168     169     170     158     158     156     157     159
     160     161     164     165     166     171     172     173     157     159
     160     161     159     160     161     162     163     167     168     169
     170     174     175     176     160     161     164     165     166     171
     172     173     177     178     179     161     164     165     166     164
     165     166     163     167     168     169     170     174     175     180
     167     168     169     170     174     176     180     165     166     171
     172     173     177     178     179     181     182     183     166     171
     172     173     171     172     173     168     169     174     175     176
     180     174     175     170     174     175     176     180     174     176
     172     173     177     178     179     181     182     183     184     185
     186     173     177     178     179     177     178     179     175     176
     180     180     180     178     179     181     182     183     184     185
     186     187     188     189     179     181     182     183     181     182
     183       0     182     183     184     185     186     183     184     185
     186     184     185     186     187     188     189     190     191     192
     185     186     187     188     189     190     191     192     186     187
     188     189     187     188     189     188     189     190     191     192
     189     190     191     192     190     191     192     191     192     192
       0     194     195     196     197     198     199     200     201     202
     203     204     205     195     196     197     198     199     200     201
     202     203     206     207     208     196     197     198     199     200
     203     204     205     206     208     209     197     198     199     200
     203     204     205     209     210     211     198     201     202     203
     206     207     212     213     214     215     199     200     201     202
     203     204     206     208     212     200     203     204     205     209
     216     217     204     205     209     210     211     216     217     218
     202     203     206     207     208     212     213     214     215     219
     220     221     206     207     206     207     208     212     205     209
     210     211     216     217     222     209     210     211     216     218
     222     207     208     212     213     214     215     212     213     214
     215     219     220     221     223     224     225     212     210     216
     217     218     222     226     227     211     216     217     218     222
     226     227     216     218       0     214     215     219     220     221
     223     224     225     228     229     230     215     219     220     221
     219     220     221     217     218     222     226     227     231     232
     233     234     222     222     220     221     223     224     225     228
     229     230     235     236     237     221     223     224     225     223
     224     225     226     227     231     232     233     234     238     239
     240     224     225     228     229     230     235     236     237     241
     242     243     225     228     229     230     228     229     230     227
     231     232     233     234     238     239     244     231     232     233
     234     238     240     244     229     230     235     236     237     241
     242     243     245     246     247     230     235     236     237     235
     236     237     232     233     238     239     240     244     238     239
     234     238     239     240     244     238     240     236     237     241
     242     243     245     246     247     248     249     250     237     241
     242     243     241     242     243     239     240     244     244     244
     242     243     245     246     247     248     249     250     251     252
     253     243     245     246     247     245     246     247       0     246
     247     248     249     250     247     248     249     250     248     249
     250     251     252     253     254     255     256     249     250     251
     252     253     254     255     256     250     251     252     253     251
     252     253     252     253     254     255     256     253     254     255
     256     254     255     256     255     256     256       0     258     259
     260     261     262     263     264     265     266     267     268     269
     259     260     261     262     263     264     265     266     267     270
     271     272     260     261     262     263     264     267     268     269
     270     272     273     261     262     263     264     267     268     269
     273     274     275     262     265     266     267     270     271     276
     277     278     279     263     264     265     266     267     268     270
     272     276     264     267     268     269     273     280     281     268
     269     273     274     275     280     281     282     266     267     270
     271     272     276     277     278     279     283     284     285     270
     271     270     271     272     276     269     273     274     275     280
     281     286     273     274     275     280     282     286     271     272
     276     277     278     279     276     277     278     279     283     284
     285     287     288     289     276     274     280     281     282     286
     290     291     275     280     281     282     286     290     291     280
     282       0     278     279     283     284     285     287     288     289
     292     293     294     279     283     284     285     283     284     285
     281     282     286     290     291     295     296     297     298     286
     286     284     285     287     288     289     292     293     294     299
     300     301     285     287     288     289     287     288     289     290
     291     295     296     297     298     302     303     304     288     289
     292     293     294     299     300     301     305     306     307     289
     292     293     294     292     293     294     291     295     296     297
     298     302     303     308     295     296     297     298     302     304
     308     293     294     299     300     301     305     306     307     309
     310     311     294     299     300     301     299     300     301     296
     297     302     303     304     308     302     303     298     302     303
     304     308     302     304     300     301     305     306     307     309
     310     311     312     313     314     301     305     306     307     305
     306     307     303     304     308     308     308     306     307     309
     310     311     312     313     314     315     316     317     307     309
     310     311     309     310     311       0     310     311     312     313
     314     311     312     313     314     312     313     314     315     316
     317     318     319     320     313     314     315     316     317     318
     319     320     314     315     316     317     315     316     317     316
     317     318     319     320     317     318     319     320     318     319
     320     319     320     320       0     322     323     324     325     326
     327     328     329     330     331     332     333     323     324     325
     326     327     328     329     330     331     334     335     336     324
     325     326     327     328     331     332     333     334     336     337
     325     326     327     328     331     332     333     337     338     339
     326     329     330     331     334     335     340     341     342     343
     327     328     329     330     331     332     334     336     340     328
     331     332     333     337     344     345     332     333     337     338
     339     344     345     346     330     331     334     335     336     340
     341     342     343     347     348     349     334     335     334     335
     336     340     333     337     338     339     344     345     350     337
     338     339     344     346     350     335     336     340     341     342
     343     340     341     342     343     347     348     349     351     352
     353     340     338     344     345     346     350     354     355     339
     344     345     346     350     354     355     344     346       0     342
     343     347     348     349     351     352     353     356     357     358
     343     347     348     349     347     348     349     345     346     350
     354     355     359     360     361     362     350     350     348     349
     351     352     353     356     357     358     363     364     365     349
     351     352     353     351     352     353     354     355     359     360
     361     362     366     367     368     352     353     356     357     358
     363     364     365     369     370     371     353     356     357     358
     356     357     358     355     359     360     361     362     366     367
     372     359     360     361     362     366     368     372     357     358
     363     364     365     369     370     371     373     374     375     358
     363     364     365     363     364     365     360     361     366     367
     368     372     366     367     362     366     367     368     372     366
     368     364     365     369     370     371     373     374     375     376
     377     378     365     369     370     371     369     370     371     367
     368     372     372     372     370     371     373     374     375     376
     377     378     379     380     381     371     373     374     375     373
     374     375       0     374     375     376     377     378     375     376
     377     378     376     377     378     379     380     381     382     383
     384     377     378     379     380     381     382     383     384     378
     379     380     381     379     380     381     380     381     382     383
     384     381     382     383     384     382     383     384     383     384
     384       0     386     387     388     389     390     391     392     393
     394     395     396     397     387     388     389     390     391     392
     393     394     395     398     399     400     388     389     390     391
     392     395     396     397     398     400     401     389     390     391
     392     395     396     397     401     402     403     390     393     394
     395     398     399     404     405     406     407     391     392     393
     394     395     396     398     400     404     392     395     396     397
     401     408     409     396     397     401     402     403     408     409
     410     394     395     398     399     400     404     405     406     407
     411     412     413     398     399     398     399     400     404     397
     401     402     403     408     409     414     401     402     403     408
     410     414     399     400     404     405     406     407     404     405
     406     407     411     412     413     415     416     417     404     402
     408     409     410     414     418     419     403     408     409     410
     414     418     419     408     410       0     406     407     411     412
     413     415     416     417     420     421     422     407     411     412
     413     411     412     413     409     410     414     418     419     423
     424     425     426     414     414     412     413     415     416     417
     420     421     422     427     428     429     413     415     416     417
     415     416     417     418     419     423     424     425     426     430
     431     432     416     417     420     421     422     427     428     429
     433     434     435     417     420     421     422     420     421     422
     419     423     424     425     426     430     431     436     423     424
     425     426     430     432     436     421     422     427     428     429
     433     434     435     437     438     439     422     427     428     429
     427     428     429     424     425     430     431     432     436     430
     431     426     430     431     432     436     430     432     428     429
     433     434     435     437     438     439     440     441     442     429
     433     434     435     433     434     435     431     432     436     436
     436     434     435     437     438     439     440     441     442     443
     444     445     435     437     438     439     437     438     439       0
     438     439     440     441     442     439     440     441     442     440
     441     442     443     444     445     446     447     448     441     442
     443     444     445     446     447     448     442     443     444     445
     443     444     445     444     445     446     447     448     445     446
     447     448     446     447     448     447     448     448       0     450
     451     452     453     454     455     456     457     458     459     460
     461     451     452     453     454     455     456     457     458     459
     462     463     464     452     453     454     455     456     459     460
     461     462     464     465     453     454     455     456     459     460
     461     465     466     467     454     457     458     459     462     463
     468     469     470     471     455     456     457     458     459     460
     462     464     468     456     459     460     461     465     472     473
     460     461     465     466     467     472     473     474     458     459
     462     463     464     468     469     470     471     475     476     477
     462     463     462     463     464     468     461     465     466     467
     472     473     478     465     466     467     472     474     478     463
     464     468     469     470     471     468     469     470     471     475
     476     477     479     480     481     468     466     472     473     474
     478     482     483     467     472     473     474     478     482     483
     472     474       0     470     471     475     476     477     479     480
     481     484     485     486     471     475     476     477     475     476
     477     473     474     478     482     483     487     488     489     490
     478     478     476     477     479     480     481     484     485     486
     491     492     493     477     479     480     481     479     480     481
     482     483     487     488     489     490     494     495     496     480
     481     484     485     486     491     492     493     497     498     499
     481     484     485     486     484     485     486     483     487     488
     489     490     494     495     500     487     488     489     490     494
     496     500     485     486     491     492     493     497     498     499
     501     502     503     486     491     492     493     491     492     493
     488     489     494     495     496     500     494     495     490     494
     495     496     500     494     496     492     493     497     498     499
     501     502     503     504     505     506     493     497     498     499
     497     498     499     495     496     500     500     500     498     499
     501     502     503     504     505     506     507     508     509     499
     501     502     503     501     502     503       0     502     503     504
     505     506     503     504     505     506     504     505     506     507
     508     509     510     511     512     505     506     507     508     509
     510     511     512     506     507     508     509     507     508     509
     508     509     510     511     512     509     510     511     512     510
     511     512     511     512     512       0     514     515     516     517
     518     519     520     521     522     523     524     525     515     516
     517     518     519     520     521     522     523     526     527     528
     516     517     518     519     520     523     524     525     526     528
     529     517     518     519     520     523     524     525     529     530
     531     518     521     522     523     526     527     532     533     534
     535     519     520     521     522     523     524     526     528     532
     520     523     524     525     529     536     537     524     525     529
     530     531     536     537     538     522     523     526     527     528
     532     533     534     535     539     540     541     526     527     526
     527     528     532     525     529     530     531     536     537     542
     529     530     531     536     538     542     527     528     532     533
     534     535     532     533     534     535     539     540     541     543
     544     545     532     530     536     537     538     542     546     547
     531     536     537     538     542     546     547     536     538       0
     534     535     539     540     541     543     544     545     548     549
     550     535     539     540     541     539     540     541     537     538
     542     546     547     551     552     553     554     542     542     540
     541     543     544     545     548     549     550     555     556     557
     541     543     544     545     543     544     545     546     547     551
     552     553     554     558     559     560     544     545     548     549
     550     555     556     557     561     562     563     545     548     549
     550     548     549     550     547     551     552     553     554     558
     559     564     551     552     553     554     558     560     564     549
     550     555     556     557     561     562     563     565     566     567
     550     555     556     557     555     556     557     552     553     558
     559     560     564     558     559     554     558     559     560     564
     558     560     556     557     561     562     563     565     566     567
     568     569     570     557     561     562     563     561     562     563
     559     560     564     564     564     562     563     565     566     567
     568     569     570     571     572     573     563     565     566     567
     565     566     567       0     566     567     568     569     570     567
     568     569     570     568     569     570     571     572     573     574
     575     576     569     570     571     572     573     574     575     576
     570     571     572     573     571     572     573     572     573     574
     575     576     573     574     575     576     574     575     576     575
     576     576       0     578     579     580     581     582     583     584
     585     586     587     588     589     579     580     581     582     583
     584     585     586     587     590     591     592     580     581     582
     583     584     587     588     589     590     592     593     581     582
     583     584     587     588     589     593     594     595     582     585
     586     587     590     591     596     597     598     599     583     584
     585     586     587     588     590     592     596     584     587     588
     589     593     600     601     588     589     593     594     595     600
     601     602     586     587     590     591     592     596     597     598
     599     603     604     605     590     591     590     591     592     596
     589     593     594     595     600     601     606     593     594     595
     600     602     606     591     592     596     597     598     599     596
     597     598     599     603     604     605     607     608     609     596
     594     600     601     602     606     610     611     595     600     601
     602     606     610     611     600     602       0     598     599     603
     604     605     607     608     609     612     613     614     599     603
     604     605     603     604     605     601     602     606     610     611
     615     616     617     618     606     606     604     605     607     608
     609     612     613     614     619     620     621     605     607     608
     609     607     608     609     610     611     615     616     617     618
     622     623     624     608     609     612     613     614     619     620
     621     625     626     627     609     612     613     614     612     613
     614     611     615     616     617     618     622     623     628     615
     616     617     618     622     624     628     613     614     619     620
     621     625     626     627     629     630     631     614     619     620
     621     619     620     621     616     617     622     623     624     628
     622     623     618     622     623     624     628     622     624     620
     621     625     626     627     629     630     631     632     633     634
     621     625     626     627     625     626     627     623     624     628
     628     628     626     627     629     630     631     632     633     634
     635     636     637     627     629     630     631     629     630     631
       0     630     631     632     633     634     631     632     633     634
     632     633     634     635     636     637     638     639     640     633
     634     635     636     637     638     639     640     634     635     636
     637     635     636     637     636     637     638     639     640     637
     638     639     640     638     639     640     639     640     640       0
     642     643     644     645     646     647     648     649     650     651
     652     653     643     644     645     646     647     648     649     650
     651     654     655     656     644     645     646     647     648     651
     652     653     654     656     657     645     646     647     648     651
     652     653     657     658     659     646     649     650     651     654
     655     660     661     662     663     647     648     649     650     651
     652     654     656     660     648     651     652     653     657     664
     665     652     653     657     658     659     664     665     666     650
     651     654     655     656     660     661     662     663     667     668
     669     654     655     654     655     656     660     653     657     658
     659     664     665     670     657     658     659     664     666     670
     655     656     660     661     662     663     660     661     662     663
     667     668     669     671     672     673     660     658     664     665
     666     670     674     675     659     664     665     666     670     674
     675     664     666       0     662     663     667     668     669     671
     672     673     676     677     678     663     667     668     669     667
     668     669     665     666     670     674     675     679     680     681
     682     670     670     668     669     671     672     673     676     677
     678     683     684     685     669     671     672     673     671     672
     673     674     675     679     680     681     682     686     687     688
     672     673     676     677     678     683     684     685     689     690
     691     673     676     677     678     676     677     678     675     679
     680     681     682     686     687     692     679     680     681     682
     686     688     692     677     678     683     684     685     689     690
     691     693     694     695     678     683     684     685     683     684
     685     680     681     686     687     688     692     686     687     682
     686     687     688     692     686     688     684     685     689     690
     691     693     694     695     696     697     698     685     689     690
     691     689     690     691     687     688     692     692     692     690
     691     693     694     695     696     697     698     699     700     701
     691     693     694     695     693     694     695       0     694     695
     696     697     698     695     696     697     698     696     697     698
     699     700     701     702     703     704     697     698     699     700
     701     702     703     704     698     699     700     701     699     700
     701     700     701     702     703     704     701     702     703     704
     702     703     704     703     704     704       0     706     707     708
     709     710     711     712     713     714     715     716     717     707
     708     709     710     711     712     713     714     715     718     719
     720     708     709     710     711     712     715     716     717     718
     720     721     709     710     711     712     715     716     717     721
     722     723     710     713     714     715     718     719     724     725
     726     727     711     712     713     714     715     716     718     720
     724     712     715     716     717     721     728     729     716     717
     721     722     723     728     729     730     714     715     718     719
     720     724     725     726     727     731     732     733     718     719
     718     719     720     724     717     721     722     723     728     729
     734     721     722     723     728     730     734     719     720     724
     725     726     727     724     725     726     727     731     732     733
     735     736     737     724     722     728     729     730     734     738
     739     723     728     729     730     734     738     739     728     730
       0     726     727     731     732     733     735     736     737     740
     741     742     727     731     732     733     731     732     733     729
     730     734     738     739     743     744     745     746     734     734
     732     733     735     736     737     740     741     742     747     748
     749     733     735     736     737     735     736     737     738     739
     743     744     745     746     750     751     752     736     737     740
     741     742     747     748     749     753     754     755     737     740
     741     742     740     741     742     739     743     744     745     746
     750     751     756     743     744     745     746     750     752     756
     741     742     747     748     749     753     754     755     757     758
     759     742     747     748     749     747     748     749     744     745
     750     751     752     756     750     751     746     750     751     752
     756     750     752     748     749     753     754     755     757     758
     759     760     761     762     749     753     754     755     753     754
     755     751     752     756     756     756     754     755     757     758
     759     760     761     762     763     764     765     755     757     758
     759     757     758     759       0     758     759     760     761     762
     759     760     761     762     760     761     762     763     764     765
     766     767     768     761     762     763     764     765     766     767
     768     762     763     764     765     763     764     765     764     765
     766     767     768     765     766     767     768     766     767     768
     767     768     768       0     770     771     772     773     774     775
     776     777     778     779     780     781     771     772     773     774
     775     776     777     778     779     782     783     784     772     773
     774     775     776     779     780     781     782     784     785     773
     774     775     776     779     780     781     785     786     787     774
     777     778     779     782     783     788     789     790     791     775
     776     777     778     779     780     782     784     788     776     779
     780     781     785     792     793     780     781     785     786     787
     792     793     794     778     779     782     783     784     788     789
     790     791     795     796     797     782     783     782     783     784
     788     781     785     786     787     792     793     798     785     786
     787     792     794     798     783     784     788     789     790     791
     788     789     790     791     795     796     797     799     800     801
     788     786     792     793     794     798     802     803     787     792
     793     794     798     802     803     792     794       0     790     791
     795     796     797     799     800     801     804     805     806     791
     795     796     797     795     796     797     793     794     798     802
     803     807     808     809     810     798     798     796     797     799
     800     801     804     805     806     811     812     813     797     799
     800     801     799     800     801     802     803     807     808     809
     810     814     815     816     800     801     804     805     806     811
     812     813     817     818     819     801     804     805     806     804
     805     806     803     807     808     809     810     814     815     820
     807     808     809     810     814     816     820     805     806     811
     812     813     817     818     819     821     822     823     806     811
     812     813     811     812     813     808     809     814     815     816
     820     814     815     810     814     815     816     820     814     816
     812     813     817     818     819     821     822     823     824     825
     826     813     817     818     819     817     818     819     815     816
     820     820     820     818     819     821     822     823     824     825
     826     827     828     829     819     821     822     823     821     822
     823       0     822     823     824     825     826     823     824     825
     826     824     825     826     827     828     829     830     831     832
     825     826     827     828     829     830     831     832     826     827
     828     829     827     828     829     828     829     830     831     832
     829     830     831     832     830     831     832     831     832     832
       0     834     835     836     837     838     839     840     841     842
     843     844     845     835     836     837     838     839     840     841
     842     843     846     847     848     836     837     838     839     840
     843     844     845     846     848     849     837     838     839     840
     843     844     845     849     850     851     838     841     842     843
     846     847     852     853     854     855     839     840     841     842
     843     844     846     848     852     840     843     844     845     849
     856     857     844     845     849     850     851     856     857     858
     842     843     846     847     848     852     853     854     855     859
     860     861     846     847     846     847     848     852     845     849
     850     851     856     857     862     849     850     851     856     858
     862     847     848     852     853     854     855     852     853     854
     855     859     860     861     863     864     865     852     850     856
     857     858     862     866     867     851     856     857     858     862
     866     867     856     858       0     854     855     859     860     861
     863     864     865     868     869     870     855     859     860     861
     859     860     861     857     858     862     866     867     871     872
     873     874     862     862     860     861     863     864     865     868
     869     870     875     876     877     861     863     864     865     863
     864     865     866     867     871     872     873     874     878     879
     880     864     865     868     869     870     875     876     877     881
     882     883     865     868     869     870     868     869     870     867
     871     872     873     874     878     879     884     871     872     873
     874     878     880     884     869     870     875     876     877     881
     882     883     885     886     887     870     875     876     877     875
     876     877     872     873     878     879     880     884     878     879
     874     878     879     880     884     878     880     876     877     881
     882     883     885     886     887     888     889     890     877     881
     882     883     881     882     883     879     880     884     884     884
     882     883     885     886     887     888     889     890     891     892
     893     883     885     886     887     885     886     887       0     886
     887     888     889     890     887     888     889     890     888     889
     890     891     892     893     894     895     896     889     890     891
     892     893     894     895     896     890     891     892     893     891
     892     893     892     893     894     895     896     893     894     895
     896     894     895     896     895     896     896       0     898     899
     900     901     902     903     904     905     906     907     908     909
     899     900     901     902     903     904     905     906     907     910
     911     912     900     901     902     903     904     907     908     909
     910     912     913     901     902     903     904     907     908     909
     913     914     915     902     905     906     907     910     911     916
     917     918     919     903     904     905     906     907     908     910
     912     916     904     907     908     909     913     920     921     908
     909     913     914     915     920     921     922     906     907     910
     911     912     916     917     918     919     923     924     925     910
     911     910     911     912     916     909     913     914     915     920
     921     926     913     914     915     920     922     926     911     912
     916     917     918     919     916     917     918     919     923     924
     925     927     928     929     916     914     920     921     922     926
     930     931     915     920     921     922     926     930     931     920
     922       0     918     919     923     924     925     927     928     929
     932     933     934     919     923     924     925     923     924     925
     921     922     926     930     931     935     936     937     938     926
     926     924     925     927     928     929     932     933     934     939
     940     941     925     927     928     929     927     928     929     930
     931     935     936     937     938     942     943     944     928     929
     932     933     934     939     940     941     945     946     947     929
     932     933     934     932     933     934     931     935     936     937
     938     942     943     948     935     936     937     938     942     944
     948     933     934     939     940     941     945     946     947     949
     950     951     934     939     940     941     939     940     941     936
     937     942     943     944     948     942     943     938     942     943
     944     948     942     944     940     941     945     946     947     949
     950     951     952     953     954     941     945     946     947     945
     946     947     943     944     948     948     948     946     947     949
     950     951     952     953     954     955     956     957     947     949
     950     951     949     950     951       0     950     951     952     953
     954     951     952     953     954     952     953     954     955     956
     957     958     959     960     953     954     955     956     957     958
     959     960     954     955     956     957     955     956     957     956
     957     958     959     960     957     958     959     960     958     959
     960     959     960     960       0     962     963     964     965     966
     967     968     969     970     971     972     973     963     964     965
     966     967     968     969     970     971     974     975     976     964
     965     966     967     968     971     972     973     974     976     977
     965     966     967     968     971     972     973     977     978     979
     966     969     970     971     974     975     980     981     982     983
     967     968     969     970     971     972     974     976     980     968
     971     972     973     977     984     985     972     973     977     978
     979     984     985     986     970     971     974     975     976     980
     981     982     983     987     988     989     974     975     974     975
     976     980     973     977     978     979     984     985     990     977
     978     979     984     986     990     975     976     980     981     982
     983     980     981     982     983     987     988     989     991     992
     993     980     978     984     985     986     990     994     995     979
     984     985     986     990     994     995     984     986       0     982
     983     987     988     989     991     992     993     996     997     998
     983     987     988     989     987     988     989     985     986     990
     994     995     999    1000    1001    1002     990     990     988     989
     991     992     993     996     997     998    1003    1004    1005     989
     991     992     993     991     992     993     994     995     999    1000
    1001    1002    1006    1007    1008     992     993     996     997     998
    1003    1004    1005    1009    1010    1011     993     996     997     998
     996     997     998     995     999    1000    1001    1002    1006    1007
    1012     999    1000    1001    1002    1006    1008    1012     997     998
    1003    1004    1005    1009    1010    1011    1013    1014    1015     998
    1003    1004    1005    1003    1004    1005    1000    1001    1006    1007
    1008    1012    1006    1007    1002    1006    1007    1008    1012    1006
    1008    1004    1005    1009    1010    1011    1013    1014    1015    1016
    1017    1018    1005    1009    1010    1011    1009    1010    1011    1007
    1008    1012    1012    1012    1010    1011    1013    1014    1015    1016
    1017    1018    1019    1020    1021    1011    1013    1014    1015    1013
    1014    1015       0    1014    1015    1016    1017    1018    1015    1016
    1017    1018    1016    1017    1018    1019    1020    1021    1022    1023
    1024    1017    1018    1019    1020    1021    1022    1023    1024    1018
    1019    1020    1021    1019    1020    1021    1020    1021    1022    1023
    1024    1021    1022    1023    1024    1022    1023    1024    1023    1024
    1024       0    1026    1027    1028    1029    1030    1031    1032    1033
    1034    1035    1036    1037    1027    1028    1029    1030    1031    1032
    1033    1034    1035    1038    1039    1040    1028    1029    1030    1031
    1032    1035    1036    1037    1038    1040    1041    1029    1030    1031
    1032    1035    1036    1037    1041    1042    1043    1030    1033    1034
    1035    1038    1039    1044    1045    1046    1047    1031    1032    1033
    1034    1035    1036    1038    1040    1044    1032    1035    1036    1037
    1041    1048    1049    1036    1037    1041    1042    1043    1048    1049
    1050    1034    1035    1038    1039    1040    1044    1045    1046    1047
    1051    1052    1053    1038    1039    1038    1039    1040    1044    1037
    1041    1042    1043    1048    1049    1054    1041    1042    1043    1048
    1050    1054    1039    1040    1044    1045    1046    1047    1044    1045
    1046    1047    1051    1052    1053    1055    1056    1057    1044    1042
    1048    1049    1050    1054    1058    1059    1043    1048    1049    1050
    1054    1058    1059    1048    1050       0    1046    1047    1051    1052
    1053    1055    1056    1057    1060    1061    1062    1047    1051    1052
    1053    1051    1052    1053    1049    1050    1054    1058    1059    1063
    1064    1065    1066    1054    1054    1052    1053    1055    1056    1057
    1060    1061    1062    1067    1068    1069    1053    1055    1056    1057
    1055    1056    1057    1058    1059    1063    1064    1065    1066    1070
    1071    1072    1056    1057    1060    1061    1062    1067    1068    1069
    1073    1074    1075    1057    1060    1061    1062    1060    1061    1062
    1059    1063    1064    1065    1066    1070    1071    1076    1063    1064
    1065    1066    1070    1072    1076    1061    1062    1067    1068    1069
    1073    1074    1075    1077    1078    1079    1062    1067    1068    1069
    1067    1068    1069    1064    1065    1070    1071    1072    1076    1070
    1071    1066    1070    1071    1072    1076    1070    1072    1068    1069
    1073    1074    1075    1077    1078    1079    1080    1081    1082    1069
    1073    1074    1075    1073    1074    1075    1071    1072    1076    1076
    1076    1074    1075    1077    1078    1079    1080    1081    1082    1083
    1084    1085    1075    1077    1078    1079    1077    1078    1079       0
    1078    1079    1080    1081    1082    1079    1080    1081    1082    1080
    1081    1082    1083    1084    1085    1086    1087    1088    1081    1082
    1083    1084    1085    1086    1087    1088    1082    1083    1084    1085
    1083    1084    1085    1084    1085    1086    1087    1088    1085    1086
    1087    1088    1086    1087    1088    1087    1088    1088       0    1090
    1091    1092    1093    1094    1095    1096    1097    1098    1099    1100
    1101    1091    1092    1093    1094    1095    1096    1097    1098    1099
    1102    1103    1104    1092    1093    1094    1095    1096    1099    1100
    1101    1102    1104    1105    1093    1094    1095    1096    1099    1100
    1101    1105    1106    1107    1094    1097    1098    1099    1102    1103
    1108    1109    1110    1111    1095    1096    1097    1098    1099    1100
    1102    1104    1108    1096    1099    1100    1101    1105    1112    1113
    1100    1101    1105    1106    1107    1112    1113    1114    1098    1099
    1102    1103    1104    1108    1109    1110    1111    1115    1116    1117
    1102    1103    1102    1103    1104    1108    1101    1105    1106    1107
    1112    1113    1118    1105    1106    1107    1112    1114    1118    1103
    1104    1108    1109    1110    1111    1108    1109    1110    1111    1115
    1116    1117    1119    1120    1121    1108    1106    1112    1113    1114
    1118    1122    1123    1107    1112    1113    1114    1118    1122    1123
    1112    1114       0    1110    1111    1115    1116    1117    1119    1120
    1121    1124    1125    1126    1111    1115    1116    1117    1115    1116
    1117    1113    1114    1118    1122    1123    1127    1128    1129    1130
    1118    1118    1116    1117    1119    1120    1121    1124    1125    1126
    1131    1132    1133    1117    1119    1120    1121    1119    1120    1121
    1122    1123    1127    1128    1129    1130    1134    1135    1136    1120
    1121    1124    1125    1126    1131    1132    1133    1137    1138    1139
    1121    1124    1125    1126    1124    1125    1126    1123    1127    1128
    1129    1130    1134    1135    1140    1127    1128    1129    1130    1134
    1136    1140    1125    1126    1131    1132    1133    1137    1138    1139
    1141    1142    1143    1126    1131    1132    1133    1131    1132    1133
    1128    1129    1134    1135    1136    1140    1134    1135    1130    1134
    1135    1136    1140    1134    1136    1132    1133    1137    1138    1139
    1141    1142    1143    1144    1145    1146    1133    1137    1138    1139
    1137    1138    1139    1135    1136    1140    1140    1140    1138    1139
    1141    1142    1143    1144    1145    1146    1147    1148    1149    1139
    1141    1142    1143    1141    1142    1143       0    1142    1143    1144
    1145    1146    1143    1144    1145    1146    1144    1145    1146    1147
    1148    1149    1150    1151    1152    1145    1146    1147    1148    1149
    1150    1151    1152    1146    1147    1148    1149    1147    1148    1149
    1148    1149    1150    1151    1152    1149    1150    1151    1152    1150
    1151    1152    1151    1152    1152       0    1154    1155    1156    1157
    1158    1159    1160    1161    1162    1163    1164    1165    1155    1156
    1157    1158    1159    1160    1161    1162    1163    1166    1167    1168
    1156    1157    1158    1159    1160    1163    1164    1165    1166    1168
    1169    1157    1158    1159    1160    1163    1164    1165    1169    1170
    1171    1158    1161    1162    1163    1166    1167    1172    1173    1174
    1175    1159    1160    1161    1162    1163    1164    1166    1168    1172
    1160    1163    1164    1165    1169    1176    1177    1164    1165    1169
    1170    1171    1176    1177    1178    1162    1163    1166    1167    1168
    1172    1173    1174    1175    1179    1180    1181    1166    1167    1166
    1167    1168    1172    1165    1169    1170    1171    1176    1177    1182
    1169    1170    1171    1176    1178    1182    1167    1168    1172    1173
    1174    1175    1172    1173    1174    1175    1179    1180    1181    1183
    1184    1185    1172    1170    1176    1177    1178    1182    1186    1187
    1171    1176    1177    1178    1182    1186    1187    1176    1178       0
    1174    1175    1179    1180    1181    1183    1184    1185    1188    1189
    1190    1175    1179    1180    1181    1179    1180    1181    1177    1178
    1182    1186    1187    1191    1192    1193    1194    1182    1182    1180
    1181    1183    1184    1185    1188    1189    1190    1195    1196    1197
    1181    1183    1184    1185    1183    1184    1185    1186    1187    1191
    1192    1193    1194    1198    1199    1200    1184    1185    1188    1189
    1190    1195    1196    1197    1201    1202    1203    1185    1188    1189
    1190    1188    1189    1190    1187    1191    1192    1193    1194    1198
    1199    1204    1191    1192    1193    1194    1198    1200    1204    1189
    1190    1195    1196    1197    1201    1202    1203    1205    1206    1207
    1190    1195    1196    1197    1195    1196    1197    1192    1193    1198
    1199    1200    1204    1198    1199    1194    1198    1199    1200    1204
    1198    1200    1196    1197    1201    1202    1203    1205    1206    1207
    1208    1209    1210    1197    1201    1202    1203    1201    1202    1203
    1199    1200    1204    1204    1204    1202    1203    1205    1206    1207
    1208    1209    1210    1211    1212    1213    1203    1205    1206    1207
    1205    1206    1207       0    1206    1207    1208    1209    1210    1207
    1208    1209    1210    1208    1209    1210    1211    1212    1213    1214
    1215    1216    1209    1210    1211    1212    1213    1214    1215    1216
    1210    1211    1212    1213    1211    1212    1213    1212    1213    1214
    1215    1216    1213    1214    1215    1216    1214    1215    1216    1215
    1216    1216       0    1218    1219    1220    1221    1222    1223    1224
    1225    1226    1227    1228    1229    1219    1220    1221    1222    1223
    1224    1225    1226    1227    1230    1231    1232    1220    1221    1222
    1223    1224    1227    1228    1229    1230    1232    1233    1221    1222
    1223    1224    1227    1228    1229    1233    1234    1235    1222    1225
    1226    1227    1230    1231    1236    1237    1238    1239    1223    1224
    1225    1226    1227    1228    1230    1232    1236    1224    1227    1228
    1229    1233    1240    1241    1228    1229    1233    1234    1235    1240
    1241    1242    1226    1227    1230    1231    1232    1236    1237    1238
    1239    1243    1244    1245    1230    1231    1230    1231    1232    1236
    1229    1233    1234    1235    1240    1241    1246    1233    1234    1235
    1240    1242    1246    1231    1232    1236    1237    1238    1239    1236
    1237    1238    1239    1243    1244    1245    1247    1248    1249    1236
    1234    1240    1241    1242    1246    1250    1251    1235    1240    1241
    1242    1246    1250    1251    1240    1242       0    1238    1239    1243
    1244    1245    1247    1248    1249    1252    1253    1254    1239    1243
    1244    1245    1243    1244    1245    1241    1242    1246    1250    1251
    1255    1256    1257    1258    1246    1246    1244    1245    1247    1248
    1249    1252    1253    1254    1259    1260    1261    1245    1247    1248
    1249    1247    1248    1249    1250    1251    1255    1256    1257    1258
    1262    1263    1264    1248    1249    1252    1253    1254    1259    1260
    1261    1265    1266    1267    1249    1252    1253    1254    1252    1253
    1254    1251    1255    1256    1257    1258    1262    1263    1268    1255
    1256    1257    1258    1262    1264    1268    1253    1254    1259    1260
    1261    1265    1266    1267    1269    1270    1271    1254    1259    1260
    1261    1259    1260    1261    1256    1257    1262    1263    1264    1268
    1262    1263    1258    1262    1263    1264    1268    1262    1264    1260
    1261    1265    1266    1267    1269    1270    1271    1272    1273    1274
    1261    1265    1266    1267    1265    1266    1267    1263    1264    1268
    1268    1268    1266    1267    1269    1270    1271    1272    1273    1274
    1275    1276    1277    1267    1269    1270    1271    1269    1270    1271
       0    1270    1271    1272    1273    1274    1271    1272    1273    1274
    1272    1273    1274    1275    1276    1277    1278    1279    1280    1273
    1274    1275    1276    1277    1278    1279    1280    1274    1275    1276
    1277    1275    1276    1277    1276    1277    1278    1279    1280    1277
    1278    1279    1280    1278    1279    1280    1279    1280    1280       0
    1282    1283    1284    1285    1286    1287    1288    1289    1290    1291
    1292    1293    1283    1284    1285    1286    1287    1288    1289    1290
    1291    1294    1295    1296    1284    1285    1286    1287    1288    1291
    1292    1293    1294    1296    1297    1285    1286    1287    1288    1291
    1292    1293    1297    1298    1299    1286    1289    1290    1291    1294
    1295    1300    1301    1302    1303    1287    1288    1289    1290    1291
    1292    1294    1296    1300    1288    1291    1292    1293    1297    1304
    1305    1292    1293    1297    1298    1299    1304    1305    1306    1290
    1291    1294    1295    1296    1300    1301    1302    1303    1307    1308
    1309    1294    1295    1294    1295    1296    1300    1293    1297    1298
    1299    1304    1305    1310    1297    1298    1299    1304    1306    1310
    1295    1296    1300    1301    1302    1303    1300    1301    1302    1303
    1307    1308    1309    1311    1312    1313    1300    1298    1304    1305
    1306    1310    1314    1315    1299    1304    1305    1306    1310    1314
    1315    1304    1306       0    1302    1303    1307    1308    1309    1311
    1312    1313    1316    1317    1318    1303    1307    1308    1309    1307
    1308    1309    1305    1306    1310    1314    1315    1319    1320    1321
    1322    1310    1310    1308    1309    1311    1312    1313    1316    1317
    1318    1323    1324    1325    1309    1311    1312    1313    1311    1312
    1313    1314    1315    1319    1320    1321    1322    1326    1327    1328
    1312    1313    1316    1317    1318    1323    1324    1325    1329    1330
    1331    1313    1316    1317    1318    1316    1317    1318    1315    1319
    1320    1321    1322    1326    1327    1332    1319    1320    1321    1322
    1326    1328    1332    1317    1318    1323    1324    1325    1329    1330
    1331    1333    1334    1335    1318    1323    1324    1325    1323    1324
    1325    1320    1321    1326    1327    1328    1332    1326    1327    1322
    1326    1327    1328    1332    1326    1328    1324    1325    1329    1330
    1331    1333    1334    1335    1336    1337    1338    1325    1329    1330
    1331    1329    1330    1331    1327    1328    1332    1332    1332    1330
    1331    1333    1334    1335    1336    1337    1338    1339    1340    1341
    1331    1333    1334    1335    1333    1334    1335       0    1334    1335
    1336    1337    1338    1335    1336    1337    1338    1336    1337    1338
    1339    1340    1341    1342    1343    1344    1337    1338    1339    1340
    1341    1342    1343    1344    1338    1339    1340    1341    1339    1340
    1341    1340    1341    1342    1343    1344    1341    1342    1343    1344
    1342    1343    1344    1343    1344    1344       0    1346    1347    1348
    1349    1350    1351    1352    1353    1354    1355    1356    1357    1347
    1348    1349    1350    1351    1352    1353    1354    1355    1358    1359
    1360    1348    1349    1350    1351    1352    1355    1356    1357    1358
    1360    1361    1349    1350    1351    1352    1355    1356    1357    1361
    1362    1363    1350    1353    1354    1355    1358    1359    1364    1365
    1366    1367    1351    1352    1353    1354    1355    1356    1358    1360
    1364    1352    1355    1356    1357    1361    1368    1369    1356    1357
    1361    1362    1363    1368    1369    1370    1354    1355    1358    1359
    1360    1364    1365    1366    1367    1371    1372    1373    1358    1359
    1358    1359    1360    1364    1357    1361    1362    1363    1368    1369
    1374    1361    1362    1363    1368    1370    1374    1359    1360    1364
    1365    1366    1367    1364    1365    1366    1367    1371    1372    1373
    1375    1376    1377    1364    1362    1368    1369    1370    1374    1378
    1379    1363    1368    1369    1370    1374    1378    1379    1368    1370
       0    1366    1367    1371    1372    1373    1375    1376    1377    1380
    1381    1382    1367    1371    1372    1373    1371    1372    1373    1369
    1370    1374    1378    1379    1383    1384    1385    1386    1374    1374
    1372    1373    1375    1376    1377    1380    1381    1382    1387    1388
    1389    1373    1375    1376    1377    1375    1376    1377    1378    1379
    1383    1384    1385    1386    1390    1391    1392    1376    1377    1380
    1381    1382    1387    1388    1389    1393    1394    1395    1377    1380
    1381    1382    1380    1381    1382    1379    1383    1384    1385    1386
    1390    1391    1396    1383    1384    1385    1386    1390    1392    1396
    1381    1382    1387    1388    1389    1393    1394    1395    1397    1398
    1399    1382    1387    1388    1389    1387    1388    1389    1384    1385
    1390    1391    1392    1396    1390    1391    1386    1390    1391    1392
    1396    1390    1392    1388    1389    1393    1394    1395    1397    1398
    1399    1400    1401    1402    1389    1393    1394    1395    1393    1394
    1395    1391    1392    1396    1396    1396    1394    1395    1397    1398
    1399    1400    1401    1402    1403    1404    1405    1395    1397    1398
    1399    1397    1398    1399       0    1398    1399    1400    1401    1402
    1399    1400    1401    1402    1400    1401    1402    1403    1404    1405
    1406    1407    1408    1401    1402    1403    1404    1405    1406    1407
    1408    1402    1403    1404    1405    1403    1404    1405    1404    1405
    1406    1407    1408    1405    1406    1407    1408    1406    1407    1408
    1407    1408    1408       0    1410    1411    1412    1413    1414    1415
    1416    1417    1418    1419    1420    1421    1411    1412    1413    1414
    1415    1416    1417    1418    1419    1422    1423    1424    1412    1413
    1414    1415    1416    1419    1420    1421    1422    1424    1425    1413
    1414    1415    1416    1419    1420    1421    1425    1426    1427    1414
    1417    1418    1419    1422    1423    1428    1429    1430    1431    1415
    1416    1417    1418    1419    1420    1422    1424    1428    1416    1419
    1420    1421    1425    1432    1433    1420    1421    1425    1426    1427
    1432    1433    1434    1418    1419    1422    1423    1424    1428    1429
    1430    1431    1435    1436    1437    1422    1423    1422    1423    1424
    1428    1421    1425    1426    1427    1432    1433    1438    1425    1426
    1427    1432    1434    1438    1423    1424    1428    1429    1430    1431
    1428    1429    1430    1431    1435    1436    1437    1439    1440    1441
    1428    1426    1432    1433    1434    1438    1442    1443    1427    1432
    1433    1434    1438    1442    1443    1432    1434       0    1430    1431
    1435    1436    1437    1439    1440    1441    1444    1445    1446    1431
    1435    1436    1437    1435    1436    1437    1433    1434    1438    1442
    1443    1447    1448    1449    1450    1438    1438    1436    1437    1439
    1440    1441    1444    1445    1446    1451    1452    1453    1437    1439
    1440    1441    1439    1440    1441    1442    1443    1447    1448    1449
    1450    1454    1455    1456    1440    1441    1444    1445    1446    1451
    1452    1453    1457    1458    1459    1441    1444    1445    1446    1444
    1445    1446    1443    1447    1448    1449    1450    1454    1455    1460
    1447    1448    1449    1450    1454    1456    1460    1445    1446    1451
    1452    1453    1457    1458    1459    1461    1462    1463    1446    1451
    1452    1453    1451    1452    1453    1448    1449    1454    1455    1456
    1460    1454    1455    1450    1454    1455    1456    1460    1454    1456
    1452    1453    1457    1458    1459    1461    1462    1463    1464    1465
    1466    1453    1457    1458    1459    1457    1458    1459    1455    1456
    1460    1460    1460    1458    1459    1461    1462    1463    1464    1465
    1466    1467    1468    1469    1459    1461    1462    1463    1461    1462
    1463       0    1462    1463    1464    1465    1466    1463    1464    1465
    1466    1464    1465    1466    1467    1468    1469    1470    1471    1472
    1465    1466    1467    1468    1469    1470    1471    1472    1466    1467
    1468    1469    1467    1468    1469    1468    1469    1470    1471    1472
    1469    1470    1471    1472    1470    1471    1472    1471    1472    1472
       0    1474    1475    1476    1477    1478    1479    1480    1481    1482
    1483    1484    1485    1475    1476    1477    1478    1479    1480    1481
    1482    1483    1486    1487    1488    1476    1477    1478    1479    1480
    1483    1484    1485    1486    1488    1489    1477    1478    1479    1480
    1483    1484    1485    1489    1490    1491    1478    1481    1482    1483
    1486    1487    1492    1493    1494    1495    1479    1480    1481    1482
    1483    1484    1486    1488    1492    1480    1483    1484    1485    1489
    1496    1497    1484    1485    1489    1490    1491    1496    1497    1498
    1482    1483    1486    1487    1488    1492    1493    1494    1495    1499
    1500    1501    1486    1487    1486    1487    1488    1492    1485    1489
    1490    1491    1496    1497    1502    1489    1490    1491    1496    1498
    1502    1487    1488    1492    1493    1494    1495    1492    1493    1494
    1495    1499    1500    1501    1503    1504    1505    1492    1490    1496
    1497    1498    1502    1506    1507    1491    1496    1497    1498    1502
    1506    1507    1496    1498       0    1494    1495    1499    1500    1501
    1503    1504    1505    1508    1509    1510    1495    1499    1500    1501
    1499    1500    1501    1497    1498    1502    1506    1507    1511    1512
    1513    1514    1502    1502    1500    1501    1503    1504    1505    1508
    1509    1510    1515    1516    1517    1501    1503    1504    1505    1503
    1504    1505    1506    1507    1511    1512    1513    1514    1518    1519
    1520    1504    1505    1508    1509    1510    1515    1516    1517    1521
    1522    1523    1505    1508    1509    1510    1508    1509    1510    1507
    1511    1512    1513    1514    1518    1519    1524    1511    1512    1513
    1514    1518    1520    1524    1509    1510    1515    1516    1517    1521
    1522    1523    1525    1526    1527    1510    1515    1516    1517    1515
    1516    1517    1512    1513    1518    1519    1520    1524    1518    1519
    1514    1518    1519    1520    1524    1518    1520    1516    1517    1521
    1522    1523    1525    1526    1527    1528    1529    1530    1517    1521
    1522    1523    1521    1522    1523    1519    1520    1524    1524    1524
    1522    1523    1525    1526    1527    1528    1529    1530    1531    1532
    1533    1523    1525    1526    1527    1525    1526    1527       0    1526
    1527    1528    1529    1530    1527    1528    1529    1530    1528    1529
    1530    1531    1532    1533    1534    1535    1536    1529    1530    1531
    1532    1533    1534    1535    1536    1530    1531    1532    1533    1531
    1532    1533    1532    1533    1534    1535    1536    1533    1534    1535
    1536    1534    1535    1536    1535    1536    1536       0    1538    1539
    1540    1541    1542    1543    1544    1545    1546    1547    1548    1549
    1539    1540    1541    1542    1543    1544    1545    1546    1547    1550
    1551    1552    1540    1541    1542    1543    1544    1547    1548    1549
    1550    1552    1553    1541    1542    1543    1544    1547    1548    1549
    1553    1554    1555    1542    1545    1546    1547    1550    1551    1556
    1557    1558    1559    1543    1544    1545    1546    1547    1548    1550
    1552    1556    1544    1547    1548    1549    1553    1560    1561    1548
    1549    1553    1554    1555    1560    1561    1562    1546    1547    1550
    1551    1552    1556    1557    1558    1559    1563    1564    1565    1550
    1551    1550    1551    1552    1556    1549    1553    1554    1555    1560
    1561    1566    1553    1554    1555    1560    1562    1566    1551    1552
    1556    1557    1558    1559    1556    1557    1558    1559    1563    1564
    1565    1567    1568    1569    1556    1554    1560    1561    1562    1566
    1570    1571    1555    1560    1561    1562    1566    1570    1571    1560
    1562       0    1558    1559    1563    1564    1565    1567    1568    1569
    1572    1573    1574    1559    1563    1564    1565    1563    1564    1565
    1561    1562    1566    1570    1571    1575    1576    1577    1578    1566
    1566    1564    1565    1567    1568    1569    1572    1573    1574    1579
    1580    1581    1565    1567    1568    1569    1567    1568    1569    1570
    1571    1575    1576    1577    1578    1582    1583    1584    1568    1569
    1572    1573    1574    1579    1580    1581    1585    1586    1587    1569
    1572    1573    1574    1572    1573    1574    1571    1575    1576    1577
    1578    1582    1583    1588    1575    1576    1577    1578    1582    1584
    1588    1573    1574    1579    1580    1581    1585    1586    1587    1589
    1590    1591    1574    1579    1580    1581    1579    1580    1581    1576
    1577    1582    1583    1584    1588    1582    1583    1578    1582    1583
    1584    1588    1582    1584    1580    1581    1585    1586    1587    1589
    1590    1591    1592    1593    1594    1581    1585    1586    1587    1585
    1586    1587    1583    1584    1588    1588    1588    1586    1587    1589
    1590    1591    1592    1593    1594    1595    1596    1597    1587    1589
    1590    1591    1589    1590    1591       0    1590    1591    1592    1593
    1594    1591    1592    1593    1594    1592    1593    1594    1595    1596
    1597    1598    1599    1600    1593    1594    1595    1596    1597    1598
    1599    1600    1594    1595    1596    1597    1595    1596    1597    1596
    1597    1598    1599    1600    1597    1598    1599    1600    1598    1599
    1600    1599    1600    1600       0    1602    1603    1604    1605    1606
    1607    1608    1609    1610    1611    1612    1613    1603    1604    1605
    1606    1607    1608    1609    1610    1611    1614    1615    1616    1604
    1605    1606    1607    1608    1611    1612    1613    1614    1616    1617
    1605    1606    1607    1608    1611    1612    1613    1617    1618    1619
    1606    1609    1610    1611    1614    1615    1620    1621    1622    1623
    1607    1608    1609    1610    1611    1612    1614    1616    1620    1608
    1611    1612    1613    1617    1624    1625    1612    1613    1617    1618
    1619    1624    1625    1626    1610    1611    1614    1615    1616    1620
    1621    1622    1623    1627    1628    1629    1614    1615    1614    1615
    1616    1620    1613    1617    1618    1619    1624    1625    1630    1617
    1618    1619    1624    1626    1630    1615    1616    1620    1621    1622
    1623    1620    1621    1622    1623    1627    1628    1629    1631    1632
    1633    1620    1618    1624    1625    1626    1630    1634    1635    1619
    1624    1625    1626    1630    1634    1635    1624    1626       0    1622
    1623    1627    1628    1629    1631    1632    1633    1636    1637    1638
    1623    1627    1628    1629    1627    1628    1629    1625    1626    1630
    1634    1635    1639    1640    1641    1642    1630    1630    1628    1629
    1631    1632    1633    1636    1637    1638    1643    1644    1645    1629
    1631    1632    1633    1631    1632    1633    1634    1635    1639    1640
    1641    1642    1646    1647    1648    1632    1633    1636    1637    1638
    1643    1644    1645    1649    1650    1651    1633    1636    1637    1638
    1636    1637    1638    1635    1639    1640    1641    1642    1646    1647
    1652    1639    1640    1641    1642    1646    1648    1652    1637    1638
    1643    1644    1645    1649    1650    1651    1653    1654    1655    1638
    1643    1644    1645    1643    1644    1645    1640    1641    1646    1647
    1648    1652    1646    1647    1642    1646    1647    1648    1652    1646
    1648    1644    1645    1649    1650    1651    1653    1654    1655    1656
    1657    1658    1645    1649    1650    1651    1649    1650    1651    1647
    1648    1652    1652    1652    1650    1651    1653    1654    1655    1656
    1657    1658    1659    1660    1661    1651    1653    1654    1655    1653
    1654    1655       0    1654    1655    1656    1657    1658    1655    1656
    1657    1658    1656    1657    1658    1659    1660    1661    1662    1663
    1664    1657    1658    1659    1660    1661    1662    1663    1664    1658
    1659    1660    1661    1659    1660    1661    1660    1661    1662    1663
    1664    1661    1662    1663    1664    1662    1663    1664    1663    1664
    1664       0    1666    1667    1668    1669    1670    1671    1672    1673
    1674    1675    1676    1677    1667    1668    1669    1670    1671    1672
    1673    1674    1675    1678    1679    1680    1668    1669    1670    1671
    1672    1675    1676    1677    1678    1680    1681    1669    1670    1671
    1672    1675    1676    1677    1681    1682    1683    1670    1673    1674
    1675    1678    1679    1684    1685    1686    1687    1671    1672    1673
    1674    1675    1676    1678    1680    1684    1672    1675    1676    1677
    1681    1688    1689    1676    1677    1681    1682    1683    1688    1689
    1690    1674    1675    1678    1679    1680    1684    1685    1686    1687
    1691    1692    1693    1678    1679    1678    1679    1680    1684    1677
    1681    1682    1683    1688    1689    1694    1681    1682    1683    1688
    1690    1694    1679    1680    1684    1685    1686    1687    1684    1685
    1686    1687    1691    1692    1693    1695    1696    1697    1684    1682
    1688    1689    1690    1694    1698    1699    1683    1688    1689    1690
    1694    1698    1699    1688    1690       0    1686    1687    1691    1692
    1693    1695    1696    1697    1700    1701    1702    1687    1691    1692
    1693    1691    1692    1693    1689    1690    1694    1698    1699    1703
    1704    1705    1706    1694    1694    1692    1693    1695    1696    1697
    1700    1701    1702    1707    1708    1709    1693    1695    1696    1697
    1695    1696    1697    1698    1699    1703    1704    1705    1706    1710
    1711    1712    1696    1697    1700    1701    1702    1707    1708    1709
    1713    1714    1715    1697    1700    1701    1702    1700    1701    1702
    1699    1703    1704    1705    1706    1710    1711    1716    1703    1704
    1705    1706    1710    1712    1716    1701    1702    1707    1708    1709
    1713    1714    1715    1717    1718    1719    1702    1707    1708    1709
    1707    1708    1709    1704    1705    1710    1711    1712    1716    1710
    1711    1706    1710    1711    1712    1716    1710    1712    1708    1709
    1713    1714    1715    1717    1718    1719    1720    1721    1722    1709
    1713    1714    1715    1713    1714    1715    1711    1712    1716    1716
    1716    1714    1715    1717    1718    1719    1720    1721    1722    1723
    1724    1725    1715    1717    1718    1719    1717    1718    1719       0
    1718    1719    1720    1721    1722    1719    1720    1721    1722    1720
    1721    1722    1723    1724    1725    1726    1727    1728    1721    1722
    1723    1724    1725    1726    1727    1728    1722    1723    1724    1725
    1723    1724    1725    1724    1725    1726    1727    1728    1725    1726
    1727    1728    1726    1727    1728    1727    1728    1728       0    1730
    1731    1732    1733    1734    1735    1736    1737    1738    1739    1740
    1741    1731    1732    1733    1734    1735    1736    1737    1738    1739
    1742    1743    1744    1732    1733    1734    1735    1736    1739    1740
    1741    1742    1744    1745    1733    1734    1735    1736    1739    1740
    1741    1745    1746    1747    1734    1737    1738    1739    1742    1743
    1748    1749    1750    1751    1735    1736    1737    1738    1739    1740
    1742    1744    1748    1736    1739    1740    1741    1745    1752    1753
    1740    1741    1745    1746    1747    1752    1753    1754    1738    1739
    1742    1743    1744    1748    1749    1750    1751    1755    1756    1757
    1742    1743    1742    1743    1744    1748    1741    1745    1746    1747
    1752    1753    1758    1745    1746    1747    1752    1754    1758    1743
    1744    1748    1749    1750    1751    1748    1749    1750    1751    1755
    1756    1757    1759    1760    1761    1748    1746    1752    1753    1754
    1758    1762    1763    1747    1752    1753    1754    1758    1762    1763
    1752    1754       0    1750    1751    1755    1756    1757    1759    1760
    1761    1764    1765    1766    1751    1755    1756    1757    1755    1756
    1757    1753    1754    1758    1762    1763    1767    1768    1769    1770
    1758    1758    1756    1757    1759    1760    1761    1764    1765    1766
    1771    1772    1773    1757    1759    1760    1761    1759    1760    1761
    1762    1763    1767    1768    1769    1770    1774    1775    1776    1760
    1761    1764    1765    1766    1771    1772    1773    1777    1778    1779
    1761    1764    1765    1766    1764    1765    1766    1763    1767    1768
    1769    1770    1774    1775    1780    1767    1768    1769    1770    1774
    1776    1780    1765    1766    1771    1772    1773    1777    1778    1779
    1781    1782    1783    1766    1771    1772    1773    1771    1772    1773
    1768    1769    1774    1775    1776    1780    1774    1775    1770    1774
    1775    1776    1780    1774    1776    1772    1773    1777    1778    1779
    1781    1782    1783    1784    1785    1786    1773    1777    1778    1779
    1777    1778    1779    1775    1776    1780    1780    1780    1778    1779
    1781    1782    1783    1784    1785    1786    1787    1788    1789    1779
    1781    1782    1783    1781    1782    1783       0    1782    1783    1784
    1785    1786    1783    1784    1785    1786    1784    1785    1786    1787
    1788    1789    1790    1791    1792    1785    1786    1787    1788    1789
    1790    1791    1792    1786    1787    1788    1789    1787    1788    1789
    1788    1789    1790    1791    1792    1789    1790    1791    1792    1790
    1791    1792    1791    1792    1792       0    1794    1795    1796    1797
    1798    1799    1800    1801    1802    1803    1804    1805    1795    1796
    1797    1798    1799    1800    1801    1802    1803    1806    1807    1808
    1796    1797    1798    1799    1800    1803    1804    1805    1806    1808
    1809    1797    1798    1799    1800    1803    1804    1805    1809    1810
    1811    1798    1801    1802    1803    1806    1807    1812    1813    1814
    1815    1799    1800    1801    1802    1803    1804    1806    1808    1812
    1800    1803    1804    1805    1809    1816    1817    1804    1805    1809
    1810    1811    1816    1817    1818    1802    1803    1806    1807    1808
    1812    1813    1814    1815    1819    1820    1821    1806    1807    1806
    1807    1808    1812    1805    1809    1810    1811    1816    1817    1822
    1809    1810    1811    1816    1818    1822    1807    1808    1812    1813
    1814    1815    1812    1813    1814    1815    1819    1820    1821    1823
    1824    1825    1812    1810    1816    1817    1818    1822    1826    1827
    1811    1816    1817    1818    1822    1826    1827    1816    1818       0
    1814    1815    1819    1820    1821    1823    1824    1825    1828    1829
    1830    1815    1819    1820    1821    1819    1820    1821    1817    1818
    1822    1826    1827    1831    1832    1833    1834    1822    1822    1820
    1821    1823    1824    1825    1828    1829    1830    1835    1836    1837
    1821    1823    1824    1825    1823    1824    1825    1826    1827    1831
    1832    1833    1834    1838    1839    1840    1824    1825    1828    1829
    1830    1835    1836    1837    1841    1842    1843    1825    1828    1829
    1830    1828    1829    1830    1827    1831    1832    1833    1834    1838
    1839    1844    1831    1832    1833    1834    1838    1840    1844    1829
    1830    1835    1836    1837    1841    1842    1843    1845    1846    1847
    1830    1835    1836    1837    1835    1836    1837    1832    1833    1838
    1839    1840    1844    1838    1839    1834    1838    1839    1840    1844
    1838    1840    1836    1837    1841    1842    1843    1845    1846    1847
    1848    1849    1850    1837    1841    1842    1843    1841    1842    1843
    1839    1840    1844    1844    1844    1842    1843    1845    1846    1847
    1848    1849    1850    1851    1852    1853    1843    1845    1846    1847
    1845    1846    1847       0    1846    1847    1848    1849    1850    1847
    1848    1849    1850    1848    1849    1850    1851    1852    1853    1854
    1855    1856    1849    1850    1851    1852    1853    1854    1855    1856
    1850    1851    1852    1853    1851    1852    1853    1852    1853    1854
    1855    1856    1853    1854    1855    1856    1854    1855    1856    1855
    1856    1856       0    1858    1859    1860    1861    1862    1863    1864
    1865    1866    1867    1868    1869    1859    1860    1861    1862    1863
    1864    1865    1866    1867    1870    1871    1872    1860    1861    1862
    1863    1864    1867    1868    1869    1870    1872    1873    1861    1862
    1863    1864    1867    1868    1869    1873    1874    1875    1862    1865
    1866    1867    1870    1871    1876    1877    1878    1879    1863    1864
    1865    1866    1867    1868    1870    1872    1876    1864    1867    1868
    1869    1873    1880    1881    1868    1869    1873    1874    1875    1880
    1881    1882    1866    1867    1870    1871    1872    1876    1877    1878
    1879    1883    1884    1885    1870    1871    1870    1871    1872    1876
    1869    1873    1874    1875    1880    1881    1886    1873    1874    1875
    1880    1882    1886    1871    1872    1876    1877    1878    1879    1876
    1877    1878    1879    1883    1884    1885    1887    1888    1889    1876
    1874    1880    1881    1882    1886    1890    1891    1875    1880    1881
    1882    1886    1890    1891    1880    1882       0    1878    1879    1883
    1884    1885    1887    1888    1889    1892    1893    1894    1879    1883
    1884    1885    1883    1884    1885    1881    1882    1886    1890    1891
    1895    1896    1897    1898    1886    1886    1884    1885    1887    1888
    1889    1892    1893    1894    1899    1900    1901    1885    1887    1888
    1889    1887    1888    1889    1890    1891    1895    1896    1897    1898
    1902    1903    1904    1888    1889    1892    1893    1894    1899    1900
    1901    1905    1906    1907    1889    1892    1893    1894    1892    1893
    1894    1891    1895    1896    1897    1898    1902    1903    1908    1895
    1896    1897    1898    1902    1904    1908    1893    1894    1899    1900
    1901    1905    1906    1907    1909    1910    1911    1894    1899    1900
    1901    1899    1900    1901    1896    1897    1902    1903    1904    1908
    1902    1903    1898    1902    1903    1904    1908    1902    1904    1900
    1901    1905    1906    1907    1909    1910    1911    1912    1913    1914
    1901    1905    1906    1907    1905    1906    1907    1903    1904    1908
    1908    1908    1906    1907    1909    1910    1911    1912    1913    1914
    1915    1916    1917    1907    1909    1910    1911    1909    1910    1911
       0    1910    1911    1912    1913    1914    1911    1912    1913    1914
    1912    1913    1914    1915    1916    1917    1918    1919    1920    1913
    1914    1915    1916    1917    1918    1919    1920    1914    1915    1916
    1917    1915    1916    1917    1916    1917    1918    1919    1920    1917
    1918    1919    1920    1918    1919    1920    1919    1920    1920       0
    1922    1923    1924    1925    1926    1927    1928    1929    1930    1931
    1932    1933    1923    1924    1925    1926    1927    1928    1929    1930
    1931    1934    1935    1936    1924    1925    1926    1927    1928    1931
    1932    1933    1934    1936    1937    1925    1926    1927    1928    1931
    1932    1933    1937    1938    1939    1926    1929    1930    1931    1934
    1935    1940    1941    1942    1943    1927    1928    1929    1930    1931
    1932    1934    1936    1940    1928    1931    1932    1933    1937    1944
    1945    1932    1933    1937    1938    1939    1944    1945    1946    1930
    1931    1934    1935    1936    1940    1941    1942    1943    1947    1948
    1949    1934    1935    1934    1935    1936    1940    1933    1937    1938
    1939    1944    1945    1950    1937    1938    1939    1944    1946    1950
    1935    1936    1940    1941    1942    1943    1940    1941    1942    1943
    1947    1948    1949    1951    1952    1953    1940    1938    1944    1945
    1946    1950    1954    1955    1939    1944    1945    1946    1950    1954
    1955    1944    1946       0    1942    1943    1947    1948    1949    1951
    1952    1953    1956    1957    1958    1943    1947    1948    1949    1947
    1948    1949    1945    1946    1950    1954    1955    1959    1960    1961
    1962    1950    1950    1948    1949    1951    1952    1953    1956    1957
    1958    1963    1964    1965    1949    1951    1952    1953    1951    1952
    1953    1954    1955    1959    1960    1961    1962    1966    1967    1968
    1952    1953    1956    1957    1958    1963    1964    1965    1969    1970
    1971    1953    1956    1957    1958    1956    1957    1958    1955    1959
    1960    1961    1962    1966    1967    1972    1959    1960    1961    1962
    1966    1968    1972    1957    1958    1963    1964    1965    1969    1970
    1971    1973    1974    1975    1958    1963    1964    1965    1963    1964
    1965    1960    1961    1966    1967    1968    1972    1966    1967    1962
    1966    1967    1968    1972    1966    1968    1964    1965    1969    1970
    1971    1973    1974    1975    1976    1977    1978    1965    1969    1970
    1971    1969    1970    1971    1967    1968    1972    1972    1972    1970
    1971    1973    1974    1975    1976    1977    1978    1979    1980    1981
    1971    1973    1974    1975    1973    1974    1975       0    1974    1975
    1976    1977    1978    1975    1976    1977    1978    1976    1977    1978
    1979    1980    1981    1982    1983    1984    1977    1978    1979    1980
    1981    1982    1983    1984    1978    1979    1980    1981    1979    1980
    1981    1980    1981    1982    1983    1984    1981    1982    1983    1984
    1982    1983    1984    1983    1984    1984       0    1986    1987    1988
    1989    1990    1991    1992    1993    1994    1995    1996    1997    1987
    1988    1989    1990    1991    1992    1993    1994    1995    1998    1999
    2000    1988    1989    1990    1991    1992    1995    1996    1997    1998
    2000    2001    1989    1990    1991    1992    1995    1996    1997    2001
    2002    2003    1990    1993    1994    1995    1998    1999    2004    2005
    2006    2007    1991    1992    1993    1994    1995    1996    1998    2000
    2004    1992    1995    1996    1997    2001    2008    2009    1996    1997
    2001    2002    2003    2008    2009    2010    1994    1995    1998    1999
    2000    2004    2005    2006    2007    2011    2012    2013    1998    1999
    1998    1999    2000    2004    1997    2001    2002    2003    2008    2009
    2014    2001    2002    2003    2008    2010    2014    1999    2000    2004
    2005    2006    2007    2004    2005    2006    2007    2011    2012    2013
    2015    2016    2017    2004    2002    2008    2009    2010    2014    2018
    2019    2003    2008    2009    2010    2014    2018    2019    2008    2010
       0    2006    2007    2011    2012    2013    2015    2016    2017    2020
    2021    2022    2007    2011    2012    2013    2011    2012    2013    2009
    2010    2014    2018    2019    2023    2024    2025    2026    2014    2014
    2012    2013    2015    2016    2017    2020    2021    2022    2027    2028
    2029    2013    2015    2016    2017    2015    2016    2017    2018    2019
    2023    2024    2025    2026    2030    2031    2032    2016    2017    2020
    2021    2022    2027    2028    2029    2033    2034    2035    2017    2020
    2021    2022    2020    2021    2022    2019    2023    2024    2025    2026
    2030    2031    2036    2023    2024    2025    2026    2030    2032    2036
    2021    2022    2027    2028    2029    2033    2034    2035    2037    2038
    2039    2022    2027    2028    2029    2027    2028    2029    2024    2025
    2030    2031    2032    2036    2030    2031    2026    2030    2031    2032
    2036    2030    2032    2028    2029    2033    2034    2035    2037    2038
    2039    2040    2041    2042    2029    2033    2034    2035    2033    2034
    2035    2031    2032    2036    2036    2036    2034    2035    2037    2038
    2039    2040    2041    2042    2043    2044    2045    2035    2037    2038
    2039    2037    2038    2039       0    2038    2039    2040    2041    2042
    2039    2040    2041    2042    2040    2041    2042    2043    2044    2045
    2046    2047    2048    2041    2042    2043    2044    2045    2046    2047
    2048    2042    2043    2044    2045    2043    2044    2045    2044    2045
    2046    2047    2048    2045    2046    2047    2048    2046    2047    2048
    2047    2048    2048       0    2050    2051    2052    2053    2054    2055
    2056    2057    2058    2059    2060    2061    2051    2052    2053    2054
    2055    2056    2057    2058    2059    2062    2063    2064    2052    2053
    2054    2055    2056    2059    2060    2061    2062    2064    2065    2053
    2054    2055    2056    2059    2060    2061    2065    2066    2067    2054
    2057    2058    2059    2062    2063    2068    2069    2070    2071    2055
    2056    2057    2058    2059    2060    2062    2064    2068    2056    2059
    2060    2061    2065    2072    2073    2060    2061    2065    2066    2067
    2072    2073    2074    2058    2059    2062    2063    2064    2068    2069
    2070    2071    2075    2076    2077    2062    2063    2062    2063    2064
    2068    2061    2065    2066    2067    2072    2073    2078    2065    2066
    2067    2072    2074    2078    2063    2064    2068    2069    2070    2071
    2068    2069    2070    2071    2075    2076    2077    2079    2080    2081
    2068    2066    2072    2073    2074    2078    2082    2083    2067    2072
    2073    2074    2078    2082    2083    2072    2074       0    2070    2071
    2075    2076    2077    2079    2080    2081    2084    2085    2086    2071
    2075    2076    2077    2075    2076    2077    2073    2074    2078    2082
    2083    2087    2088    2089    2090    2078    2078    2076    2077    2079
    2080    2081    2084    2085    2086    2091    2092    2093    2077    2079
    2080    2081    2079    2080    2081    2082    2083    2087    2088    2089
    2090    2094    2095    2096    2080    2081    2084    2085    2086    2091
    2092    2093    2097    2098    2099    2081    2084    2085    2086    2084
    2085    2086    2083    2087    2088    2089    2090    2094    2095    2100
    2087    2088    2089    2090    2094    2096    2100    2085    2086    2091
    2092    2093    2097    2098    2099    2101    2102    2103    2086    2091
    2092    2093    2091    2092    2093    2088    2089    2094    2095    2096
    2100    2094    2095    2090    2094    2095    2096    2100    2094    2096
    2092    2093    2097    2098    2099    2101    2102    2103    2104    2105
    2106    2093    2097    2098    2099    2097    2098    2099    2095    2096
    2100    2100    2100    2098    2099    2101    2102    2103    2104    2105
    2106    2107    2108    2109    2099    2101    2102    2103    2101    2102
    2103       0    2102    2103    2104    2105    2106    2103    2104    2105
    2106    2104    2105    2106    2107    2108    2109    2110    2111    2112
    2105    2106    2107    2108    2109    2110    2111    2112    2106    2107
    2108    2109    2107    2108    2109    2108    2109    2110    2111    2112
    2109    2110    2111    2112    2110    2111    2112    2111    2112    2112
       0    2114    2115    2116    2117    2118    2119    2120    2121    2122
    2123    2124    2125    2115    2116    2117    2118    2119    2120    2121
    2122    2123    2126    2127    2128    2116    2117    2118    2119    2120
    2123    2124    2125    2126    2128    2129    2117    2118    2119    2120
    2123    2124    2125    2129    2130    2131    2118    2121    2122    2123
    2126    2127    2132    2133    2134    2135    2119    2120    2121    2122
    2123    2124    2126    2128    2132    2120    2123    2124    2125    2129
    2136    2137    2124    2125    2129    2130    2131    2136    2137    2138
    2122    2123    2126    2127    2128    2132    2133    2134    2135    2139
    2140    2141    2126    2127    2126    2127    2128    2132    2125    2129
    2130    2131    2136    2137    2142    2129    2130    2131    2136    2138
    2142    2127    2128    2132    2133    2134    2135    2132    2133    2134
    2135    2139    2140    2141    2143    2144    2145    2132    2130    2136
    2137    2138    2142    2146    2147    2131    2136    2137    2138    2142
    2146    2147    2136    2138       0    2134    2135    2139    2140    2141
    2143    2144    2145    2148    2149    2150    2135    2139    2140    2141
    2139    2140    2141    2137    2138    2142    2146    2147    2151    2152
    2153    2154    2142    2142    2140    2141    2143    2144    2145    2148
    2149    2150    2155    2156    2157    2141    2143    2144    2145    2143
    2144    2145    2146    2147    2151    2152    2153    2154    2158    2159
    2160    2144    2145    2148    2149    2150    2155    2156    2157    2161
    2162    2163    2145    2148    2149    2150    2148    2149    2150    2147
    2151    2152    2153    2154    2158    2159    2164    2151    2152    2153
    2154    2158    2160    2164    2149    2150    2155    2156    2157    2161
    2162    2163    2165    2166    2167    2150    2155    2156    2157    2155
    2156    2157    2152    2153    2158    2159    2160    2164    2158    2159
    2154    2158    2159    2160    2164    2158    2160    2156    2157    2161
    2162    2163    2165    2166    2167    2168    2169    2170    2157    2161
    2162    2163    2161    2162    2163    2159    2160    2164    2164    2164
    2162    2163    2165    2166    2167    2168    2169    2170    2171    2172
    2173    2163    2165    2166    2167    2165    2166    2167       0    2166
    2167    2168    2169    2170    2167    2168    2169    2170    2168    2169
    2170    2171    2172    2173    2174    2175    2176    2169    2170    2171
    2172    2173    2174    2175    2176    2170    2171    2172    2173    2171
    2172    2173    2172    2173    2174    2175    2176    2173    2174    2175
    2176    2174    2175    2176    2175    2176    2176       0    2178    2179
    2180    2181    2182    2183    2184    2185    2186    2187    2188    2189
    2179    2180    2181    2182    2183    2184    2185    2186    2187    2190
    2191    2192    2180    2181    2182    2183    2184    2187    2188    2189
    2190    2192    2193    2181    2182    2183    2184    2187    2188    2189
    2193    2194    2195    2182    2185    2186    2187    2190    2191    2196
    2197    2198    2199    2183    2184    2185    2186    2187    2188    2190
    2192    2196    2184    2187    2188    2189    2193    2200    2201    2188
    2189    2193    2194    2195    2200    2201    2202    2186    2187    2190
    2191    2192    2196    2197    2198    2199    2203    2204    2205    2190
    2191    2190    2191    2192    2196    2189    2193    2194    2195    2200
    2201    2206    2193    2194    2195    2200    2202    2206    2191    2192
    2196    2197    2198    2199    2196    2197    2198    2199    2203    2204
    2205    2207    2208    2209    2196    2194    2200    2201    2202    2206
    2210    2211    2195    2200    2201    2202    2206    2210    2211    2200
    2202       0    2198    2199    2203    2204    2205    2207    2208    2209
    2212    2213    2214    2199    2203    2204    2205    2203    2204    2205
    2201    2202    2206    2210    2211    2215    2216    2217    2218    2206
    2206    2204    2205    2207    2208    2209    2212    2213    2214    2219
    2220    2221    2205    2207    2208    2209    2207    2208    2209    2210
    2211    2215    2216    2217    2218    2222    2223    2224    2208    2209
    2212    2213    2214    2219    2220    2221    2225    2226    2227    2209
    2212    2213    2214    2212    2213    2214    2211    2215    2216    2217
    2218    2222    2223    2228    2215    2216    2217    2218    2222    2224
    2228    2213    2214    2219    2220    2221    2225    2226    2227    2229
    2230    2231    2214    2219    2220    2221    2219    2220    2221    2216
    2217    2222    2223    2224    2228    2222    2223    2218    2222    2223
    2224    2228    2222    2224    2220    2221    2225    2226    2227    2229
    2230    2231    2232    2233    2234    2221    2225    2226    2227    2225
    2226    2227    2223    2224    2228    2228    2228    2226    2227    2229
    2230    2231    2232    2233    2234    2235    2236    2237    2227    2229
    2230    2231    2229    2230    2231       0    2230    2231    2232    2233
    2234    2231    2232    2233    2234    2232    2233    2234    2235    2236
    2237    2238    2239    2240    2233    2234    2235    2236    2237    2238
    2239    2240    2234    2235    2236    2237    2235    2236    2237    2236
    2237    2238    2239    2240    2237    2238    2239    2240    2238    2239
    2240    2239    2240    2240       0    2242    2243    2244    2245    2246
    2247    2248    2249    2250    2251    2252    2253    2243    2244    2245
    2246    2247    2248    2249    2250    2251    2254    2255    2256    2244
    2245    2246    2247    2248    2251    2252    2253    2254    2256    2257
    2245    2246    2247    2248    2251    2252    2253    2257    2258    2259
    2246    2249    2250    2251    2254    2255    2260    2261    2262    2263
    2247    2248    2249    2250    2251    2252    2254    2256    2260    2248
    2251    2252    2253    2257    2264    2265    2252    2253    2257    2258
    2259    2264    2265    2266    2250    2251    2254    2255    2256    2260
    2261    2262    2263    2267    2268    2269    2254    2255    2254    2255
    2256    2260    2253    2257    2258    2259    2264    2265    2270    2257
    2258    2259    2264    2266    2270    2255    2256    2260    2261    2262
    2263    2260    2261    2262    2263    2267    2268    2269    2271    2272
    2273    2260    2258    2264    2265    2266    2270    2274    2275    2259
    2264    2265    2266    2270    2274    2275    2264    2266       0    2262
    2263    2267    2268    2269    2271    2272    2273    2276    2277    2278
    2263    2267    2268    2269    2267    2268    2269    2265    2266    2270
    2274    2275    2279    2280    2281    2282    2270    2270    2268    2269
    2271    2272    2273    2276    2277    2278    2283    2284    2285    2269
    2271    2272    2273    2271    2272    2273    2274    2275    2279    2280
    2281    2282    2286    2287    2288    2272    2273    2276    2277    2278
    2283    2284    2285    2289    2290    2291    2273    2276    2277    2278
    2276    2277    2278    2275    2279    2280    2281    2282    2286    2287
    2292    2279    2280    2281    2282    2286    2288    2292    2277    2278
    2283    2284    2285    2289    2290    2291    2293    2294    2295    2278
    2283    2284    2285    2283    2284    2285    2280    2281    2286    2287
    2288    2292    2286    2287    2282    2286    2287    2288    2292    2286
    2288    2284    2285    2289    2290    2291    2293    2294    2295    2296
    2297    2298    2285    2289    2290    2291    2289    2290    2291    2287
    2288    2292    2292    2292    2290    2291    2293    2294    2295    2296
    2297    2298    2299    2300    2301    2291    2293    2294    2295    2293
    2294    2295       0    2294    2295    2296    2297    2298    2295    2296
    2297    2298    2296    2297    2298    2299    2300    2301    2302    2303
    2304    2297    2298    2299    2300    2301    2302    2303    2304    2298
    2299    2300    2301    2299    2300    2301    2300    2301    2302    2303
    2304    2301    2302    2303    2304    2302    2303    2304    2303    2304
    2304       0    2306    2307    2308    2309    2310    2311    2312    2313
    2314    2315    2316    2317    2307    2308    2309    2310    2311    2312
    2313    2314    2315    2318    2319    2320    2308    2309    2310    2311
    2312    2315    2316    2317    2318    2320    2321    2309    2310    2311
    2312    2315    2316    2317    2321    2322    2323    2310    2313    2314
    2315    2318    2319    2324    2325    2326    2327    2311    2312    2313
    2314    2315    2316    2318    2320    2324    2312    2315    2316    2317
    2321    2328    2329    2316    2317    2321    2322    2323    2328    2329
    2330    2314    2315    2318    2319    2320    2324    2325    2326    2327
    2331    2332    2333    2318    2319    2318    2319    2320    2324    2317
    2321    2322    2323    2328    2329    2334    2321    2322    2323    2328
    2330    2334    2319    2320    2324    2325    2326    2327    2324    2325
    2326    2327    2331    2332    2333    2335    2336    2337    2324    2322
    2328    2329    2330    2334    2338    2339    2323    2328    2329    2330
    2334    2338    2339    2328    2330       0    2326    2327    2331    2332
    2333    2335    2336    2337    2340    2341    2342    2327    2331    2332
    2333    2331    2332    2333    2329    2330    2334    2338    2339    2343
    2344    2345    2346    2334    2334    2332    2333    2335    2336    2337
    2340    2341    2342    2347    2348    2349    2333    2335    2336    2337
    2335    2336    2337    2338    2339    2343    2344    2345    2346    2350
    2351    2352    2336    2337    2340    2341    2342    2347    2348    2349
    2353    2354    2355    2337    2340    2341    2342    2340    2341    2342
    2339    2343    2344    2345    2346    2350    2351    2356    2343    2344
    2345    2346    2350    2352    2356    2341    2342    2347    2348    2349
    2353    2354    2355    2357    2358    2359    2342    2347    2348    2349
    2347    2348    2349    2344    2345    2350    2351    2352    2356    2350
    2351    2346    2350    2351    2352    2356    2350    2352    2348    2349
    2353    2354    2355    2357    2358    2359    2360    2361    2362    2349
    2353    2354    2355    2353    2354    2355    2351    2352    2356    2356
    2356    2354    2355    2357    2358    2359    2360    2361    2362    2363
    2364    2365    2355    2357    2358    2359    2357    2358    2359       0
    2358    2359    2360    2361    2362    2359    2360    2361    2362    2360
    2361    2362    2363    2364    2365    2366    2367    2368    2361    2362
    2363    2364    2365    2366    2367    2368    2362    2363    2364    2365
    2363    2364    2365    2364    2365    2366    2367    2368    2365    2366
    2367    2368    2366    2367    2368    2367    2368    2368       0    2370
    2371    2372    2373    2374    2375    2376    2377    2378    2379    2380
    2381    2371    2372    2373    2374    2375    2376    2377    2378    2379
    2382    2383    2384    2372    2373    2374    2375    2376    2379    2380
    2381    2382    2384    2385    2373    2374    2375    2376    2379    2380
    2381    2385    2386    2387    2374    2377    2378    2379    2382    2383
    2388    2389    2390    2391    2375    2376    2377    2378    2379    2380
    2382    2384    2388    2376    2379    2380    2381    2385    2392    2393
    2380    2381    2385    2386    2387    2392    2393    2394    2378    2379
    2382    2383    2384    2388    2389    2390    2391    2395    2396    2397
    2382    2383    2382    2383    2384    2388    2381    2385    2386    2387
    2392    2393    2398    2385    2386    2387    2392    2394    2398    2383
    2384    2388    2389    2390    2391    2388    2389    2390    2391    2395
    2396    2397    2399    2400    2401    2388    2386    2392    2393    2394
    2398    2402    2403    2387    2392    2393    2394    2398    2402    2403
    2392    2394       0    2390    2391    2395    2396    2397    2399    2400
    2401    2404    2405    2406    2391    2395    2396    2397    2395    2396
    2397    2393    2394    2398    2402    2403    2407    2408    2409    2410
    2398    2398    2396    2397    2399    2400    2401    2404    2405    2406
    2411    2412    2413    2397    2399    2400    2401    2399    2400    2401
    2402    2403    2407    2408    2409    2410    2414    2415    2416    2400
    2401    2404    2405    2406    2411    2412    2413    2417    2418    2419
    2401    2404    2405    2406    2404    2405    2406    2403    2407    2408
    2409    2410    2414    2415    2420    2407    2408    2409    2410    2414
    2416    2420    2405    2406    2411    2412    2413    2417    2418    2419
    2421    2422    2423    2406    2411    2412    2413    2411    2412    2413
    2408    2409    2414    2415    2416    2420    2414    2415    2410    2414
    2415    2416    2420    2414    2416    2412    2413    2417    2418    2419
    2421    2422    2423    2424    2425    2426    2413    2417    2418    2419
    2417    2418    2419    2415    2416    2420    2420    2420    2418    2419
    2421    2422    2423    2424    2425    2426    2427    2428    2429    2419
    2421    2422    2423    2421    2422    2423       0    2422    2423    2424
    2425    2426    2423    2424    2425    2426    2424    2425    2426    2427
    2428    2429    2430    2431    2432    2425    2426    2427    2428    2429
    2430    2431    2432    2426    2427    2428    2429    2427    2428    2429
    2428    2429    2430    2431    2432    2429    2430    2431    2432    2430
    2431    2432    2431    2432    2432       0    2434    2435    2436    2437
    2438    2439    2440    2441    2442    2443    2444    2445    2435    2436
    2437    2438    2439    2440    2441    2442    2443    2446    2447    2448
    2436    2437    2438    2439    2440    2443    2444    2445    2446    2448
    2449    2437    2438    2439    2440    2443    2444    2445    2449    2450
    2451    2438    2441    2442    2443    2446    2447    2452    2453    2454
    2455    2439    2440    2441    2442    2443    2444    2446    2448    2452
    2440    2443    2444    2445    2449    2456    2457    2444    2445    2449
    2450    2451    2456    2457    2458    2442    2443    2446    2447    2448
    2452    2453    2454    2455    2459    2460    2461    2446    2447    2446
    2447    2448    2452    2445    2449    2450    2451    2456    2457    2462
    2449    2450    2451    2456    2458    2462    2447    2448    2452    2453
    2454    2455    2452    2453    2454    2455    2459    2460    2461    2463
    2464    2465    2452    2450    2456    2457    2458    2462    2466    2467
    2451    2456    2457    2458    2462    2466    2467    2456    2458       0
    2454    2455    2459    2460    2461    2463    2464    2465    2468    2469
    2470    2455    2459    2460    2461    2459    2460    2461    2457    2458
    2462    2466    2467    2471    2472    2473    2474    2462    2462    2460
    2461    2463    2464    2465    2468    2469    2470    2475    2476    2477
    2461    2463    2464    2465    2463    2464    2465    2466    2467    2471
    2472    2473    2474    2478    2479    2480    2464    2465    2468    2469
    2470    2475    2476    2477    2481    2482    2483    2465    2468    2469
    2470    2468    2469    2470    2467    2471    2472    2473    2474    2478
    2479    2484    2471    2472    2473    2474    2478    2480    2484    2469
    2470    2475    2476    2477    2481    2482    2483    2485    2486    2487
    2470    2475    2476    2477    2475    2476    2477    2472    2473    2478
    2479    2480    2484    2478    2479    2474    2478    2479    2480    2484
    2478    2480    2476    2477    2481    2482    2483    2485    2486    2487
    2488    2489    2490    2477    2481    2482    2483    2481    2482    2483
    2479    2480    2484    2484    2484    2482    2483    2485    2486    2487
    2488    2489    2490    2491    2492    2493    2483    2485    2486    2487
    2485    2486    2487       0    2486    2487    2488    2489    2490    2487
    2488    2489    2490    2488    2489    2490    2491    2492    2493    2494
    2495    2496    2489    2490    2491    2492    2493    2494    2495    2496
    2490    2491    2492    2493    2491    2492    2493    2492    2493    2494
    2495    2496    2493    2494    2495    2496    2494    2495    2496    2495
    2496    2496       0    2498    2499    2500    2501    2502    2503    2504
    2505    2506    2507    2508    2509    2499    2500    2501    2502    2503
    2504    2505    2506    2507    2510    2511    2512    2500    2501    2502
    2503    2504    2507    2508    2509    2510    2512    2513    2501    2502
    2503    2504    2507    2508    2509    2513    2514    2515    2502    2505
    2506    2507    2510    2511    2516    2517    2518    2519    2503    2504
    2505    2506    2507    2508    2510    2512    2516    2504    2507    2508
    2509    2513    2520    2521    2508    2509    2513    2514    2515    2520
    2521    2522    2506    2507    2510    2511    2512    2516    2517    2518
    2519    2523    2524    2525    2510    2511    2510    2511    2512    2516
    2509    2513    2514    2515    2520    2521    2526    2513    2514    2515
    2520    2522    2526    2511    2512    2516    2517    2518    2519    2516
    2517    2518    2519    2523    2524    2525    2527    2528    2529    2516
    2514    2520    2521    2522    2526    2530    2531    2515    2520    2521
    2522    2526    2530    2531    2520    2522       0    2518    2519    2523
    2524    2525    2527    2528    2529    2532    2533    2534    2519    2523
    2524    2525    2523    2524    2525    2521    2522    2526    2530    2531
    2535    2536    2537    2538    2526    2526    2524    2525    2527    2528
    2529    2532    2533    2534    2539    2540    2541    2525    2527    2528
    2529    2527    2528    2529    2530    2531    2535    2536    2537    2538
    2542    2543    2544    2528    2529    2532    2533    2534    2539    2540
    2541    2545    2546    2547    2529    2532    2533    2534    2532    2533
    2534    2531    2535    2536    2537    2538    2542    2543    2548    2535
    2536    2537    2538    2542    2544    2548    2533    2534    2539    2540
    2541    2545    2546    2547    2549    2550    2551    2534    2539    2540
    2541    2539    2540    2541    2536    2537    2542    2543    2544    2548
    2542    2543    2538    2542    2543    2544    2548    2542    2544    2540
    2541    2545    2546    2547    2549    2550    2551    2552    2553    2554
    2541    2545    2546    2547    2545    2546    2547    2543    2544    2548
    2548    2548    2546    2547    2549    2550    2551    2552    2553    2554
    2555    2556    2557    2547    2549    2550    2551    2549    2550    2551
       0    2550    2551    2552    2553    2554    2551    2552    2553    2554
    2552    2553    2554    2555    2556    2557    2558    2559    2560    2553
    2554    2555    2556    2557    2558    2559    2560    2554    2555    2556
    2557    2555    2556    2557    2556    2557    2558    2559    2560    2557
    2558    2559    2560    2558    2559    2560    2559    2560    2560       0
    2562    2563    2564    2565    2566    2567    2568    2569    2570    2571
    2572    2573    2563    2564    2565    2566    2567    2568    2569    2570
    2571    2574    2575    2576    2564    2565    2566    2567    2568    2571
    2572    2573    2574    2576    2577    2565    2566    2567    2568    2571
    2572    2573    2577    2578    2579    2566    2569    2570    2571    2574
    2575    2580    2581    2582    2583    2567    2568    2569    2570    2571
    2572    2574    2576    2580    2568    2571    2572    2573    2577    2584
    2585    2572    2573    2577    2578    2579    2584    2585    2586    2570
    2571    2574    2575    2576    2580    2581    2582    2583    2587    2588
    2589    2574    2575    2574    2575    2576    2580    2573    2577    2578
    2579    2584    2585    2590    2577    2578    2579    2584    2586    2590
    2575    2576    2580    2581    2582    2583    2580    2581    2582    2583
    2587    2588    2589    2591    2592    2593    2580    2578    2584    2585
    2586    2590    2594    2595    2579    2584    2585    2586    2590    2594
    2595    2584    2586       0    2582    2583    2587    2588    2589    2591
    2592    2593    2596    2597    2598    2583    2587    2588    2589    2587
    2588    2589    2585    2586    2590    2594    2595    2599    2600    2601
    2602    2590    2590    2588    2589    2591    2592    2593    2596    2597
    2598    2603    2604    2605    2589    2591    2592    2593    2591    2592
    2593    2594    2595    2599    2600    2601    2602    2606    2607    2608
    2592    2593    2596    2597    2598    2603    2604    2605    2609    2610
    2611    2593    2596    2597    2598    2596    2597    2598    2595    2599
    2600    2601    2602    2606    2607    2612    2599    2600    2601    2602
    2606    2608    2612    2597    2598    2603    2604    2605    2609    2610
    2611    2613    2614    2615    2598    2603    2604    2605    2603    2604
    2605    2600    2601    2606    2607    2608    2612    2606    2607    2602
    2606    2607    2608    2612    2606    2608    2604    2605    2609    2610
    2611    2613    2614    2615    2616    2617    2618    2605    2609    2610
    2611    2609    2610    2611    2607    2608    2612    2612    2612    2610
    2611    2613    2614    2615    2616    2617    2618    2619    2620    2621
    2611    2613    2614    2615    2613    2614    2615       0    2614    2615
    2616    2617    2618    2615    2616    2617    2618    2616    2617    2618
    2619    2620    2621    2622    2623    2624    2617    2618    2619    2620
    2621    2622    2623    2624    2618    2619    2620    2621    2619    2620
    2621    2620    2621    2622    2623    2624    2621    2622    2623    2624
    2622    2623    2624    2623    2624    2624       0    2626    2627    2628
    2629    2630    2631    2632    2633    2634    2635    2636    2637    2627
    2628    2629    2630    2631    2632    2633    2634    2635    2638    2639
    2640    2628    2629    2630    2631    2632    2635    2636    2637    2638
    2640    2641    2629    2630    2631    2632    2635    2636    2637    2641
    2642    2643    2630    2633    2634    2635    2638    2639    2644    2645
    2646    2647    2631    2632    2633    2634    2635    2636    2638    2640
    2644    2632    2635    2636    2637    2641    2648    2649    2636    2637
    2641    2642    2643    2648    2649    2650    2634    2635    2638    2639
    2640    2644    2645    2646    2647    2651    2652    2653    2638    2639
    2638    2639    2640    2644    2637    2641    2642    2643    2648    2649
    2654    2641    2642    2643    2648    2650    2654    2639    2640    2644
    2645    2646    2647    2644    2645    2646    2647    2651    2652    2653
    2655    2656    2657    2644    2642    2648    2649    2650    2654    2658
    2659    2643    2648    2649    2650    2654    2658    2659    2648    2650
       0    2646    2647    2651    2652    2653    2655    2656    2657    2660
    2661    2662    2647    2651    2652    2653    2651    2652    2653    2649
    2650    2654    2658    2659    2663    2664    2665    2666    2654    2654
    2652    2653    2655    2656    2657    2660    2661    2662    2667    2668
    2669    2653    2655    2656    2657    2655    2656    2657    2658    2659
    2663    2664    2665    2666    2670    2671    2672    2656    2657    2660
    2661    2662    2667    2668    2669    2673    2674    2675    2657    2660
    2661    2662    2660    2661    2662    2659    2663    2664    2665    2666
    2670    2671    2676    2663    2664    2665    2666    2670    2672    2676
    2661    2662    2667    2668    2669    2673    2674    2675    2677    2678
    2679    2662    2667    2668    2669    2667    2668    2669    2664    2665
    2670    2671    2672    2676    2670    2671    2666    2670    2671    2672
    2676    2670    2672    2668    2669    2673    2674    2675    2677    2678
    2679    2680    2681    2682    2669    2673    2674    2675    2673    2674
    2675    2671    2672    2676    2676    2676    2674    2675    2677    2678
    2679    2680    2681    2682    2683    2684    2685    2675    2677    2678
    2679    2677    2678    2679       0    2678    2679    2680    2681    2682
    2679    2680    2681    2682    2680    2681    2682    2683    2684    2685
    2686    2687    2688    2681    2682    2683    2684    2685    2686    2687
    2688    2682    2683    2684    2685    2683    2684    2685    2684    2685
    2686    2687    2688    2685    2686    2687    2688    2686    2687    2688
    2687    2688    2688       0    2690    2691    2692    2693    2694    2695
    2696    2697    2698    2699    2700    2701    2691    2692    2693    2694
    2695    2696    2697    2698    2699    2702    2703    2704    2692    2693
    2694    2695    2696    2699    2700    2701    2702    2704    2705    2693
    2694    2695    2696    2699    2700    2701    2705    2706    2707    2694
    2697    2698    2699    2702    2703    2708    2709    2710    2711    2695
    2696    2697    2698    2699    2700    2702    2704    2708    2696    2699
    2700    2701    2705    2712    2713    2700    2701    2705    2706    2707
    2712    2713    2714    2698    2699    2702    2703    2704    2708    2709
    2710    2711    2715    2716    2717    2702    2703    2702    2703    2704
    2708    2701    2705    2706    2707    2712    2713    2718    2705    2706
    2707    2712    2714    2718    2703    2704    2708    2709    2710    2711
    2708    2709    2710    2711    2715    2716    2717    2719    2720    2721
    2708    2706    2712    2713    2714    2718    2722    2723    2707    2712
    2713    2714    2718    2722    2723    2712    2714       0    2710    2711
    2715    2716    2717    2719    2720    2721    2724    2725    2726    2711
    2715    2716    2717    2715    2716    2717    2713    2714    2718    2722
    2723    2727    2728    2729    2730    2718    2718    2716    2717    2719
    2720    2721    2724    2725    2726    2731    2732    2733    2717    2719
    2720    2721    2719    2720    2721    2722    2723    2727    2728    2729
    2730    2734    2735    2736    2720    2721    2724    2725    2726    2731
    2732    2733    2737    2738    2739    2721    2724    2725    2726    2724
    2725    2726    2723    2727    2728    2729    2730    2734    2735    2740
    2727    2728    2729    2730    2734    2736    2740    2725    2726    2731
    2732    2733    2737    2738    2739    2741    2742    2743    2726    2731
    2732    2733    2731    2732    2733    2728    2729    2734    2735    2736
    2740    2734    2735    2730    2734    2735    2736    2740    2734    2736
    2732    2733    2737    2738    2739    2741    2742    2743    2744    2745
    2746    2733    2737    2738    2739    2737    2738    2739    2735    2736
    2740    2740    2740    2738    2739    2741    2742    2743    2744    2745
    2746    2747    2748    2749    2739    2741    2742    2743    2741    2742
    2743       0    2742    2743    2744    2745    2746    2743    2744    2745
    2746    2744    2745    2746    2747    2748    2749    2750    2751    2752
    2745    2746    2747    2748    2749    2750    2751    2752    2746    2747
    2748    2749    2747    2748    2749    2748    2749    2750    2751    2752
    2749    2750    2751    2752    2750    2751    2752    2751    2752    2752
       0    2754    2755    2756    2757    2758    2759    2760    2761    2762
    2763    2764    2765    2755    2756    2757    2758    2759    2760    2761
    2762    2763    2766    2767    2768    2756    2757    2758    2759    2760
    2763    2764    2765    2766    2768    2769    2757    2758    2759    2760
    2763    2764    2765    2769    2770    2771    2758    2761    2762    2763
    2766    2767    2772    2773    2774    2775    2759    2760    2761    2762
    2763    2764    2766    2768    2772    2760    2763    2764    2765    2769
    2776    2777    2764    2765    2769    2770    2771    2776    2777    2778
    2762    2763    2766    2767    2768    2772    2773    2774    2775    2779
    2780    2781    2766    2767    2766    2767    2768    2772    2765    2769
    2770    2771    2776    2777    2782    2769    2770    2771    2776    2778
    2782    2767    2768    2772    2773    2774    2775    2772    2773    2774
    2775    2779    2780    2781    2783    2784    2785    2772    2770    2776
    2777    2778    2782    2786    2787    2771    2776    2777    2778    2782
    2786    2787    2776    2778       0    2774    2775    2779    2780    2781
    2783    2784    2785    2788    2789    2790    2775    2779    2780    2781
    2779    2780    2781    2777    2778    2782    2786    2787    2791    2792
    2793    2794    2782    2782    2780    2781    2783    2784    2785    2788
    2789    2790    2795    2796    2797    2781    2783    2784    2785    2783
    2784    2785    2786    2787    2791    2792    2793    2794    2798    2799
    2800    2784    2785    2788    2789    2790    2795    2796    2797    2801
    2802    2803    2785    2788    2789    2790    2788    2789    2790    2787
    2791    2792    2793    2794    2798    2799    2804    2791    2792    2793
    2794    2798    2800    2804    2789    2790    2795    2796    2797    2801
    2802    2803    2805    2806    2807    2790    2795    2796    2797    2795
    2796    2797    2792    2793    2798    2799    2800    2804    2798    2799
    2794    2798    2799    2800    2804    2798    2800    2796    2797    2801
    2802    2803    2805    2806    2807    2808    2809    2810    2797    2801
    2802    2803    2801    2802    2803    2799    2800    2804    2804    2804
    2802    2803    2805    2806    2807    2808    2809    2810    2811    2812
    2813    2803    2805    2806    2807    2805    2806    2807       0    2806
    2807    2808    2809    2810    2807    2808    2809    2810    2808    2809
    2810    2811    2812    2813    2814    2815    2816    2809    2810    2811
    2812    2813    2814    2815    2816    2810    2811    2812    2813    2811
    2812    2813    2812    2813    2814    2815    2816    2813    2814    2815
    2816    2814    2815    2816    2815    2816    2816       0    2818    2819
    2820    2821    2822    2823    2824    2825    2826    2827    2828    2829
    2819    2820    2821    2822    2823    2824    2825    2826    2827    2830
    2831    2832    2820    2821    2822    2823    2824    2827    2828    2829
    2830    2832    2833    2821    2822    2823    2824    2827    2828    2829
    2833    2834    2835    2822    2825    2826    2827    2830    2831    2836
    2837    2838    2839    2823    2824    2825    2826    2827    2828    2830
    2832    2836    2824    2827    2828    2829    2833    2840    2841    2828
    2829    2833    2834    2835    2840    2841    2842    2826    2827    2830
    2831    2832    2836    2837    2838    2839    2843    2844    2845    2830
    2831    2830    2831    2832    2836    2829    2833    2834    2835    2840
    2841    2846    2833    2834    2835    2840    2842    2846    2831    2832
    2836    2837    2838    2839    2836    2837    2838    2839    2843    2844
    2845    2847    2848    2849    2836    2834    2840    2841    2842    2846
    2850    2851    2835    2840    2841    2842    2846    2850    2851    2840
    2842       0    2838    2839    2843    2844    2845    2847    2848    2849
    2852    2853    2854    2839    2843    2844    2845    2843    2844    2845
    2841    2842    2846    2850    2851    2855    2856    2857    2858    2846
    2846    2844    2845    2847    2848    2849    2852    2853    2854    2859
    2860    2861    2845    2847    2848    2849    2847    2848    2849    2850
    2851    2855    2856    2857    2858    2862    2863    2864    2848    2849
    2852    2853    2854    2859    2860    2861    2865    2866    2867    2849
    2852    2853    2854    2852    2853    2854    2851    2855    2856    2857
    2858    2862    2863    2868    2855    2856    2857    2858    2862    2864
    2868    2853    2854    2859    2860    2861    2865    2866    2867    2869
    2870    2871    2854    2859    2860    2861    2859    2860    2861    2856
    2857    2862    2863    2864    2868    2862    2863    2858    2862    2863
    2864    2868    2862    2864    2860    2861    2865    2866    2867    2869
    2870    2871    2872    2873    2874    2861    2865    2866    2867    2865
    2866    2867    2863    2864    2868    2868    2868    2866    2867    2869
    2870    2871    2872    2873    2874    2875    2876    2877    2867    2869
    2870    2871    2869    2870    2871       0    2870    2871    2872    2873
    2874    2871    2872    2873    2874    2872    2873    2874    2875    2876
    2877    2878    2879    2880    2873    2874    2875    2876    2877    2878
    2879    2880    2874    2875    2876    2877    2875    2876    2877    2876
    2877    2878    2879    2880    2877    2878    2879    2880    2878    2879
    2880    2879    2880    2880       0    2882    2883    2884    2885    2886
    2887    2888    2889    2890    2891    2892    2893    2883    2884    2885
    2886    2887    2888    2889    2890    2891    2894    2895    2896    2884
    2885    2886    2887    2888    2891    2892    2893    2894    2896    2897
    2885    2886    2887    2888    2891    2892    2893    2897    2898    2899
    2886    2889    2890    2891    2894    2895    2900    2901    2902    2903
    2887    2888    2889    2890    2891    2892    2894    2896    2900    2888
    2891    2892    2893    2897    2904    2905    2892    2893    2897    2898
    2899    2904    2905    2906    2890    2891    2894    2895    2896    2900
    2901    2902    2903    2907    2908    2909    2894    2895    2894    2895
    2896    2900    2893    2897    2898    2899    2904    2905    2910    2897
    2898    2899    2904    2906    2910    2895    2896    2900    2901    2902
    2903    2900    2901    2902    2903    2907    2908    2909    2911    2912
    2913    2900    2898    2904    2905    2906    2910    2914    2915    2899
    2904    2905    2906    2910    2914    2915    2904    2906       0    2902
    2903    2907    2908    2909    2911    2912    2913    2916    2917    2918
    2903    2907    2908    2909    2907    2908    2909    2905    2906    2910
    2914    2915    2919    2920    2921    2922    2910    2910    2908    2909
    2911    2912    2913    2916    2917    2918    2923    2924    2925    2909
    2911    2912    2913    2911    2912    2913    2914    2915    2919    2920
    2921    2922    2926    2927    2928    2912    2913    2916    2917    2918
    2923    2924    2925    2929    2930    2931    2913    2916    2917    2918
    2916    2917    2918    2915    2919    2920    2921    2922    2926    2927
    2932    2919    2920    2921    2922    2926    2928    2932    2917    2918
    2923    2924    2925    2929    2930    2931    2933    2934    2935    2918
    2923    2924    2925    2923    2924    2925    2920    2921    2926    2927
    2928    2932    2926    2927    2922    2926    2927    2928    2932    2926
    2928    2924    2925    2929    2930    2931    2933    2934    2935    2936
    2937    2938    2925    2929    2930    2931    2929    2930    2931    2927
    2928    2932    2932    2932    2930    2931    2933    2934    2935    2936
    2937    2938    2939    2940    2941    2931    2933    2934    2935    2933
    2934    2935       0    2934    2935    2936    2937    2938    2935    2936
    2937    2938    2936    2937    2938    2939    2940    2941    2942    2943
    2944    2937    2938    2939    2940    2941    2942    2943    2944    2938
    2939    2940    2941    2939    2940    2941    2940    2941    2942    2943
    2944    2941    2942    2943    2944    2942    2943    2944    2943    2944
    2944       0    2946    2947    2948    2949    2950    2951    2952    2953
    2954    2955    2956    2957    2947    2948    2949    2950    2951    2952
    2953    2954    2955    2958    2959    2960    2948    2949    2950    2951
    2952    2955    2956    2957    2958    2960    2961    2949    2950    2951
    2952    2955    2956    2957    2961    2962    2963    2950    2953    2954
    2955    2958    2959    2964    2965    2966    2967    2951    2952    2953
    2954    2955    2956    2958    2960    2964    2952    2955    2956    2957
    2961    2968    2969    2956    2957    2961    2962    2963    2968    2969
    2970    2954    2955    2958    2959    2960    2964    2965    2966    2967
    2971    2972    2973    2958    2959    2958    2959    2960    2964    2957
    2961    2962    2963    2968    2969    2974    2961    2962    2963    2968
    2970    2974    2959    2960    2964    2965    2966    2967    2964    2965
    2966    2967    2971    2972    2973    2975    2976    2977    2964    2962
    2968    2969    2970    2974    2978    2979    2963    2968    2969    2970
    2974    2978    2979    2968    2970       0    2966    2967    2971    2972
    2973    2975    2976    2977    2980    2981    2982    2967    2971    2972
    2973    2971    2972    2973    2969    2970    2974    2978    2979    2983
    2984    2985    2986    2974    2974    2972    2973    2975    2976    2977
    2980    2981    2982    2987    2988    2989    2973    2975    2976    2977
    2975    2976    2977    2978    2979    2983    2984    2985    2986    2990
    2991    2992    2976    2977    2980    2981    2982    2987    2988    2989
    2993    2994    2995    2977    2980    2981    2982    2980    2981    2982
    2979    2983    2984    2985    2986    2990    2991    2996    2983    2984
    2985    2986    2990    2992    2996    2981    2982    2987    2988    2989
    2993    2994    2995    2997    2998    2999    2982    2987    2988    2989
    2987    2988    2989    2984    2985    2990    2991    2992    2996    2990
    2991    2986    2990    2991    2992    2996    2990    2992    2988    2989
    2993    2994    2995    2997    2998    2999    3000    3001    3002    2989
    2993    2994    2995    2993    2994    2995    2991    2992    2996    2996
    2996    2994    2995    2997    2998    2999    3000    3001    3002    3003
    3004    3005    2995    2997    2998    2999    2997    2998    2999       0
    2998    2999    3000    3001    3002    2999    3000    3001    3002    3000
    3001    3002    3003    3004    3005    3006    3007    3008    3001    3002
    3003    3004    3005    3006    3007    3008    3002    3003    3004    3005
    3003    3004    3005    3004    3005    3006    3007    3008    3005    3006
    3007    3008    3006    3007    3008    3007    3008    3008       0    3010
    3011    3012    3013    3014    3015    3016    3017    3018    3019    3020
    3021    3011    3012    3013    3014    3015    3016    3017    3018    3019
    3022    3023    3024    3012    3013    3014    3015    3016    3019    3020
    3021    3022    3024    3025    3013    3014    3015    3016    3019    3020
    3021    3025    3026    3027    3014    3017    3018    3019    3022    3023
    3028    3029    3030    3031    3015    3016    3017    3018    3019    3020
    3022    3024    3028    3016    3019    3020    3021    3025    3032    3033
    3020    3021    3025    3026    3027    3032    3033    3034    3018    3019
    3022    3023    3024    3028    3029    3030    3031    3035    3036    3037
    3022    3023    3022    3023    3024    3028    3021    3025    3026    3027
    3032    3033    3038    3025    3026    3027    3032    3034    3038    3023
    3024    3028    3029    3030    3031    3028    3029    3030    3031    3035
    3036    3037    3039    3040    3041    3028    3026    3032    3033    3034
    3038    3042    3043    3027    3032    3033    3034    3038    3042    3043
    3032    3034       0    3030    3031    3035    3036    3037    3039    3040
    3041    3044    3045    3046    3031    3035    3036    3037    3035    3036
    3037    3033    3034    3038    3042    3043    3047    3048    3049    3050
    3038    3038    3036    3037    3039    3040    3041    3044    3045    3046
    3051    3052    3053    3037    3039    3040    3041    3039    3040    3041
    3042    3043    3047    3048    3049    3050    3054    3055    3056    3040
    3041    3044    3045    3046    3051    3052    3053    3057    3058    3059
    3041    3044    3045    3046    3044    3045    3046    3043    3047    3048
    3049    3050    3054    3055    3060    3047    3048    3049    3050    3054
    3056    3060    3045    3046    3051    3052    3053    3057    3058    3059
    3061    3062    3063    3046    3051    3052    3053    3051    3052    3053
    3048    3049    3054    3055    3056    3060    3054    3055    3050    3054
    3055    3056    3060    3054    3056    3052    3053    3057    3058    3059
    3061    3062    3063    3064    3065    3066    3053    3057    3058    3059
    3057    3058    3059    3055    3056    3060    3060    3060    3058    3059
    3061    3062    3063    3064    3065    3066    3067    3068    3069    3059
    3061    3062    3063    3061    3062    3063       0    3062    3063    3064
    3065    3066    3063    3064    3065    3066    3064    3065    3066    3067
    3068    3069    3070    3071    3072    3065    3066    3067    3068    3069
    3070    3071    3072    3066    3067    3068    3069    3067    3068    3069
    3068    3069    3070    3071    3072    3069    3070    3071    3072    3070
    3071    3072    3071    3072    3072       0    3074    3075    3076    3077
    3078    3079    3080    3081    3082    3083    3084    3085    3075    3076
    3077    3078    3079    3080    3081    3082    3083    3086    3087    3088
    3076    3077    3078    3079    3080    3083    3084    3085    3086    3088
    3089    3077    3078    3079    3080    3083    3084    3085    3089    3090
    3091    3078    3081    3082    3083    3086    3087    3092    3093    3094
    3095    3079    3080    3081    3082    3083    3084    3086    3088    3092
    3080    3083    3084    3085    3089    3096    3097    3084    3085    3089
    3090    3091    3096    3097    3098    3082    3083    3086    3087    3088
    3092    3093    3094    3095    3099    3100    3101    3086    3087    3086
    3087    3088    3092    3085    3089    3090    3091    3096    3097    3102
    3089    3090    3091    3096    3098    3102    3087    3088    3092    3093
    3094    3095    3092    3093    3094    3095    3099    3100    3101    3103
    3104    3105    3092    3090    3096    3097    3098    3102    3106    3107
    3091    3096    3097    3098    3102    3106    3107    3096    3098       0
    3094    3095    3099    3100    3101    3103    3104    3105    3108    3109
    3110    3095    3099    3100    3101    3099    3100    3101    3097    3098
    3102    3106    3107    3111    3112    3113    3114    3102    3102    3100
    3101    3103    3104    3105    3108    3109    3110    3115    3116    3117
    3101    3103    3104    3105    3103    3104    3105    3106    3107    3111
    3112    3113    3114    3118    3119    3120    3104    3105    3108    3109
    3110    3115    3116    3117    3121    3122    3123    3105    3108    3109
    3110    3108    3109    3110    3107    3111    3112    3113    3114    3118
    3119    3124    3111    3112    3113    3114    3118    3120    3124    3109
    3110    3115    3116    3117    3121    3122    3123    3125    3126    3127
    3110    3115    3116    3117    3115    3116    3117    3112    3113    3118
    3119    3120    3124    3118    3119    3114    3118    3119    3120    3124
    3118    3120    3116    3117    3121    3122    3123    3125    3126    3127
    3128    3129    3130    3117    3121    3122    3123    3121    3122    3123
    3119    3120    3124    3124    3124    3122    3123    3125    3126    3127
    3128    3129    3130    3131    3132    3133    3123    3125    3126    3127
    3125    3126    3127       0    3126    3127    3128    3129    3130    3127
    3128    3129    3130    3128    3129    3130    3131    3132    3133    3134
    3135    3136    3129    3130    3131    3132    3133    3134    3135    3136
    3130    3131    3132    3133    3131    3132    3133    3132    3133    3134
    3135    3136    3133    3134    3135    3136    3134    3135    3136    3135
    3136    3136       0    3138    3139    3140    3141    3142    3143    3144
    3145    3146    3147    3148    3149    3139    3140    3141    3142    3143
    3144    3145    3146    3147    3150    3151    3152    3140    3141    3142
    3143    3144    3147    3148    3149    3150    3152    3153    3141    3142
    3143    3144    3147    3148    3149    3153    3154    3155    3142    3145
    3146    3147    3150    3151    3156    3157    3158    3159    3143    3144
    3145    3146    3147    3148    3150    3152    3156    3144    3147    3148
    3149    3153    3160    3161    3148    3149    3153    3154    3155    3160
    3161    3162    3146    3147    3150    3151    3152    3156    3157    3158
    3159    3163    3164    3165    3150    3151    3150    3151    3152    3156
    3149    3153    3154    3155    3160    3161    3166    3153    3154    3155
    3160    3162    3166    3151    3152    3156    3157    3158    3159    3156
    3157    3158    3159    3163    3164    3165    3167    3168    3169    3156
    3154    3160    3161    3162    3166    3170    3171    3155    3160    3161
    3162    3166    3170    3171    3160    3162       0    3158    3159    3163
    3164    3165    3167    3168    3169    3172    3173    3174    3159    3163
    3164    3165    3163    3164    3165    3161    3162    3166    3170    3171
    3175    3176    3177    3178    3166    3166    3164    3165    3167    3168
    3169    3172    3173    3174    3179    3180    3181    3165    3167    3168
    3169    3167    3168    3169    3170    3171    3175    3176    3177    3178
    3182    3183    3184    3168    3169    3172    3173    3174    3179    3180
    3181    3185    3186    3187    3169    3172    3173    3174    3172    3173
    3174    3171    3175    3176    3177    3178    3182    3183    3188    3175
    3176    3177    3178    3182    3184    3188    3173    3174    3179    3180
    3181    3185    3186    3187    3189    3190    3191    3174    3179    3180
    3181    3179    3180    3181    3176    3177    3182    3183    3184    3188
    3182    3183    3178    3182    3183    3184    3188    3182    3184    3180
    3181    3185    3186    3187    3189    3190    3191    3192    3193    3194
    3181    3185    3186    3187    3185    3186    3187    3183    3184    3188
    3188    3188    3186    3187    3189    3190    3191    3192    3193    3194
    3195    3196    3197    3187    3189    3190    3191    3189    3190    3191
       0    3190    3191    3192    3193    3194    3191    3192    3193    3194
    3192    3193    3194    3195    3196    3197    3198    3199    3200    3193
    3194    3195    3196    3197    3198    3199    3200    3194    3195    3196
    3197    3195    3196    3197    3196    3197    3198    3199    3200    3197
    3198    3199    3200    3198    3199    3200    3199    3200    3200       0
    3202    3203    3204    3205    3206    3207    3208    3209    3210    3211
    3212    3213    3203    3204    3205    3206    3207    3208    3209    3210
    3211    3214    3215    3216    3204    3205    3206    3207    3208    3211
    3212    3213    3214    3216    3217    3205    3206    3207    3208    3211
    3212    3213    3217    3218    3219    3206    3209    3210    3211    3214
    3215    3220    3221    3222    3223    3207    3208    3209    3210    3211
    3212    3214    3216    3220    3208    3211    3212    3213    3217    3224
    3225    3212    3213    3217    3218    3219    3224    3225    3226    3210
    3211    3214    3215    3216    3220    3221    3222    3223    3227    3228
    3229    3214    3215    3214    3215    3216    3220    3213    3217    3218
    3219    3224    3225    3230    3217    3218    3219    3224    3226    3230
    3215    3216    3220    3221    3222    3223    3220    3221    3222    3223
    3227    3228    3229    3231    3232    3233    3220    3218    3224    3225
    3226    3230    3234    3235    3219    3224    3225    3226    3230    3234
    3235    3224    3226       0    3222    3223    3227    3228    3229    3231
    3232    3233    3236    3237    3238    3223    3227    3228    3229    3227
    3228    3229    3225    3226    3230    3234    3235    3239    3240    3241
    3242    3230    3230    3228    3229    3231    3232    3233    3236    3237
    3238    3243    3244    3245    3229    3231    3232    3233    3231    3232
    3233    3234    3235    3239    3240    3241    3242    3246    3247    3248
    3232    3233    3236    3237    3238    3243    3244    3245    3249    3250
    3251    3233    3236    3237    3238    3236    3237    3238    3235    3239
    3240    3241    3242    3246    3247    3252    3239    3240    3241    3242
    3246    3248    3252    3237    3238    3243    3244    3245    3249    3250
    3251    3253    3254    3255    3238    3243    3244    3245    3243    3244
    3245    3240    3241    3246    3247    3248    3252    3246    3247    3242
    3246    3247    3248    3252    3246    3248    3244    3245    3249    3250
    3251    3253    3254    3255    3256    3257    3258    3245    3249    3250
    3251    3249    3250    3251    3247    3248    3252    3252    3252    3250
    3251    3253    3254    3255    3256    3257    3258    3259    3260    3261
    3251    3253    3254    3255    3253    3254    3255       0    3254    3255
    3256    3257    3258    3255    3256    3257    3258    3256    3257    3258
    3259    3260    3261    3262    3263    3264    3257    3258    3259    3260
    3261    3262    3263    3264    3258    3259    3260    3261    3259    3260
    3261    3260    3261    3262    3263    3264    3261    3262    3263    3264
    3262    3263    3264    3263    3264    3264       0    3266    3267    3268
    3269    3270    3271    3272    3273    3274    3275    3276    3277    3267
    3268    3269    3270    3271    3272    3273    3274    3275    3278    3279
    3280    3268    3269    3270    3271    3272    3275    3276    3277    3278
    3280    3281    3269    3270    3271    3272    3275    3276    3277    3281
    3282    3283    3270    3273    3274    3275    3278    3279    3284    3285
    3286    3287    3271    3272    3273    3274    3275    3276    3278    3280
    3284    3272    3275    3276    3277    3281    3288    3289    3276    3277
    3281    3282    3283    3288    3289    3290    3274    3275    3278    3279
    3280    3284    3285    3286    3287    3291    3292    3293    3278    3279
    3278    3279    3280    3284    3277    3281    3282    3283    3288    3289
    3294    3281    3282    3283    3288    3290    3294    3279    3280    3284
    3285    3286    3287    3284    3285    3286    3287    3291    3292    3293
    3295    3296    3297    3284    3282    3288    3289    3290    3294    3298
    3299    3283    3288    3289    3290    3294    3298    3299    3288    3290
       0    3286    3287    3291    3292    3293    3295    3296    3297    3300
    3301    3302    3287    3291    3292    3293    3291    3292    3293    3289
    3290    3294    3298    3299    3303    3304    3305    3306    3294    3294
    3292    3293    3295    3296    3297    3300    3301    3302    3307    3308
    3309    3293    3295    3296    3297    3295    3296    3297    3298    3299
    3303    3304    3305    3306    3310    3311    3312    3296    3297    3300
    3301    3302    3307    3308    3309    3313    3314    3315    3297    3300
    3301    3302    3300    3301    3302    3299    3303    3304    3305    3306
    3310    3311    3316    3303    3304    3305    3306    3310    3312    3316
    3301    3302    3307    3308    3309    3313    3314    3315    3317    3318
    3319    3302    3307    3308    3309    3307    3308    3309    3304    3305
    3310    3311    3312    3316    3310    3311    3306    3310    3311    3312
    3316    3310    3312    3308    3309    3313    3314    3315    3317    3318
    3319    3320    3321    3322    3309    3313    3314    3315    3313    3314
    3315    3311    3312    3316    3316    3316    3314    3315    3317    3318
    3319    3320    3321    3322    3323    3324    3325    3315    3317    3318
    3319    3317    3318    3319       0    3318    3319    3320    3321    3322
    3319    3320    3321    3322    3320    3321    3322    3323    3324    3325
    3326    3327    3328    3321    3322    3323    3324    3325    3326    3327
    3328    3322    3323    3324    3325    3323    3324    3325    3324    3325
    3326    3327    3328    3325    3326    3327    3328    3326    3327    3328
    3327    3328    3328       0    3330    3331    3332    3333    3334    3335
    3336    3337    3338    3339    3340    3341    3331    3332    3333    3334
    3335    3336    3337    3338    3339    3342    3343    3344    3332    3333
    3334    3335    3336    3339    3340    3341    3342    3344    3345    3333
    3334    3335    3336    3339    3340    3341    3345    3346    3347    3334
    3337    3338    3339    3342    3343    3348    3349    3350    3351    3335
    3336    3337    3338    3339    3340    3342    3344    3348    3336    3339
    3340    3341    3345    3352    3353    3340    3341    3345    3346    3347
    3352    3353    3354    3338    3339    3342    3343    3344    3348    3349
    3350    3351    3355    3356    3357    3342    3343    3342    3343    3344
    3348    3341    3345    3346    3347    3352    3353    3358    3345    3346
    3347    3352    3354    3358    3343    3344    3348    3349    3350    3351
    3348    3349    3350    3351    3355    3356    3357    3359    3360    3361
    3348    3346    3352    3353    3354    3358    3362    3363    3347    3352
    3353    3354    3358    3362    3363    3352    3354       0    3350    3351
    3355    3356    3357    3359    3360    3361    3364    3365    3366    3351
    3355    3356    3357    3355    3356    3357    3353    3354    3358    3362
    3363    3367    3368    3369    3370    3358    3358    3356    3357    3359
    3360    3361    3364    3365    3366    3371    3372    3373    3357    3359
    3360    3361    3359    3360    3361    3362    3363    3367    3368    3369
    3370    3374    3375    3376    3360    3361    3364    3365    3366    3371
    3372    3373    3377    3378    3379    3361    3364    3365    3366    3364
    3365    3366    3363    3367    3368    3369    3370    3374    3375    3380
    3367    3368    3369    3370    3374    3376    3380    3365    3366    3371
    3372    3373    3377    3378    3379    3381    3382    3383    3366    3371
    3372    3373    3371    3372    3373    3368    3369    3374    3375    3376
    3380    3374    3375    3370    3374    3375    3376    3380    3374    3376
    3372    3373    3377    3378    3379    3381    3382    3383    3384    3385
    3386    3373    3377    3378    3379    3377    3378    3379    3375    3376
    3380    3380    3380    3378    3379    3381    3382    3383    3384    3385
    3386    3387    3388    3389    3379    3381    3382    3383    3381    3382
    3383       0    3382    3383    3384    3385    3386    3383    3384    3385
    3386    3384    3385    3386    3387    3388    3389    3390    3391    3392
    3385    3386    3387    3388    3389    3390    3391    3392    3386    3387
    3388    3389    3387    3388    3389    3388    3389    3390    3391    3392
    3389    3390    3391    3392    3390    3391    3392    3391    3392    3392
       0    3394    3395    3396    3397    3398    3399    3400    3401    3402
    3403    3404    3405    3395    3396    3397    3398    3399    3400    3401
    3402    3403    3406    3407    3408    3396    3397    3398    3399    3400
    3403    3404    3405    3406    3408    3409    3397    3398    3399    3400
    3403    3404    3405    3409    3410    3411    3398    3401    3402    3403
    3406    3407    3412    3413    3414    3415    3399    3400    3401    3402
    3403    3404    3406    3408    3412    3400    3403    3404    3405    3409
    3416    3417    3404    3405    3409    3410    3411    3416    3417    3418
    3402    3403    3406    3407    3408    3412    3413    3414    3415    3419
    3420    3421    3406    3407    3406    3407    3408    3412    3405    3409
    3410    3411    3416    3417    3422    3409    3410    3411    3416    3418
    3422    3407    3408    3412    3413    3414    3415    3412    3413    3414
    3415    3419    3420    3421    3423    3424    3425    3412    3410    3416
    3417    3418    3422    3426    3427    3411    3416    3417    3418    3422
    3426    3427    3416    3418       0    3414    3415    3419    3420    3421
    3423    3424    3425    3428    3429    3430    3415    3419    3420    3421
    3419    3420    3421    3417    3418    3422    3426    3427    3431    3432
    3433    3434    3422    3422    3420    3421    3423    3424    3425    3428
    3429    3430    3435    3436    3437    3421    3423    3424    3425    3423
    3424    3425    3426    3427    3431    3432    3433    3434    3438    3439
    3440    3424    3425    3428    3429    3430    3435    3436    3437    3441
    3442    3443    3425    3428    3429    3430    3428    3429    3430    3427
    3431    3432    3433    3434    3438    3439    3444    3431    3432    3433
    3434    3438    3440    3444    3429    3430    3435    3436    3437    3441
    3442    3443    3445    3446    3447    3430    3435    3436    3437    3435
    3436    3437    3432    3433    3438    3439    3440    3444    3438    3439
    3434    3438    3439    3440    3444    3438    3440    3436    3437    3441
    3442    3443    3445    3446    3447    3448    3449    3450    3437    3441
    3442    3443    3441    3442    3443    3439    3440    3444    3444    3444
    3442    3443    3445    3446    3447    3448    3449    3450    3451    3452
    3453    3443    3445    3446    3447    3445    3446    3447       0    3446
    3447    3448    3449    3450    3447    3448    3449    3450    3448    3449
    3450    3451    3452    3453    3454    3455    3456    3449    3450    3451
    3452    3453    3454    3455    3456    3450    3451    3452    3453    3451
    3452    3453    3452    3453    3454    3455    3456    3453    3454    3455
    3456    3454    3455    3456    3455    3456    3456       0    3458    3459
    3460    3461    3462    3463    3464    3465    3466    3467    3468    3469
    3459    3460    3461    3462    3463    3464    3465    3466    3467    3470
    3471    3472    3460    3461    3462    3463    3464    3467    3468    3469
    3470    3472    3473    3461    3462    3463    3464    3467    3468    3469
    3473    3474    3475    3462    3465    3466    3467    3470    3471    3476
    3477    3478    3479    3463    3464    3465    3466    3467    3468    3470
    3472    3476    3464    3467    3468    3469    3473    3480    3481    3468
    3469    3473    3474    3475    3480    3481    3482    3466    3467    3470
    3471    3472    3476    3477    3478    3479    3483    3484    3485    3470
    3471    3470    3471    3472    3476    3469    3473    3474    3475    3480
    3481    3486    3473    3474    3475    3480    3482    3486    3471    3472
    3476    3477    3478    3479    3476    3477    3478    3479    3483    3484
    3485    3487    3488    3489    3476    3474    3480    3481    3482    3486
    3490    3491    3475    3480    3481    3482    3486    3490    3491    3480
    3482       0    3478    3479    3483    3484    3485    3487    3488    3489
    3492    3493    3494    3479    3483    3484    3485    3483    3484    3485
    3481    3482    3486    3490    3491    3495    3496    3497    3498    3486
    3486    3484    3485    3487    3488    3489    3492    3493    3494    3499
    3500    3501    3485    3487    3488    3489    3487    3488    3489    3490
    3491    3495    3496    3497    3498    3502    3503    3504    3488    3489
    3492    3493    3494    3499    3500    3501    3505    3506    3507    3489
    3492    3493    3494    3492    3493    3494    3491    3495    3496    3497
    3498    3502    3503    3508    3495    3496    3497    3498    3502    3504
    3508    3493    3494    3499    3500    3501    3505    3506    3507    3509
    3510    3511    3494    3499    3500    3501    3499    3500    3501    3496
    3497    3502    3503    3504    3508    3502    3503    3498    3502    3503
    3504    3508    3502    3504    3500    3501    3505    3506    3507    3509
    3510    3511    3512    3513    3514    3501    3505    3506    3507    3505
    3506    3507    3503    3504    3508    3508    3508    3506    3507    3509
    3510    3511    3512    3513    3514    3515    3516    3517    3507    3509
    3510    3511    3509    3510    3511       0    3510    3511    3512    3513
    3514    3511    3512    3513    3514    3512    3513    3514    3515    3516
    3517    3518    3519    3520    3513    3514    3515    3516    3517    3518
    3519    3520    3514    3515    3516    3517    3515    3516    3517    3516
    3517    3518    3519    3520    3517    3518    3519    3520    3518    3519
    3520    3519    3520    3520       0    3522    3523    3524    3525    3526
    3527    3528    3529    3530    3531    3532    3533    3523    3524    3525
    3526    3527    3528    3529    3530    3531    3534    3535    3536    3524
    3525    3526    3527    3528    3531    3532    3533    3534    3536    3537
    3525    3526    3527    3528    3531    3532    3533    3537    3538    3539
    3526    3529    3530    3531    3534    3535    3540    3541    3542    3543
    3527    3528    3529    3530    3531    3532    3534    3536    3540    3528
    3531    3532    3533    3537    3544    3545    3532    3533    3537    3538
    3539    3544    3545    3546    3530    3531    3534    3535    3536    3540
    3541    3542    3543    3547    3548    3549    3534    3535    3534    3535
    3536    3540    3533    3537    3538    3539    3544    3545    3550    3537
    3538    3539    3544    3546    3550    3535    3536    3540    3541    3542
    3543    3540    3541    3542    3543    3547    3548    3549    3551    3552
    3553    3540    3538    3544    3545    3546    3550    3554    3555    3539
    3544    3545    3546    3550    3554    3555    3544    3546       0    3542
    3543    3547    3548    3549    3551    3552    3553    3556    3557    3558
    3543    3547    3548    3549    3547    3548    3549    3545    3546    3550
    3554    3555    3559    3560    3561    3562    3550    3550    3548    3549
    3551    3552    3553    3556    3557    3558    3563    3564    3565    3549
    3551    3552    3553    3551    3552    3553    3554    3555    3559    3560
    3561    3562    3566    3567    3568    3552    3553    3556    3557    3558
    3563    3564    3565    3569    3570    3571    3553    3556    3557    3558
    3556    3557    3558    3555    3559    3560    3561    3562    3566    3567
    3572    3559    3560    3561    3562    3566    3568    3572    3557    3558
    3563    3564    3565    3569    3570    3571    3573    3574    3575    3558
    3563    3564    3565    3563    3564    3565    3560    3561    3566    3567
    3568    3572    3566    3567    3562    3566    3567    3568    3572    3566
    3568    3564    3565    3569    3570    3571    3573    3574    3575    3576
    3577    3578    3565    3569    3570    3571    3569    3570    3571    3567
    3568    3572    3572    3572    3570    3571    3573    3574    3575    3576
    3577    3578    3579    3580    3581    3571    3573    3574    3575    3573
    3574    3575       0    3574    3575    3576    3577    3578    3575    3576
    3577    3578    3576    3577    3578    3579    3580    3581    3582    3583
    3584    3577    3578    3579    3580    3581    3582    3583    3584    3578
    3579    3580    3581    3579    3580    3581    3580    3581    3582    3583
    3584    3581    3582    3583    3584    3582    3583    3584    3583    3584
    3584       0    3586    3587    3588    3589    3590    3591    3592    3593
    3594    3595    3596    3597    3587    3588    3589    3590    3591    3592
    3593    3594    3595    3598    3599    3600    3588    3589    3590    3591
    3592    3595    3596    3597    3598    3600    3601    3589    3590    3591
    3592    3595    3596    3597    3601    3602    3603    3590    3593    3594
    3595    3598    3599    3604    3605    3606    3607    3591    3592    3593
    3594    3595    3596    3598    3600    3604    3592    3595    3596    3597
    3601    3608    3609    3596    3597    3601    3602    3603    3608    3609
    3610    3594    3595    3598    3599    3600    3604    3605    3606    3607
    3611    3612    3613    3598    3599    3598    3599    3600    3604    3597
    3601    3602    3603    3608    3609    3614    3601    3602    3603    3608
    3610    3614    3599    3600    3604    3605    3606    3607    3604    3605
    3606    3607    3611    3612    3613    3615    3616    3617    3604    3602
    3608    3609    3610    3614    3618    3619    3603    3608    3609    3610
    3614    3618    3619    3608    3610       0    3606    3607    3611    3612
    3613    3615    3616    3617    3620    3621    3622    3607    3611    3612
    3613    3611    3612    3613    3609    3610    3614    3618    3619    3623
    3624    3625    3626    3614    3614    3612    3613    3615    3616    3617
    3620    3621    3622    3627    3628    3629    3613    3615    3616    3617
    3615    3616    3617    3618    3619    3623    3624    3625    3626    3630
    3631    3632    3616    3617    3620    3621    3622    3627    3628    3629
    3633    3634    3635    3617    3620    3621    3622    3620    3621    3622
    3619    3623    3624    3625    3626    3630    3631    3636    3623    3624
    3625    3626    3630    3632    3636    3621    3622    3627    3628    3629
    3633    3634    3635    3637    3638    3639    3622    3627    3628    3629
    3627    3628    3629    3624    3625    3630    3631    3632    3636    3630
    3631    3626    3630    3631    3632    3636    3630    3632    3628    3629
    3633    3634    3635    3637    3638    3639    3640    3641    3642    3629
    3633    3634    3635    3633    3634    3635    3631    3632    3636    3636
    3636    3634    3635    3637    3638    3639    3640    3641    3642    3643
    3644    3645    3635    3637    3638    3639    3637    3638    3639       0
    3638    3639    3640    3641    3642    3639    3640    3641    3642    3640
    3641    3642    3643    3644    3645    3646    3647    3648    3641    3642
    3643    3644    3645    3646    3647    3648    3642    3643    3644    3645
    3643    3644    3645    3644    3645    3646    3647    3648    3645    3646
    3647    3648    3646    3647    3648    3647    3648    3648       0    3650
    3651    3652    3653    3654    3655    3656    3657    3658    3659    3660
    3661    3651    3652    3653    3654    3655    3656    3657    3658    3659
    3662    3663    3664    3652    3653    3654    3655    3656    3659    3660
    3661    3662    3664    3665    3653    3654    3655    3656    3659    3660
    3661    3665    3666    3667    3654    3657    3658    3659    3662    3663
    3668    3669    3670    3671    3655    3656    3657    3658    3659    3660
    3662    3664    3668    3656    3659    3660    3661    3665    3672    3673
    3660    3661    3665    3666    3667    3672    3673    3674    3658    3659
    3662    3663    3664    3668    3669    3670    3671    3675    3676    3677
    3662    3663    3662    3663    3664    3668    3661    3665    3666    3667
    3672    3673    3678    3665    3666    3667    3672    3674    3678    3663
    3664    3668    3669    3670    3671    3668    3669    3670    3671    3675
    3676    3677    3679    3680    3681    3668    3666    3672    3673    3674
    3678    3682    3683    3667    3672    3673    3674    3678    3682    3683
    3672    3674       0    3670    3671    3675    3676    3677    3679    3680
    3681    3684    3685    3686    3671    3675    3676    3677    3675    3676
    3677    3673    3674    3678    3682    3683    3687    3688    3689    3690
    3678    3678    3676    3677    3679    3680    3681    3684    3685    3686
    3691    3692    3693    3677    3679    3680    3681    3679    3680    3681
    3682    3683    3687    3688    3689    3690    3694    3695    3696    3680
    3681    3684    3685    3686    3691    3692    3693    3697    3698    3699
    3681    3684    3685    3686    3684    3685    3686    3683    3687    3688
    3689    3690    3694    3695    3700    3687    3688    3689    3690    3694
    3696    3700    3685    3686    3691    3692    3693    3697    3698    3699
    3701    3702    3703    3686    3691    3692    3693    3691    3692    3693
    3688    3689    3694    3695    3696    3700    3694    3695    3690    3694
    3695    3696    3700    3694    3696    3692    3693    3697    3698    3699
    3701    3702    3703    3704    3705    3706    3693    3697    3698    3699
    3697    3698    3699    3695    3696    3700    3700    3700    3698    3699
    3701    3702    3703    3704    3705    3706    3707    3708    3709    3699
    3701    3702    3703    3701    3702    3703       0    3702    3703    3704
    3705    3706    3703    3704    3705    3706    3704    3705    3706    3707
    3708    3709    3710    3711    3712    3705    3706    3707    3708    3709
    3710    3711    3712    3706    3707    3708    3709    3707    3708    3709
    3708    3709    3710    3711    3712    3709    3710    3711    3712    3710
    3711    3712    3711    3712    3712       0    3714    3715    3716    3717
    3718    3719    3720    3721    3722    3723    3724    3725    3715    3716
    3717    3718    3719    3720    3721    3722    3723    3726    3727    3728
    3716    3717    3718    3719    3720    3723    3724    3725    3726    3728
    3729    3717    3718    3719    3720    3723    3724    3725    3729    3730
    3731    3718    3721    3722    3723    3726    3727    3732    3733    3734
    3735    3719    3720    3721    3722    3723    3724    3726    3728    3732
    3720    3723    3724    3725    3729    3736    3737    3724    3725    3729
    3730    3731    3736    3737    3738    3722    3723    3726    3727    3728
    3732    3733    3734    3735    3739    3740    3741    3726    3727    3726
    3727    3728    3732    3725    3729    3730    3731    3736    3737    3742
    3729    3730    3731    3736    3738    3742    3727    3728    3732    3733
    3734    3735    3732    3733    3734    3735    3739    3740    3741    3743
    3744    3745    3732    3730    3736    3737    3738    3742    3746    3747
    3731    3736    3737    3738    3742    3746    3747    3736    3738       0
    3734    3735    3739    3740    3741    3743    3744    3745    3748    3749
    3750    3735    3739    3740    3741    3739    3740    3741    3737    3738
    3742    3746    3747    3751    3752    3753    3754    3742    3742    3740
    3741    3743    3744    3745    3748    3749    3750    3755    3756    3757
    3741    3743    3744    3745    3743    3744    3745    3746    3747    3751
    3752    3753    3754    3758    3759    3760    3744    3745    3748    3749
    3750    3755    3756    3757    3761    3762    3763    3745    3748    3749
    3750    3748    3749    3750    3747    3751    3752    3753    3754    3758
    3759    3764    3751    3752    3753    3754    3758    3760    3764    3749
    3750    3755    3756    3757    3761    3762    3763    3765    3766    3767
    3750    3755    3756    3757    3755    3756    3757    3752    3753    3758
    3759    3760    3764    3758    3759    3754    3758    3759    3760    3764
    3758    3760    3756    3757    3761    3762    3763    3765    3766    3767
    3768    3769    3770    3757    3761    3762    3763    3761    3762    3763
    3759    3760    3764    3764    3764    3762    3763    3765    3766    3767
    3768    3769    3770    3771    3772    3773    3763    3765    3766    3767
    3765    3766    3767       0    3766    3767    3768    3769    3770    3767
    3768    3769    3770    3768    3769    3770    3771    3772    3773    3774
    3775    3776    3769    3770    3771    3772    3773    3774    3775    3776
    3770    3771    3772    3773    3771    3772    3773    3772    3773    3774
    3775    3776    3773    3774    3775    3776    3774    3775    3776    3775
    3776    3776       0    3778    3779    3780    3781    3782    3783    3784
    3785    3786    3787    3788    3789    3779    3780    3781    3782    3783
    3784    3785    3786    3787    3790    3791    3792    3780    3781    3782
    3783    3784    3787    3788    3789    3790    3792    3793    3781    3782
    3783    3784    3787    3788    3789    3793    3794    3795    3782    3785
    3786    3787    3790    3791    3796    3797    3798    3799    3783    3784
    3785    3786    3787    3788    3790    3792    3796    3784    3787    3788
    3789    3793    3800    3801    3788    3789    3793    3794    3795    3800
    3801    3802    3786    3787    3790    3791    3792    3796    3797    3798
    3799    3803    3804    3805    3790    3791    3790    3791    3792    3796
    3789    3793    3794    3795    3800    3801    3806    3793    3794    3795
    3800    3802    3806    3791    3792    3796    3797    3798    3799    3796
    3797    3798    3799    3803    3804    3805    3807    3808    3809    3796
    3794    3800    3801    3802    3806    3810    3811    3795    3800    3801
    3802    3806    3810    3811    3800    3802       0    3798    3799    3803
    3804    3805    3807    3808    3809    3812    3813    3814    3799    3803
    3804    3805    3803    3804    3805    3801    3802    3806    3810    3811
    3815    3816    3817    3818    3806    3806    3804    3805    3807    3808
    3809    3812    3813    3814    3819    3820    3821    3805    3807    3808
    3809    3807    3808    3809    3810    3811    3815    3816    3817    3818
    3822    3823    3824    3808    3809    3812    3813    3814    3819    3820
    3821    3825    3826    3827    3809    3812    3813    3814    3812    3813
    3814    3811    3815    3816    3817    3818    3822    3823    3828    3815
    3816    3817    3818    3822    3824    3828    3813    3814    3819    3820
    3821    3825    3826    3827    3829    3830    3831    3814    3819    3820
    3821    3819    3820    3821    3816    3817    3822    3823    3824    3828
    3822    3823    3818    3822    3823    3824    3828    3822    3824    3820
    3821    3825    3826    3827    3829    3830    3831    3832    3833    3834
    3821    3825    3826    3827    3825    3826    3827    3823    3824    3828
    3828    3828    3826    3827    3829    3830    3831    3832    3833    3834
    3835    3836    3837    3827    3829    3830    3831    3829    3830    3831
       0    3830    3831    3832    3833    3834    3831    3832    3833    3834
    3832    3833    3834    3835    3836    3837    3838    3839    3840    3833
    3834    3835    3836    3837    3838    3839    3840    3834    3835    3836
    3837    3835    3836    3837    3836    3837    3838    3839    3840    3837
    3838    3839    3840    3838    3839    3840    3839    3840    3840       0
    3842    3843    3844    3845    3846    3847    3848    3849    3850    3851
    3852    3853    3843    3844    3845    3846    3847    3848    3849    3850
    3851    3854    3855    3856    3844    3845    3846    3847    3848    3851
    3852    3853    3854    3856    3857    3845    3846    3847    3848    3851
    3852    3853    3857    3858    3859    3846    3849    3850    3851    3854
    3855    3860    3861    3862    3863    3847    3848    3849    3850    3851
    3852    3854    3856    3860    3848    3851    3852    3853    3857    3864
    3865    3852    3853    3857    3858    3859    3864    3865    3866    3850
    3851    3854    3855    3856    3860    3861    3862    3863    3867    3868
    3869    3854    3855    3854    3855    3856    3860    3853    3857    3858
    3859    3864    3865    3870    3857    3858    3859    3864    3866    3870
    3855    3856    3860    3861    3862    3863    3860    3861    3862    3863
    3867    3868    3869    3871    3872    3873    3860    3858    3864    3865
    3866    3870    3874    3875    3859    3864    3865    3866    3870    3874
    3875    3864    3866       0    3862    3863    3867    3868    3869    3871
    3872    3873    3876    3877    3878    3863    3867    3868    3869    3867
    3868    3869    3865    3866    3870    3874    3875    3879    3880    3881
    3882    3870    3870    3868    3869    3871    3872    3873    3876    3877
    3878    3883    3884    3885    3869    3871    3872    3873    3871    3872
    3873    3874    3875    3879    3880    3881    3882    3886    3887    3888
    3872    3873    3876    3877    3878    3883    3884    3885    3889    3890
    3891    3873    3876    3877    3878    3876    3877    3878    3875    3879
    3880    3881    3882    3886    3887    3892    3879    3880    3881    3882
    3886    3888    3892    3877    3878    3883    3884    3885    3889    3890
    3891    3893    3894    3895    3878    3883    3884    3885    3883    3884
    3885    3880    3881    3886    3887    3888    3892    3886    3887    3882
    3886    3887    3888    3892    3886    3888    3884    3885    3889    3890
    3891    3893    3894    3895    3896    3897    3898    3885    3889    3890
    3891    3889    3890    3891    3887    3888    3892    3892    3892    3890
    3891    3893    3894    3895    3896    3897    3898    3899    3900    3901
    3891    3893    3894    3895    3893    3894    3895       0    3894    3895
    3896    3897    3898    3895    3896    3897    3898    3896    3897    3898
    3899    3900    3901    3902    3903    3904    3897    3898    3899    3900
    3901    3902    3903    3904    3898    3899    3900    3901    3899    3900
    3901    3900    3901    3902    3903    3904    3901    3902    3903    3904
    3902    3903    3904    3903    3904    3904       0    3906    3907    3908
    3909    3910    3911    3912    3913    3914    3915    3916    3917    3907
    3908    3909    3910    3911    3912    3913    3914    3915    3918    3919
    3920    3908    3909    3910    3911    3912    3915    3916    3917    3918
    3920    3921    3909    3910    3911    3912    3915    3916    3917    3921
    3922    3923    3910    3913    3914    3915    3918    3919    3924    3925
    3926    3927    3911    3912    3913    3914    3915    3916    3918    3920
    3924    3912    3915    3916    3917    3921    3928    3929    3916    3917
    3921    3922    3923    3928    3929    3930    3914    3915    3918    3919
    3920    3924    3925    3926    3927    3931    3932    3933    3918    3919
    3918    3919    3920    3924    3917    3921    3922    3923    3928    3929
    3934    3921    3922    3923    3928    3930    3934    3919    3920    3924
    3925    3926    3927    3924    3925    3926    3927    3931    3932    3933
    3935    3936    3937    3924    3922    3928    3929    3930    3934    3938
    3939    3923    3928    3929    3930    3934    3938    3939    3928    3930
       0    3926    3927    3931    3932    3933    3935    3936    3937    3940
    3941    3942    3927    3931    3932    3933    3931    3932    3933    3929
    3930    3934    3938    3939    3943    3944    3945    3946    3934    3934
    3932    3933    3935    3936    3937    3940    3941    3942    3947    3948
    3949    3933    3935    3936    3937    3935    3936    3937    3938    3939
    3943    3944    3945    3946    3950    3951    3952    3936    3937    3940
    3941    3942    3947    3948    3949    3953    3954    3955    3937    3940
    3941    3942    3940    3941    3942    3939    3943    3944    3945    3946
    3950    3951    3956    3943    3944    3945    3946    3950    3952    3956
    3941    3942    3947    3948    3949    3953    3954    3955    3957    3958
    3959    3942    3947    3948    3949    3947    3948    3949    3944    3945
    3950    3951    3952    3956    3950    3951    3946    3950    3951    3952
    3956    3950    3952    3948    3949    3953    3954    3955    3957    3958
    3959    3960    3961    3962    3949    3953    3954    3955    3953    3954
    3955    3951    3952    3956    3956    3956    3954    3955    3957    3958
    3959    3960    3961    3962    3963    3964    3965    3955    3957    3958
    3959    3957    3958    3959       0    3958    3959    3960    3961    3962
    3959    3960    3961    3962    3960    3961    3962    3963    3964    3965
    3966    3967    3968    3961    3962    3963    3964    3965    3966    3967
    3968    3962    3963    3964    3965    3963    3964    3965    3964    3965
    3966    3967    3968    3965    3966    3967    3968    3966    3967    3968
    3967    3968    3968       0    3970    3971    3972    3973    3974    3975
    3976    3977    3978    3979    3980    3981    3971    3972    3973    3974
    3975    3976    3977    3978    3979    3982    3983    3984    3972    3973
    3974    3975    3976    3979    3980    3981    3982    3984    3985    3973
    3974    3975    3976    3979    3980    3981    3985    3986    3987    3974
    3977    3978    3979    3982    3983    3988    3989    3990    3991    3975
    3976    3977    3978    3979    3980    3982    3984    3988    3976    3979
    3980    3981    3985    3992    3993    3980    3981    3985    3986    3987
    3992    3993    3994    3978    3979    3982    3983    3984    3988    3989
    3990    3991    3995    3996    3997    3982    3983    3982    3983    3984
    3988    3981    3985    3986    3987    3992    3993    3998    3985    3986
    3987    3992    3994    3998    3983    3984    3988    3989    3990    3991
    3988    3989    3990    3991    3995    3996    3997    3999    4000    4001
    3988    3986    3992    3993    3994    3998    4002    4003    3987    3992
    3993    3994    3998    4002    4003    3992    3994       0    3990    3991
    3995    3996    3997    3999    4000    4001    4004    4005    4006    3991
    3995    3996    3997    3995    3996    3997    3993    3994    3998    4002
    4003    4007    4008    4009    4010    3998    3998    3996    3997    3999
    4000    4001    4004    4005    4006    4011    4012    4013    3997    3999
    4000    4001    3999    4000    4001    4002    4003    4007    4008    4009
    4010    4014    4015    4016    4000    4001    4004    4005    4006    4011
    4012    4013    4017    4018    4019    4001    4004    4005    4006    4004
    4005    4006    4003    4007    4008    4009    4010    4014    4015    4020
    4007    4008    4009    4010    4014    4016    4020    4005    4006    4011
    4012    4013    4017    4018    4019    4021    4022    4023    4006    4011
    4012    4013    4011    4012    4013    4008    4009    4014    4015    4016
    4020    4014    4015    4010    4014    4015    4016    4020    4014    4016
    4012    4013    4017    4018    4019    4021    4022    4023    4024    4025
    4026    4013    4017    4018    4019    4017    4018    4019    4015    4016
    4020    4020    4020    4018    4019    4021    4022    4023    4024    4025
    4026    4027    4028    4029    4019    4021    4022    4023    4021    4022
    4023       0    4022    4023    4024    4025    4026    4023    4024    4025
    4026    4024    4025    4026    4027    4028    4029    4030    4031    4032
    4025    4026    4027    4028    4029    4030    4031    4032    4026    4027
    4028    4029    4027    4028    4029    4028    4029    4030    4031    4032
    4029    4030    4031    4032    4030    4031    4032    4031    4032    4032
       0    4034    4035    4036    4037    4038    4039    4040    4041    4042
    4043    4044    4045    4035    4036    4037    4038    4039    4040    4041
    4042    4043    4046    4047    4048    4036    4037    4038    4039    4040
    4043    4044    4045    4046    4048    4049    4037    4038    4039    4040
    4043    4044    4045    4049    4050    4051    4038    4041    4042    4043
    4046    4047    4052    4053    4054    4055    4039    4040    4041    4042
    4043    4044    4046    4048    4052    4040    4043    4044    4045    4049
    4056    4057    4044    4045    4049    4050    4051    4056    4057    4058
    4042    4043    4046    4047    4048    4052    4053    4054    4055    4059
    4060    4061    4046    4047    4046    4047    4048    4052    4045    4049
    4050    4051    4056    4057    4062    4049    4050    4051    4056    4058
    4062    4047    4048    4052    4053    4054    4055    4052    4053    4054
    4055    4059    4060    4061    4063    4064    4065    4052    4050    4056
    4057    4058    4062    4066    4067    4051    4056    4057    4058    4062
    4066    4067    4056    4058       0    4054    4055    4059    4060    4061
    4063    4064    4065    4068    4069    4070    4055    4059    4060    4061
    4059    4060    4061    4057    4058    4062    4066    4067    4071    4072
    4073    4074    4062    4062    4060    4061    4063    4064    4065    4068
    4069    4070    4075    4076    4077    4061    4063    4064    4065    4063
    4064    4065    4066    4067    4071    4072    4073    4074    4078    4079
    4080    4064    4065    4068    4069    4070    4075    4076    4077    4081
    4082    4083    4065    4068    4069    4070    4068    4069    4070    4067
    4071    4072    4073    4074    4078    4079    4084    4071    4072    4073
    4074    4078    4080    4084    4069    4070    4075    4076    4077    4081
    4082    4083    4085    4086    4087    4070    4075    4076    4077    4075
    4076    4077    4072    4073    4078    4079    4080    4084    4078    4079
    4074    4078    4079    4080    4084    4078    4080    4076    4077    4081
    4082    4083    4085    4086    4087    4088    4089    4090    4077    4081
    4082    4083    4081    4082    4083    4079    4080    4084    4084    4084
    4082    4083    4085    4086    4087    4088    4089    4090    4091    4092
    4093    4083    4085    4086    4087    4085    4086    4087       0    4086
    4087    4088    4089    4090    4087    4088    4089    4090    4088    4089
    4090    4091    4092    4093    4094    4095    4096    4089    4090    4091
    4092    4093    4094    4095    4096    4090    4091    4092    4093    4091
    4092    4093    4092    4093    4094    4095    4096    4093    4094    4095
    4096    4094    4095    4096    4095    4096    4096       0    4098    4099
    4100    4101    4102    4103    4104    4105    4106    4107    4108    4109
    4099    4100    4101    4102    4103    4104    4105    4106    4107    4110
    4111    4112    4100    4101    4102    4103    4104    4107    4108    4109
    4110    4112    4113    4101    4102    4103    4104    4107    4108    4109
    4113    4114    4115    4102    4105    4106    4107    4110    4111    4116
    4117    4118    4119    4103    4104    4105    4106    4107    4108    4110
    4112    4116    4104    4107    4108    4109    4113    4120    4121    4108
    4109    4113    4114    4115    4120    4121    4122    4106    4107    4110
    4111    4112    4116    4117    4118    4119    4123    4124    4125    4110
    4111    4110    4111    4112    4116    4109    4113    4114    4115    4120
    4121    4126    4113    4114    4115    4120    4122    4126    4111    4112
    4116    4117    4118    4119    4116    4117    4118    4119    4123    4124
    4125    4127    4128    4129    4116    4114    4120    4121    4122    4126
    4130    4131    4115    4120    4121    4122    4126    4130    4131    4120
    4122       0    4118    4119    4123    4124    4125    4127    4128    4129
    4132    4133    4134    4119    4123    4124    4125    4123    4124    4125
    4121    4122    4126    4130    4131    4135    4136    4137    4138    4126
    4126    4124    4125    4127    4128    4129    4132    4133    4134    4139
    4140    4141    4125    4127    4128    4129    4127    4128    4129    4130
    4131    4135    4136    4137    4138    4142    4143    4144    4128    4129
    4132    4133    4134    4139    4140    4141    4145    4146    4147    4129
    4132    4133    4134    4132    4133    4134    4131    4135    4136    4137
    4138    4142    4143    4148    4135    4136    4137    4138    4142    4144
    4148    4133    4134    4139    4140    4141    4145    4146    4147    4149
    4150    4151    4134    4139    4140    4141    4139    4140    4141    4136
    4137    4142    4143    4144    4148    4142    4143    4138    4142    4143
    4144    4148    4142    4144    4140    4141    4145    4146    4147    4149
    4150    4151    4152    4153    4154    4141    4145    4146    4147    4145
    4146    4147    4143    4144    4148    4148    4148    4146    4147    4149
    4150    4151    4152    4153    4154    4155    4156    4157    4147    4149
    4150    4151    4149    4150    4151       0    4150    4151    4152    4153
    4154    4151    4152    4153    4154    4152    4153    4154    4155    4156
    4157    4158    4159    4160    4153    4154    4155    4156    4157    4158
    4159    4160    4154    4155    4156    4157    4155    4156    4157    4156
    4157    4158    4159    4160    4157    4158    4159    4160    4158    4159
    4160    4159    4160    4160       0    4162    4163    4164    4165    4166
    4167    4168    4169    4170    4171    4172    4173    4163    4164    4165
    4166    4167    4168    4169    4170    4171    4174    4175    4176    4164
    4165    4166    4167    4168    4171    4172    4173    4174    4176    4177
    4165    4166    4167    4168    4171    4172    4173    4177    4178    4179
    4166    4169    4170    4171    4174    4175    4180    4181    4182    4183
    4167    4168    4169    4170    4171    4172    4174    4176    4180    4168
    4171    4172    4173    4177    4184    4185    4172    4173    4177    4178
    4179    4184    4185    4186    4170    4171    4174    4175    4176    4180
    4181    4182    4183    4187    4188    4189    4174    4175    4174    4175
    4176    4180    4173    4177    4178    4179    4184    4185    4190    4177
    4178    4179    4184    4186    4190    4175    4176    4180    4181    4182
    4183    4180    4181    4182    4183    4187    4188    4189    4191    4192
    4193    4180    4178    4184    4185    4186    4190    4194    4195    4179
    4184    4185    4186    4190    4194    4195    4184    4186       0    4182
    4183    4187    4188    4189    4191    4192    4193    4196    4197    4198
    4183    4187    4188    4189    4187    4188    4189    4185    4186    4190
    4194    4195    4199    4200    4201    4202    4190    4190    4188    4189
    4191    4192    4193    4196    4197    4198    4203    4204    4205    4189
    4191    4192    4193    4191    4192    4193    4194    4195    4199    4200
    4201    4202    4206    4207    4208    4192    4193    4196    4197    4198
    4203    4204    4205    4209    4210    4211    4193    4196    4197    4198
    4196    4197    4198    4195    4199    4200    4201    4202    4206    4207
    4212    4199    4200    4201    4202    4206    4208    4212    4197    4198
    4203    4204    4205    4209    4210    4211    4213    4214    4215    4198
    4203    4204    4205    4203    4204    4205    4200    4201    4206    4207
    4208    4212    4206    4207    4202    4206    4207    4208    4212    4206
    4208    4204    4205    4209    4210    4211    4213    4214    4215    4216
    4217    4218    4205    4209    4210    4211    4209    4210    4211    4207
    4208    4212    4212    4212    4210    4211    4213    4214    4215    4216
    4217    4218    4219    4220    4221    4211    4213    4214    4215    4213
    4214    4215       0    4214    4215    4216    4217    4218    4215    4216
    4217    4218    4216    4217    4218    4219    4220    4221    4222    4223
    4224    4217    4218    4219    4220    4221    4222    4223    4224    4218
    4219    4220    4221    4219    4220    4221    4220    4221    4222    4223
    4224    4221    4222    4223    4224    4222    4223    4224    4223    4224
    4224       0    4226    4227    4228    4229    4230    4231    4232    4233
    4234    4235    4236    4237    4227    4228    4229    4230    4231    4232
    4233    4234    4235    4238    4239    4240    4228    4229    4230    4231
    4232    4235    4236    4237    4238    4240    4241    4229    4230    4231
    4232    4235    4236    4237    4241    4242    4243    4230    4233    4234
    4235    4238    4239    4244    4245    4246    4247    4231    4232    4233
    4234    4235    4236    4238    4240    4244    4232    4235    4236    4237
    4241    4248    4249    4236    4237    4241    4242    4243    4248    4249
    4250    4234    4235    4238    4239    4240    4244    4245    4246    4247
    4251    4252    4253    4238    4239    4238    4239    4240    4244    4237
    4241    4242    4243    4248    4249    4254    4241    4242    4243    4248
    4250    4254    4239    4240    4244    4245    4246    4247    4244    4245
    4246    4247    4251    4252    4253    4255    4256    4257    4244    4242
    4248    4249    4250    4254    4258    4259    4243    4248    4249    4250
    4254    4258    4259    4248    4250       0    4246    4247    4251    4252
    4253    4255    4256    4257    4260    4261    4262    4247    4251    4252
    4253    4251    4252    4253    4249    4250    4254    4258    4259    4263
    4264    4265    4266    4254    4254    4252    4253    4255    4256    4257
    4260    4261    4262    4267    4268    4269    4253    4255    4256    4257
    4255    4256    4257    4258    4259    4263    4264    4265    4266    4270
    4271    4272    4256    4257    4260    4261    4262    4267    4268    4269
    4273    4274    4275    4257    4260    4261    4262    4260    4261    4262
    4259    4263    4264    4265    4266    4270    4271    4276    4263    4264
    4265    4266    4270    4272    4276    4261    4262    4267    4268    4269
    4273    4274    4275    4277    4278    4279    4262    4267    4268    4269
    4267    4268    4269    4264    4265    4270    4271    4272    4276    4270
    4271    4266    4270    4271    4272    4276    4270    4272    4268    4269
    4273    4274    4275    4277    4278    4279    4280    4281    4282    4269
    4273    4274    4275    4273    4274    4275    4271    4272    4276    4276
    4276    4274    4275    4277    4278    4279    4280    4281    4282    4283
    4284    4285    4275    4277    4278    4279    4277    4278    4279       0
    4278    4279    4280    4281    4282    4279    4280    4281    4282    4280
    4281    4282    4283    4284    4285    4286    4287    4288    4281    4282
    4283    4284    4285    4286    4287    4288    4282    4283    4284    4285
    4283    4284    4285    4284    4285    4286    4287    4288    4285    4286
    4287    4288    4286    4287    4288    4287    4288    4288       0    4290
    4291    4292    4293    4294    4295    4296    4297    4298    4299    4300
    4301    4291    4292    4293    4294    4295    4296    4297    4298    4299
    4302    4303    4304    4292    4293    4294    4295    4296    4299    4300
    4301    4302    4304    4305    4293    4294    4295    4296    4299    4300
    4301    4305    4306    4307    4294    4297    4298    4299    4302    4303
    4308    4309    4310    4311    4295    4296    4297    4298    4299    4300
    4302    4304    4308    4296    4299    4300    4301    4305    4312    4313
    4300    4301    4305    4306    4307    4312    4313    4314    4298    4299
    4302    4303    4304    4308    4309    4310    4311    4315    4316    4317
    4302    4303    4302    4303    4304    4308    4301    4305    4306    4307
    4312    4313    4318    4305    4306    4307    4312    4314    4318    4303
    4304    4308    4309    4310    4311    4308    4309    4310    4311    4315
    4316    4317    4319    4320    4321    4308    4306    4312    4313    4314
    4318    4322    4323    4307    4312    4313    4314    4318    4322    4323
    4312    4314       0    4310    4311    4315    4316    4317    4319    4320
    4321    4324    4325    4326    4311    4315    4316    4317    4315    4316
    4317    4313    4314    4318    4322    4323    4327    4328    4329    4330
    4318    4318    4316    4317    4319    4320    4321    4324    4325    4326
    4331    4332    4333    4317    4319    4320    4321    4319    4320    4321
    4322    4323    4327    4328    4329    4330    4334    4335    4336    4320
    4321    4324    4325    4326    4331    4332    4333    4337    4338    4339
    4321    4324    4325    4326    4324    4325    4326    4323    4327    4328
    4329    4330    4334    4335    4340    4327    4328    4329    4330    4334
    4336    4340    4325    4326    4331    4332    4333    4337    4338    4339
    4341    4342    4343    4326    4331    4332    4333    4331    4332    4333
    4328    4329    4334    4335    4336    4340    4334    4335    4330    4334
    4335    4336    4340    4334    4336    4332    4333    4337    4338    4339
    4341    4342    4343    4344    4345    4346    4333    4337    4338    4339
    4337    4338    4339    4335    4336    4340    4340    4340    4338    4339
    4341    4342    4343    4344    4345    4346    4347    4348    4349    4339
    4341    4342    4343    4341    4342    4343       0    4342    4343    4344
    4345    4346    4343    4344    4345    4346    4344    4345    4346    4347
    4348    4349    4350    4351    4352    4345    4346    4347    4348    4349
    4350    4351    4352    4346    4347    4348    4349    4347    4348    4349
    4348    4349    4350    4351    4352    4349    4350    4351    4352    4350
    4351    4352    4351    4352    4352       0    4354    4355    4356    4357
    4358    4359    4360    4361    4362    4363    4364    4365    4355    4356
    4357    4358    4359    4360    4361    4362    4363    4366    4367    4368
    4356    4357    4358    4359    4360    4363    4364    4365    4366    4368
    4369    4357    4358    4359    4360    4363    4364    4365    4369    4370
    4371    4358    4361    4362    4363    4366    4367    4372    4373    4374
    4375    4359    4360    4361    4362    4363    4364    4366    4368    4372
    4360    4363    4364    4365    4369    4376    4377    4364    4365    4369
    4370    4371    4376    4377    4378    4362    4363    4366    4367    4368
    4372    4373    4374    4375    4379    4380    4381    4366    4367    4366
    4367    4368    4372    4365    4369    4370    4371    4376    4377    4382
    4369    4370    4371    4376    4378    4382    4367    4368    4372    4373
    4374    4375    4372    4373    4374    4375    4379    4380    4381    4383
    4384    4385    4372    4370    4376    4377    4378    4382    4386    4387
    4371    4376    4377    4378    4382    4386    4387    4376    4378       0
    4374    4375    4379    4380    4381    4383    4384    4385    4388    4389
    4390    4375    4379    4380    4381    4379    4380    4381    4377    4378
    4382    4386    4387    4391    4392    4393    4394    4382    4382    4380
    4381    4383    4384    4385    4388    4389    4390    4395    4396    4397
    4381    4383    4384    4385    4383    4384    4385    4386    4387    4391
    4392    4393    4394    4398    4399    4400    4384    4385    4388    4389
    4390    4395    4396    4397    4401    4402    4403    4385    4388    4389
    4390    4388    4389    4390    4387    4391    4392    4393    4394    4398
    4399    4404    4391    4392    4393    4394    4398    4400    4404    4389
    4390    4395    4396    4397    4401    4402    4403    4405    4406    4407
    4390    4395    4396    4397    4395    4396    4397    4392    4393    4398
    4399    4400    4404    4398    4399    4394    4398    4399    4400    4404
    4398    4400    4396    4397    4401    4402    4403    4405    4406    4407
    4408    4409    4410    4397    4401    4402    4403    4401    4402    4403
    4399    4400    4404    4404    4404    4402    4403    4405    4406    4407
    4408    4409    4410    4411    4412    4413    4403    4405    4406    4407
    4405    4406    4407       0    4406    4407    4408    4409    4410    4407
    4408    4409    4410    4408    4409    4410    4411    4412    4413    4414
    4415    4416    4409    4410    4411    4412    4413    4414    4415    4416
    4410    4411    4412    4413    4411    4412    4413    4412    4413    4414
    4415    4416    4413    4414    4415    4416    4414    4415    4416    4415
    4416    4416       0    4418    4419    4420    4421    4422    4423    4424
    4425    4426    4427    4428    4429    4419    4420    4421    4422    4423
    4424    4425    4426    4427    4430    4431    4432    4420    4421    4422
    4423    4424    4427    4428    4429    4430    4432    4433    4421    4422
    4423    4424    4427    4428    4429    4433    4434    4435    4422    4425
    4426    4427    4430    4431    4436    4437    4438    4439    4423    4424
    4425    4426    4427    4428    4430    4432    4436    4424    4427    4428
    4429    4433    4440    4441    4428    4429    4433    4434    4435    4440
    4441    4442    4426    4427    4430    4431    4432    4436    4437    4438
    4439    4443    4444    4445    4430    4431    4430    4431    4432    4436
    4429    4433    4434    4435    4440    4441    4446    4433    4434    4435
    4440    4442    4446    4431    4432    4436    4437    4438    4439    4436
    4437    4438    4439    4443    4444    4445    4447    4448    4449    4436
    4434    4440    4441    4442    4446    4450    4451    4435    4440    4441
    4442    4446    4450    4451    4440    4442       0    4438    4439    4443
    4444    4445    4447    4448    4449    4452    4453    4454    4439    4443
    4444    4445    4443    4444    4445    4441    4442    4446    4450    4451
    4455    4456    4457    4458    4446    4446    4444    4445    4447    4448
    4449    4452    4453    4454    4459    4460    4461    4445    4447    4448
    4449    4447    4448    4449    4450    4451    4455    4456    4457    4458
    4462    4463    4464    4448    4449    4452    4453    4454    4459    4460
    4461    4465    4466    4467    4449    4452    4453    4454    4452    4453
    4454    4451    4455    4456    4457    4458    4462    4463    4468    4455
    4456    4457    4458    4462    4464    4468    4453    4454    4459    4460
    4461    4465    4466    4467    4469    4470    4471    4454    4459    4460
    4461    4459    4460    4461    4456    4457    4462    4463    4464    4468
    4462    4463    4458    4462    4463    4464    4468    4462    4464    4460
    4461    4465    4466    4467    4469    4470    4471    4472    4473    4474
    4461    4465    4466    4467    4465    4466    4467    4463    4464    4468
    4468    4468    4466    4467    4469    4470    4471    4472    4473    4474
    4475    4476    4477    4467    4469    4470    4471    4469    4470    4471
       0    4470    4471    4472    4473    4474    4471    4472    4473    4474
    4472    4473    4474    4475    4476    4477    4478    4479    4480    4473
    4474    4475    4476    4477    4478    4479    4480    4474    4475    4476
    4477    4475    4476    4477    4476    4477    4478    4479    4480    4477
    4478    4479    4480    4478    4479    4480    4479    4480    4480       0
    4482    4483    4484    4485    4486    4487    4488    4489    4490    4491
    4492    4493    4483    4484    4485    4486    4487    4488    4489    4490
    4491    4494    4495    4496    4484    4485    4486    4487    4488    4491
    4492    4493    4494    4496    4497    4485    4486    4487    4488    4491
    4492    4493    4497    4498    4499    4486    4489    4490    4491    4494
    4495    4500    4501    4502    4503    4487    4488    4489    4490    4491
    4492    4494    4496    4500    4488    4491    4492    4493    4497    4504
    4505    4492    4493    4497    4498    4499    4504    4505    4506    4490
    4491    4494    4495    4496    4500    4501    4502    4503    4507    4508
    4509    4494    4495    4494    4495    4496    4500    4493    4497    4498
    4499    4504    4505    4510    4497    4498    4499    4504    4506    4510
    4495    4496    4500    4501    4502    4503    4500    4501    4502    4503
    4507    4508    4509    4511    4512    4513    4500    4498    4504    4505
    4506    4510    4514    4515    4499    4504    4505    4506    4510    4514
    4515    4504    4506       0    4502    4503    4507    4508    4509    4511
    4512    4513    4516    4517    4518    4503    4507    4508    4509    4507
    4508    4509    4505    4506    4510    4514    4515    4519    4520    4521
    4522    4510    4510    4508    4509    4511    4512    4513    4516    4517
    4518    4523    4524    4525    4509    4511    4512    4513    4511    4512
    4513    4514    4515    4519    4520    4521    4522    4526    4527    4528
    4512    4513    4516    4517    4518    4523    4524    4525    4529    4530
    4531    4513    4516    4517    4518    4516    4517    4518    4515    4519
    4520    4521    4522    4526    4527    4532    4519    4520    4521    4522
    4526    4528    4532    4517    4518    4523    4524    4525    4529    4530
    4531    4533    4534    4535    4518    4523    4524    4525    4523    4524
    4525    4520    4521    4526    4527    4528    4532    4526    4527    4522
    4526    4527    4528    4532    4526    4528    4524    4525    4529    4530
    4531    4533    4534    4535    4536    4537    4538    4525    4529    4530
    4531    4529    4530    4531    4527    4528    4532    4532    4532    4530
    4531    4533    4534    4535    4536    4537    4538    4539    4540    4541
    4531    4533    4534    4535    4533    4534    4535       0    4534    4535
    4536    4537    4538    4535    4536    4537    4538    4536    4537    4538
    4539    4540    4541    4542    4543    4544    4537    4538    4539    4540
    4541    4542    4543    4544    4538    4539    4540    4541    4539    4540
    4541    4540    4541    4542    4543    4544    4541    4542    4543    4544
    4542    4543    4544    4543    4544    4544       0    4546    4547    4548
    4549    4550    4551    4552    4553    4554    4555    4556    4557    4547
    4548    4549    4550    4551    4552    4553    4554    4555    4558    4559
    4560    4548    4549    4550    4551    4552    4555    4556    4557    4558
    4560    4561    4549    4550    4551    4552    4555    4556    4557    4561
    4562    4563    4550    4553    4554    4555    4558    4559    4564    4565
    4566    4567    4551    4552    4553    4554    4555    4556    4558    4560
    4564    4552    4555    4556    4557    4561    4568    4569    4556    4557
    4561    4562    4563    4568    4569    4570    4554    4555    4558    4559
    4560    4564    4565    4566    4567    4571    4572    4573    4558    4559
    4558    4559    4560    4564    4557    4561    4562    4563    4568    4569
    4574    4561    4562    4563    4568    4570    4574    4559    4560    4564
    4565    4566    4567    4564    4565    4566    4567    4571    4572    4573
    4575    4576    4577    4564    4562    4568    4569    4570    4574    4578
    4579    4563    4568    4569    4570    4574    4578    4579    4568    4570
       0    4566    4567    4571    4572    4573    4575    4576    4577    4580
    4581    4582    4567    4571    4572    4573    4571    4572    4573    4569
    4570    4574    4578    4579    4583    4584    4585    4586    4574    4574
    4572    4573    4575    4576    4577    4580    4581    4582    4587    4588
    4589    4573    4575    4576    4577    4575    4576    4577    4578    4579
    4583    4584    4585    4586    4590    4591    4592    4576    4577    4580
    4581    4582    4587    4588    4589    4593    4594    4595    4577    4580
    4581    4582    4580    4581    4582    4579    4583    4584    4585    4586
    4590    4591    4596    4583    4584    4585    4586    4590    4592    4596
    4581    4582    4587    4588    4589    4593    4594    4595    4597    4598
    4599    4582    4587    4588    4589    4587    4588    4589    4584    4585
    4590    4591    4592    4596    4590    4591    4586    4590    4591    4592
    4596    4590    4592    4588    4589    4593    4594    4595    4597    4598
    4599    4600    4601    4602    4589    4593    4594    4595    4593    4594
    4595    4591    4592    4596    4596    4596    4594    4595    4597    4598
    4599    4600    4601    4602    4603    4604    4605    4595    4597    4598
    4599    4597    4598    4599       0    4598    4599    4600    4601    4602
    4599    4600    4601    4602    4600    4601    4602    4603    4604    4605
    4606    4607    4608    4601    4602    4603    4604    4605    4606    4607
    4608    4602    4603    4604    4605    4603    4604    4605    4604    4605
    4606    4607    4608    4605    4606    4607    4608    4606    4607    4608
    4607    4608    4608       0    4610    4611    4612    4613    4614    4615
    4616    4617    4618    4619    4620    4621    4611    4612    4613    4614
    4615    4616    4617    4618    4619    4622    4623    4624    4612    4613
    4614    4615    4616    4619    4620    4621    4622    4624    4625    4613
    4614    4615    4616    4619    4620    4621    4625    4626    4627    4614
    4617    4618    4619    4622    4623    4628    4629    4630    4631    4615
    4616    4617    4618    4619    4620    4622    4624    4628    4616    4619
    4620    4621    4625    4632    4633    4620    4621    4625    4626    4627
    4632    4633    4634    4618    4619    4622    4623    4624    4628    4629
    4630    4631    4635    4636    4637    4622    4623    4622    4623    4624
    4628    4621    4625    4626    4627    4632    4633    4638    4625    4626
    4627    4632    4634    4638    4623    4624    4628    4629    4630    4631
    4628    4629    4630    4631    4635    4636    4637    4639    4640    4641
    4628    4626    4632    4633    4634    4638    4642    4643    4627    4632
    4633    4634    4638    4642    4643    4632    4634       0    4630    4631
    4635    4636    4637    4639    4640    4641    4644    4645    4646    4631
    4635    4636    4637    4635    4636    4637    4633    4634    4638    4642
    4643    4647    4648    4649    4650    4638    4638    4636    4637    4639
    4640    4641    4644    4645    4646    4651    4652    4653    4637    4639
    4640    4641    4639    4640    4641    4642    4643    4647    4648    4649
    4650    4654    4655    4656    4640    4641    4644    4645    4646    4651
    4652    4653    4657    4658    4659    4641    4644    4645    4646    4644
    4645    4646    4643    4647    4648    4649    4650    4654    4655    4660
    4647    4648    4649    4650    4654    4656    4660    4645    4646    4651
    4652    4653    4657    4658    4659    4661    4662    4663    4646    4651
    4652    4653    4651    4652    4653    4648    4649    4654    4655    4656
    4660    4654    4655    4650    4654    4655    4656    4660    4654    4656
    4652    4653    4657    4658    4659    4661    4662    4663    4664    4665
    4666    4653    4657    4658    4659    4657    4658    4659    4655    4656
    4660    4660    4660    4658    4659    4661    4662    4663    4664    4665
    4666    4667    4668    4669    4659    4661    4662    4663    4661    4662
    4663       0    4662    4663    4664    4665    4666    4663    4664    4665
    4666    4664    4665    4666    4667    4668    4669    4670    4671    4672
    4665    4666    4667    4668    4669    4670    4671    4672    4666    4667
    4668    4669    4667    4668    4669    4668    4669    4670    4671    4672
    4669    4670    4671    4672    4670    4671    4672    4671    4672    4672
       0    4674    4675    4676    4677    4678    4679    4680    4681    4682
    4683    4684    4685    4675    4676    4677    4678    4679    4680    4681
    4682    4683    4686    4687    4688    4676    4677    4678    4679    4680
    4683    4684    4685    4686    4688    4689    4677    4678    4679    4680
    4683    4684    4685    4689    4690    4691    4678    4681    4682    4683
    4686    4687    4692    4693    4694    4695    4679    4680    4681    4682
    4683    4684    4686    4688    4692    4680    4683    4684    4685    4689
    4696    4697    4684    4685    4689    4690    4691    4696    4697    4698
    4682    4683    4686    4687    4688    4692    4693    4694    4695    4699
    4700    4701    4686    4687    4686    4687    4688    4692    4685    4689
    4690    4691    4696    4697    4702    4689    4690    4691    4696    4698
    4702    4687    4688    4692    4693    4694    4695    4692    4693    4694
    4695    4699    4700    4701    4703    4704    4705    4692    4690    4696
    4697    4698    4702    4706    4707    4691    4696    4697    4698    4702
    4706    4707    4696    4698       0    4694    4695    4699    4700    4701
    4703    4704    4705    4708    4709    4710    4695    4699    4700    4701
    4699    4700    4701    4697    4698    4702    4706    4707    4711    4712
    4713    4714    4702    4702    4700    4701    4703    4704    4705    4708
    4709    4710    4715    4716    4717    4701    4703    4704    4705    4703
    4704    4705    4706    4707    4711    4712    4713    4714    4718    4719
    4720    4704    4705    4708    4709    4710    4715    4716    4717    4721
    4722    4723    4705    4708    4709    4710    4708    4709    4710    4707
    4711    4712    4713    4714    4718    4719    4724    4711    4712    4713
    4714    4718    4720    4724    4709    4710    4715    4716    4717    4721
    4722    4723    4725    4726    4727    4710    4715    4716    4717    4715
    4716    4717    4712    4713    4718    4719    4720    4724    4718    4719
    4714    4718    4719    4720    4724    4718    4720    4716    4717    4721
    4722    4723    4725    4726    4727    4728    4729    4730    4717    4721
    4722    4723    4721    4722    4723    4719    4720    4724    4724    4724
    4722    4723    4725    4726    4727    4728    4729    4730    4731    4732
    4733    4723    4725    4726    4727    4725    4726    4727       0    4726
    4727    4728    4729    4730    4727    4728    4729    4730    4728    4729
    4730    4731    4732    4733    4734    4735    4736    4729    4730    4731
    4732    4733    4734    4735    4736    4730    4731    4732    4733    4731
    4732    4733    4732    4733    4734    4735    4736    4733    4734    4735
    4736    4734    4735    4736    4735    4736    4736       0    4738    4739
    4740    4741    4742    4743    4744    4745    4746    4747    4748    4749
    4739    4740    4741    4742    4743    4744    4745    4746    4747    4750
    4751    4752    4740    4741    4742    4743    4744    4747    4748    4749
    4750    4752    4753    4741    4742    4743    4744    4747    4748    4749
    4753    4754    4755    4742    4745    4746    4747    4750    4751    4756
    4757    4758    4759    4743    4744    4745    4746    4747    4748    4750
    4752    4756    4744    4747    4748    4749    4753    4760    4761    4748
    4749    4753    4754    4755    4760    4761    4762    4746    4747    4750
    4751    4752    4756    4757    4758    4759    4763    4764    4765    4750
    4751    4750    4751    4752    4756    4749    4753    4754    4755    4760
    4761    4766    4753    4754    4755    4760    4762    4766    4751    4752
    4756    4757    4758    4759    4756    4757    4758    4759    4763    4764
    4765    4767    4768    4769    4756    4754    4760    4761    4762    4766
    4770    4771    4755    4760    4761    4762    4766    4770    4771    4760
    4762       0    4758    4759    4763    4764    4765    4767    4768    4769
    4772    4773    4774    4759    4763    4764    4765    4763    4764    4765
    4761    4762    4766    4770    4771    4775    4776    4777    4778    4766
    4766    4764    4765    4767    4768    4769    4772    4773    4774    4779
    4780    4781    4765    4767    4768    4769    4767    4768    4769    4770
    4771    4775    4776    4777    4778    4782    4783    4784    4768    4769
    4772    4773    4774    4779    4780    4781    4785    4786    4787    4769
    4772    4773    4774    4772    4773    4774    4771    4775    4776    4777
    4778    4782    4783    4788    4775    4776    4777    4778    4782    4784
    4788    4773    4774    4779    4780    4781    4785    4786    4787    4789
    4790    4791    4774    4779    4780    4781    4779    4780    4781    4776
    4777    4782    4783    4784    4788    4782    4783    4778    4782    4783
    4784    4788    4782    4784    4780    4781    4785    4786    4787    4789
    4790    4791    4792    4793    4794    4781    4785    4786    4787    4785
    4786    4787    4783    4784    4788    4788    4788    4786    4787    4789
    4790    4791    4792    4793    4794    4795    4796    4797    4787    4789
    4790    4791    4789    4790    4791       0    4790    4791    4792    4793
    4794    4791    4792    4793    4794    4792    4793    4794    4795    4796
    4797    4798    4799    4800    4793    4794    4795    4796    4797    4798
    4799    4800    4794    4795    4796    4797    4795    4796    4797    4796
    4797    4798    4799    4800    4797    4798    4799    4800    4798    4799
    4800    4799    4800    4800       0    4802    4803    4804    4805    4806
    4807    4808    4809    4810    4811    4812    4813    4803    4804    4805
    4806    4807    4808    4809    4810    4811    4814    4815    4816    4804
    4805    4806    4807    4808    4811    4812    4813    4814    4816    4817
    4805    4806    4807    4808    4811    4812    4813    4817    4818    4819
    4806    4809    4810    4811    4814    4815    4820    4821    4822    4823
    4807    4808    4809    4810    4811    4812    4814    4816    4820    4808
    4811    4812    4813    4817    4824    4825    4812    4813    4817    4818
    4819    4824    4825    4826    4810    4811    4814    4815    4816    4820
    4821    4822    4823    4827    4828    4829    4814    4815    4814    4815
    4816    4820    4813    4817    4818    4819    4824    4825    4830    4817
    4818    4819    4824    4826    4830    4815    4816    4820    4821    4822
    4823    4820    4821    4822    4823    4827    4828    4829    4831    4832
    4833    4820    4818    4824    4825    4826    4830    4834    4835    4819
    4824    4825    4826    4830    4834    4835    4824    4826       0    4822
    4823    4827    4828    4829    4831    4832    4833    4836    4837    4838
    4823    4827    4828    4829    4827    4828    4829    4825    4826    4830
    4834    4835    4839    4840    4841    4842    4830    4830    4828    4829
    4831    4832    4833    4836    4837    4838    4843    4844    4845    4829
    4831    4832    4833    4831    4832    4833    4834    4835    4839    4840
    4841    4842    4846    4847    4848    4832    4833    4836    4837    4838
    4843    4844    4845    4849    4850    4851    4833    4836    4837    4838
    4836    4837    4838    4835    4839    4840    4841    4842    4846    4847
    4852    4839    4840    4841    4842    4846    4848    4852    4837    4838
    4843    4844    4845    4849    4850    4851    4853    4854    4855    4838
    4843    4844    4845    4843    4844    4845    4840    4841    4846    4847
    4848    4852    4846    4847    4842    4846    4847    4848    4852    4846
    4848    4844    4845    4849    4850    4851    4853    4854    4855    4856
    4857    4858    4845    4849    4850    4851    4849    4850    4851    4847
    4848    4852    4852    4852    4850    4851    4853    4854    4855    4856
    4857    4858    4859    4860    4861    4851    4853    4854    4855    4853
    4854    4855       0    4854    4855    4856    4857    4858    4855    4856
    4857    4858    4856    4857    4858    4859    4860    4861    4862    4863
    4864    4857    4858    4859    4860    4861    4862    4863    4864    4858
    4859    4860    4861    4859    4860    4861    4860    4861    4862    4863
    4864    4861    4862    4863    4864    4862    4863    4864    4863    4864
    4864       0    4866    4867    4868    4869    4870    4871    4872    4873
    4874    4875    4876    4877    4867    4868    4869    4870    4871    4872
    4873    4874    4875    4878    4879    4880    4868    4869    4870    4871
    4872    4875    4876    4877    4878    4880    4881    4869    4870    4871
    4872    4875    4876    4877    4881    4882    4883    4870    4873    4874
    4875    4878    4879    4884    4885    4886    4887    4871    4872    4873
    4874    4875    4876    4878    4880    4884    4872    4875    4876    4877
    4881    4888    4889    4876    4877    4881    4882    4883    4888    4889
    4890    4874    4875    4878    4879    4880    4884    4885    4886    4887
    4891    4892    4893    4878    4879    4878    4879    4880    4884    4877
    4881    4882    4883    4888    4889    4894    4881    4882    4883    4888
    4890    4894    4879    4880    4884    4885    4886    4887    4884    4885
    4886    4887    4891    4892    4893    4895    4896    4897    4884    4882
    4888    4889    4890    4894    4898    4899    4883    4888    4889    4890
    4894    4898    4899    4888    4890       0    4886    4887    4891    4892
    4893    4895    4896    4897    4900    4901    4902    4887    4891    4892
    4893    4891    4892    4893    4889    4890    4894    4898    4899    4903
    4904    4905    4906    4894    4894    4892    4893    4895    4896    4897
    4900    4901    4902    4907    4908    4909    4893    4895    4896    4897
    4895    4896    4897    4898    4899    4903    4904    4905    4906    4910
    4911    4912    4896    4897    4900    4901    4902    4907    4908    4909
    4913    4914    4915    4897    4900    4901    4902    4900    4901    4902
    4899    4903    4904    4905    4906    4910    4911    4916    4903    4904
    4905    4906    4910    4912    4916    4901    4902    4907    4908    4909
    4913    4914    4915    4917    4918    4919    4902    4907    4908    4909
    4907    4908    4909    4904    4905    4910    4911    4912    4916    4910
    4911    4906    4910    4911    4912    4916    4910    4912    4908    4909
    4913    4914    4915    4917    4918    4919    4920    4921    4922    4909
    4913    4914    4915    4913    4914    4915    4911    4912    4916    4916
    4916    4914    4915    4917    4918    4919    4920    4921    4922    4923
    4924    4925    4915    4917    4918    4919    4917    4918    4919       0
    4918    4919    4920    4921    4922    4919    4920    4921    4922    4920
    4921    4922    4923    4924    4925    4926    4927    4928    4921    4922
    4923    4924    4925    4926    4927    4928    4922    4923    4924    4925
    4923    4924    4925    4924    4925    4926    4927    4928    4925    4926
    4927    4928    4926    4927    4928    4927    4928    4928       0    4930
    4931    4932    4933    4934    4935    4936    4937    4938    4939    4940
    4941    4931    4932    4933    4934    4935    4936    4937    4938    4939
    4942    4943    4944    4932    4933    4934    4935    4936    4939    4940
    4941    4942    4944    4945    4933    4934    4935    4936    4939    4940
    4941    4945    4946    4947    4934    4937    4938    4939    4942    4943
    4948    4949    4950    4951    4935    4936    4937    4938    4939    4940
    4942    4944    4948    4936    4939    4940    4941    4945    4952    4953
    4940    4941    4945    4946    4947    4952    4953    4954    4938    4939
    4942    4943    4944    4948    4949    4950    4951    4955    4956    4957
    4942    4943    4942    4943    4944    4948    4941    4945    4946    4947
    4952    4953    4958    4945    4946    4947    4952    4954    4958    4943
    4944    4948    4949    4950    4951    4948    4949    4950    4951    4955
    4956    4957    4959    4960    4961    4948    4946    4952    4953    4954
    4958    4962    4963    4947    4952    4953    4954    4958    4962    4963
    4952    4954       0    4950    4951    4955    4956    4957    4959    4960
    4961    4964    4965    4966    4951    4955    4956    4957    4955    4956
    4957    4953    4954    4958    4962    4963    4967    4968    4969    4970
    4958    4958    4956    4957    4959    4960    4961    4964    4965    4966
    4971    4972    4973    4957    4959    4960    4961    4959    4960    4961
    4962    4963    4967    4968    4969    4970    4974    4975    4976    4960
    4961    4964    4965    4966    4971    4972    4973    4977    4978    4979
    4961    4964    4965    4966    4964    4965    4966    4963    4967    4968
    4969    4970    4974    4975    4980    4967    4968    4969    4970    4974
    4976    4980    4965    4966    4971    4972    4973    4977    4978    4979
    4981    4982    4983    4966    4971    4972    4973    4971    4972    4973
    4968    4969    4974    4975    4976    4980    4974    4975    4970    4974
    4975    4976    4980    4974    4976    4972    4973    4977    4978    4979
    4981    4982    4983    4984    4985    4986    4973    4977    4978    4979
    4977    4978    4979    4975    4976    4980    4980    4980    4978    4979
    4981    4982    4983    4984    4985    4986    4987    4988    4989    4979
    4981    4982    4983    4981    4982    4983       0    4982    4983    4984
    4985    4986    4983    4984    4985    4986    4984    4985    4986    4987
    4988    4989    4990    4991    4992    4985    4986    4987    4988    4989
    4990    4991    4992    4986    4987    4988    4989    4987    4988    4989
    4988    4989    4990    4991    4992    4989    4990    4991    4992    4990
    4991    4992    4991    4992    4992       0    4994    4995    4996    4997
    4998    4999    5000    5001    5002    5003    5004    5005    4995    4996
    4997    4998    4999    5000    5001    5002    5003    5006    5007    5008
    4996    4997    4998    4999    5000    5003    5004    5005    5006    5008
    5009    4997    4998    4999    5000    5003    5004    5005    5009    5010
    5011    4998    5001    5002    5003    5006    5007    5012    5013    5014
    5015    4999    5000    5001    5002    5003    5004    5006    5008    5012
    5000    5003    5004    5005    5009    5016    5017    5004    5005    5009
    5010    5011    5016    5017    5018    5002    5003    5006    5007    5008
    5012    5013    5014    5015    5019    5020    5021    5006    5007    5006
    5007    5008    5012    5005    5009    5010    5011    5016    5017    5022
    5009    5010    5011    5016    5018    5022    5007    5008    5012    5013
    5014    5015    5012    5013    5014    5015    5019    5020    5021    5023
    5024    5025    5012    5010    5016    5017    5018    5022    5026    5027
    5011    5016    5017    5018    5022    5026    5027    5016    5018       0
    5014    5015    5019    5020    5021    5023    5024    5025    5028    5029
    5030    5015    5019    5020    5021    5019    5020    5021    5017    5018
    5022    5026    5027    5031    5032    5033    5034    5022    5022    5020
    5021    5023    5024    5025    5028    5029    5030    5035    5036    5037
    5021    5023    5024    5025    5023    5024    5025    5026    5027    5031
    5032    5033    5034    5038    5039    5040    5024    5025    5028    5029
    5030    5035    5036    5037    5041    5042    5043    5025    5028    5029
    5030    5028    5029    5030    5027    5031    5032    5033    5034    5038
    5039    5044    5031    5032    5033    5034    5038    5040    5044    5029
    5030    5035    5036    5037    5041    5042    5043    5045    5046    5047
    5030    5035    5036    5037    5035    5036    5037    5032    5033    5038
    5039    5040    5044    5038    5039    5034    5038    5039    5040    5044
    5038    5040    5036    5037    5041    5042    5043    5045    5046    5047
    5048    5049    5050    5037    5041    5042    5043    5041    5042    5043
    5039    5040    5044    5044    5044    5042    5043    5045    5046    5047
    5048    5049    5050    5051    5052    5053    5043    5045    5046    5047
    5045    5046    5047       0    5046    5047    5048    5049    5050    5047
    5048    5049    5050    5048    5049    5050    5051    5052    5053    5054
    5055    5056    5049    5050    5051    5052    5053    5054    5055    5056
    5050    5051    5052    5053    5051    5052    5053    5052    5053    5054
    5055    5056    5053    5054    5055    5056    5054    5055    5056    5055
    5056    5056       0    5058    5059    5060    5061    5062    5063    5064
    5065    5066    5067    5068    5069    5059    5060    5061    5062    5063
    5064    5065    5066    5067    5070    5071    5072    5060    5061    5062
    5063    5064    5067    5068    5069    5070    5072    5073    5061    5062
    5063    5064    5067    5068    5069    5073    5074    5075    5062    5065
    5066    5067    5070    5071    5076    5077    5078    5079    5063    5064
    5065    5066    5067    5068    5070    5072    5076    5064    5067    5068
    5069    5073    5080    5081    5068    5069    5073    5074    5075    5080
    5081    5082    5066    5067    5070    5071    5072    5076    5077    5078
    5079    5083    5084    5085    5070    5071    5070    5071    5072    5076
    5069    5073    5074    5075    5080    5081    5086    5073    5074    5075
    5080    5082    5086    5071    5072    5076    5077    5078    5079    5076
    5077    5078    5079    5083    5084    5085    5087    5088    5089    5076
    5074    5080    5081    5082    5086    5090    5091    5075    5080    5081
    5082    5086    5090    5091    5080    5082       0    5078    5079    5083
    5084    5085    5087    5088    5089    5092    5093    5094    5079    5083
    5084    5085    5083    5084    5085    5081    5082    5086    5090    5091
    5095    5096    5097    5098    5086    5086    5084    5085    5087    5088
    5089    5092    5093    5094    5099    5100    5101    5085    5087    5088
    5089    5087    5088    5089    5090    5091    5095    5096    5097    5098
    5102    5103    5104    5088    5089    5092    5093    5094    5099    5100
    5101    5105    5106    5107    5089    5092    5093    5094    5092    5093
    5094    5091    5095    5096    5097    5098    5102    5103    5108    5095
    5096    5097    5098    5102    5104    5108    5093    5094    5099    5100
    5101    5105    5106    5107    5109    5110    5111    5094    5099    5100
    5101    5099    5100    5101    5096    5097    5102    5103    5104    5108
    5102    5103    5098    5102    5103    5104    5108    5102    5104    5100
    5101    5105    5106    5107    5109    5110    5111    5112    5113    5114
    5101    5105    5106    5107    5105    5106    5107    5103    5104    5108
    5108    5108    5106    5107    5109    5110    5111    5112    5113    5114
    5115    5116    5117    5107    5109    5110    5111    5109    5110    5111
       0    5110    5111    5112    5113    5114    5111    5112    5113    5114
    5112    5113    5114    5115    5116    5117    5118    5119    5120    5113
    5114    5115    5116    5117    5118    5119    5120    5114    5115    5116
    5117    5115    5116    5117    5116    5117    5118    5119    5120    5117
    5118    5119    5120    5118    5119    5120    5119    5120    5120       0
    5122    5123    5124    5125    5126    5127    5128    5129    5130    5131
    5132    5133    5123    5124    5125    5126    5127    5128    5129    5130
    5131    5134    5135    5136    5124    5125    5126    5127    5128    5131
    5132    5133    5134    5136    5137    5125    5126    5127    5128    5131
    5132    5133    5137    5138    5139    5126    5129    5130    5131    5134
    5135    5140    5141    5142    5143    5127    5128    5129    5130    5131
    5132    5134    5136    5140    5128    5131    5132    5133    5137    5144
    5145    5132    5133    5137    5138    5139    5144    5145    5146    5130
    5131    5134    5135    5136    5140    5141    5142    5143    5147    5148
    5149    5134    5135    5134    5135    5136    5140    5133    5137    5138
    5139    5144    5145    5150    5137    5138    5139    5144    5146    5150
    5135    5136    5140    5141    5142    5143    5140    5141    5142    5143
    5147    5148    5149    5151    5152    5153    5140    5138    5144    5145
    5146    5150    5154    5155    5139    5144    5145    5146    5150    5154
    5155    5144    5146       0    5142    5143    5147    5148    5149    5151
    5152    5153    5156    5157    5158    5143    5147    5148    5149    5147
    5148    5149    5145    5146    5150    5154    5155    5159    5160    5161
    5162    5150    5150    5148    5149    5151    5152    5153    5156    5157
    5158    5163    5164    5165    5149    5151    5152    5153    5151    5152
    5153    5154    5155    5159    5160    5161    5162    5166    5167    5168
    5152    5153    5156    5157    5158    5163    5164    5165    5169    5170
    5171    5153    5156    5157    5158    5156    5157    5158    5155    5159
    5160    5161    5162    5166    5167    5172    5159    5160    5161    5162
    5166    5168    5172    5157    5158    5163    5164    5165    5169    5170
    5171    5173    5174    5175    5158    5163    5164    5165    5163    5164
    5165    5160    5161    5166    5167    5168    5172    5166    5167    5162
    5166    5167    5168    5172    5166    5168    5164    5165    5169    5170
    5171    5173    5174    5175    5176    5177    5178    5165    5169    5170
    5171    5169    5170    5171    5167    5168    5172    5172    5172    5170
    5171    5173    5174    5175    5176    5177    5178    5179    5180    5181
    5171    5173    5174    5175    5173    5174    5175       0    5174    5175
    5176    5177    5178    5175    5176    5177    5178    5176    5177    5178
    5179    5180    5181    5182    5183    5184    5177    5178    5179    5180
    5181    5182    5183    5184    5178    5179    5180    5181    5179    5180
    5181    5180    5181    5182    5183    5184    5181    5182    5183    5184
    5182    5183    5184    5183    5184    5184       0    5186    5187    5188
    5189    5190    5191    5192    5193    5194    5195    5196    5197    5187
    5188    5189    5190    5191    5192    5193    5194    5195    5198    5199
    5200    5188    5189    5190    5191    5192    5195    5196    5197    5198
    5200    5201    5189    5190    5191    5192    5195    5196    5197    5201
    5202    5203    5190    5193    5194    5195    5198    5199    5204    5205
    5206    5207    5191    5192    5193    5194    5195    5196    5198    5200
    5204    5192    5195    5196    5197    5201    5208    5209    5196    5197
    5201    5202    5203    5208    5209    5210    5194    5195    5198    5199
    5200    5204    5205    5206    5207    5211    5212    5213    5198    5199
    5198    5199    5200    5204    5197    5201    5202    5203    5208    5209
    5214    5201    5202    5203    5208    5210    5214    5199    5200    5204
    5205    5206    5207    5204    5205    5206    5207    5211    5212    5213
    5215    5216    5217    5204    5202    5208    5209    5210    5214    5218
    5219    5203    5208    5209    5210    5214    5218    5219    5208    5210
       0    5206    5207    5211    5212    5213    5215    5216    5217    5220
    5221    5222    5207    5211    5212    5213    5211    5212    5213    5209
    5210    5214    5218    5219    5223    5224    5225    5226    5214    5214
    5212    5213    5215    5216    5217    5220    5221    5222    5227    5228
    5229    5213    5215    5216    5217    5215    5216    5217    5218    5219
    5223    5224    5225    5226    5230    5231    5232    5216    5217    5220
    5221    5222    5227    5228    5229    5233    5234    5235    5217    5220
    5221    5222    5220    5221    5222    5219    5223    5224    5225    5226
    5230    5231    5236    5223    5224    5225    5226    5230    5232    5236
    5221    5222    5227    5228    5229    5233    5234    5235    5237    5238
    5239    5222    5227    5228    5229    5227    5228    5229    5224    5225
    5230    5231    5232    5236    5230    5231    5226    5230    5231    5232
    5236    5230    5232    5228    5229    5233    5234    5235    5237    5238
    5239    5240    5241    5242    5229    5233    5234    5235    5233    5234
    5235    5231    5232    5236    5236    5236    5234    5235    5237    5238
    5239    5240    5241    5242    5243    5244    5245    5235    5237    5238
    5239    5237    5238    5239       0    5238    5239    5240    5241    5242
    5239    5240    5241    5242    5240    5241    5242    5243    5244    5245
    5246    5247    5248    5241    5242    5243    5244    5245    5246    5247
    5248    5242    5243    5244    5245    5243    5244    5245    5244    5245
    5246    5247    5248    5245    5246    5247    5248    5246    5247    5248
    5247    5248    5248       0    5250    5251    5252    5253    5254    5255
    5256    5257    5258    5259    5260    5261    5251    5252    5253    5254
    5255    5256    5257    5258    5259    5262    5263    5264    5252    5253
    5254    5255    5256    5259    5260    5261    5262    5264    5265    5253
    5254    5255    5256    5259    5260    5261    5265    5266    5267    5254
    5257    5258    5259    5262    5263    5268    5269    5270    5271    5255
    5256    5257    5258    5259    5260    5262    5264    5268    5256    5259
    5260    5261    5265    5272    5273    5260    5261    5265    5266    5267
    5272    5273    5274    5258    5259    5262    5263    5264    5268    5269
    5270    5271    5275    5276    5277    5262    5263    5262    5263    5264
    5268    5261    5265    5266    5267    5272    5273    5278    5265    5266
    5267    5272    5274    5278    5263    5264    5268    5269    5270    5271
    5268    5269    5270    5271    5275    5276    5277    5279    5280    5281
    5268    5266    5272    5273    5274    5278    5282    5283    5267    5272
    5273    5274    5278    5282    5283    5272    5274       0    5270    5271
    5275    5276    5277    5279    5280    5281    5284    5285    5286    5271
    5275    5276    5277    5275    5276    5277    5273    5274    5278    5282
    5283    5287    5288    5289    5290    5278    5278    5276    5277    5279
    5280    5281    5284    5285    5286    5291    5292    5293    5277    5279
    5280    5281    5279    5280    5281    5282    5283    5287    5288    5289
    5290    5294    5295    5296    5280    5281    5284    5285    5286    5291
    5292    5293    5297    5298    5299    5281    5284    5285    5286    5284
    5285    5286    5283    5287    5288    5289    5290    5294    5295    5300
    5287    5288    5289    5290    5294    5296    5300    5285    5286    5291
    5292    5293    5297    5298    5299    5301    5302    5303    5286    5291
    5292    5293    5291    5292    5293    5288    5289    5294    5295    5296
    5300    5294    5295    5290    5294    5295    5296    5300    5294    5296
    5292    5293    5297    5298    5299    5301    5302    5303    5304    5305
    5306    5293    5297    5298    5299    5297    5298    5299    5295    5296
    5300    5300    5300    5298    5299    5301    5302    5303    5304    5305
    5306    5307    5308    5309    5299    5301    5302    5303    5301    5302
    5303       0    5302    5303    5304    5305    5306    5303    5304    5305
    5306    5304    5305    5306    5307    5308    5309    5310    5311    5312
    5305    5306    5307    5308    5309    5310    5311    5312    5306    5307
    5308    5309    5307    5308    5309    5308    5309    5310    5311    5312
    5309    5310    5311    5312    5310    5311    5312    5311    5312    5312
       0    5314    5315    5316    5317    5318    5319    5320    5321    5322
    5323    5324    5325    5315    5316    5317    5318    5319    5320    5321
    5322    5323    5326    5327    5328    5316    5317    5318    5319    5320
    5323    5324    5325    5326    5328    5329    5317    5318    5319    5320
    5323    5324    5325    5329    5330    5331    5318    5321    5322    5323
    5326    5327    5332    5333    5334    5335    5319    5320    5321    5322
    5323    5324    5326    5328    5332    5320    5323    5324    5325    5329
    5336    5337    5324    5325    5329    5330    5331    5336    5337    5338
    5322    5323    5326    5327    5328    5332    5333    5334    5335    5339
    5340    5341    5326    5327    5326    5327    5328    5332    5325    5329
    5330    5331    5336    5337    5342    5329    5330    5331    5336    5338
    5342    5327    5328    5332    5333    5334    5335    5332    5333    5334
    5335    5339    5340    5341    5343    5344    5345    5332    5330    5336
    5337    5338    5342    5346    5347    5331    5336    5337    5338    5342
    5346    5347    5336    5338       0    5334    5335    5339    5340    5341
    5343    5344    5345    5348    5349    5350    5335    5339    5340    5341
    5339    5340    5341    5337    5338    5342    5346    5347    5351    5352
    5353    5354    5342    5342    5340    5341    5343    5344    5345    5348
    5349    5350    5355    5356    5357    5341    5343    5344    5345    5343
    5344    5345    5346    5347    5351    5352    5353    5354    5358    5359
    5360    5344    5345    5348    5349    5350    5355    5356    5357    5361
    5362    5363    5345    5348    5349    5350    5348    5349    5350    5347
    5351    5352    5353    5354    5358    5359    5364    5351    5352    5353
    5354    5358    5360    5364    5349    5350    5355    5356    5357    5361
    5362    5363    5365    5366    5367    5350    5355    5356    5357    5355
    5356    5357    5352    5353    5358    5359    5360    5364    5358    5359
    5354    5358    5359    5360    5364    5358    5360    5356    5357    5361
    5362    5363    5365    5366    5367    5368    5369    5370    5357    5361
    5362    5363    5361    5362    5363    5359    5360    5364    5364    5364
    5362    5363    5365    5366    5367    5368    5369    5370    5371    5372
    5373    5363    5365    5366    5367    5365    5366    5367       0    5366
    5367    5368    5369    5370    5367    5368    5369    5370    5368    5369
    5370    5371    5372    5373    5374    5375    5376    5369    5370    5371
    5372    5373    5374    5375    5376    5370    5371    5372    5373    5371
    5372    5373    5372    5373    5374    5375    5376    5373    5374    5375
    5376    5374    5375    5376    5375    5376    5376       0    5378    5379
    5380    5381    5382    5383    5384    5385    5386    5387    5388    5389
    5379    5380    5381    5382    5383    5384    5385    5386    5387    5390
    5391    5392    5380    5381    5382    5383    5384    5387    5388    5389
    5390    5392    5393    5381    5382    5383    5384    5387    5388    5389
    5393    5394    5395    5382    5385    5386    5387    5390    5391    5396
    5397    5398    5399    5383    5384    5385    5386    5387    5388    5390
    5392    5396    5384    5387    5388    5389    5393    5400    5401    5388
    5389    5393    5394    5395    5400    5401    5402    5386    5387    5390
    5391    5392    5396    5397    5398    5399    5403    5404    5405    5390
    5391    5390    5391    5392    5396    5389    5393    5394    5395    5400
    5401    5406    5393    5394    5395    5400    5402    5406    5391    5392
    5396    5397    5398    5399    5396    5397    5398    5399    5403    5404
    5405    5407    5408    5409    5396    5394    5400    5401    5402    5406
    5410    5411    5395    5400    5401    5402    5406    5410    5411    5400
    5402       0    5398    5399    5403    5404    5405    5407    5408    5409
    5412    5413    5414    5399    5403    5404    5405    5403    5404    5405
    5401    5402    5406    5410    5411    5415    5416    5417    5418    5406
    5406    5404    5405    5407    5408    5409    5412    5413    5414    5419
    5420    5421    5405    5407    5408    5409    5407    5408    5409    5410
    5411    5415    5416    5417    5418    5422    5423    5424    5408    5409
    5412    5413    5414    5419    5420    5421    5425    5426    5427    5409
    5412    5413    5414    5412    5413    5414    5411    5415    5416    5417
    5418    5422    5423    5428    5415    5416    5417    5418    5422    5424
    5428    5413    5414    5419    5420    5421    5425    5426    5427    5429
    5430    5431    5414    5419    5420    5421    5419    5420    5421    5416
    5417    5422    5423    5424    5428    5422    5423    5418    5422    5423
    5424    5428    5422    5424    5420    5421    5425    5426    5427    5429
    5430    5431    5432    5433    5434    5421    5425    5426    5427    5425
    5426    5427    5423    5424    5428    5428    5428    5426    5427    5429
    5430    5431    5432    5433    5434    5435    5436    5437    5427    5429
    5430    5431    5429    5430    5431       0    5430    5431    5432    5433
    5434    5431    5432    5433    5434    5432    5433    5434    5435    5436
    5437    5438    5439    5440    5433    5434    5435    5436    5437    5438
    5439    5440    5434    5435    5436    5437    5435    5436    5437    5436
    5437    5438    5439    5440    5437    5438    5439    5440    5438    5439
    5440    5439    5440    5440       0    5442    5443    5444    5445    5446
    5447    5448    5449    5450    5451    5452    5453    5443    5444    5445
    5446    5447    5448    5449    5450    5451    5454    5455    5456    5444
    5445    5446    5447    5448    5451    5452    5453    5454    5456    5457
    5445    5446    5447    5448    5451    5452    5453    5457    5458    5459
    5446    5449    5450    5451    5454    5455    5460    5461    5462    5463
    5447    5448    5449    5450    5451    5452    5454    5456    5460    5448
    5451    5452    5453    5457    5464    5465    5452    5453    5457    5458
    5459    5464    5465    5466    5450    5451    5454    5455    5456    5460
    5461    5462    5463    5467    5468    5469    5454    5455    5454    5455
    5456    5460    5453    5457    5458    5459    5464    5465    5470    5457
    5458    5459    5464    5466    5470    5455    5456    5460    5461    5462
    5463    5460    5461    5462    5463    5467    5468    5469    5471    5472
    5473    5460    5458    5464    5465    5466    5470    5474    5475    5459
    5464    5465    5466    5470    5474    5475    5464    5466       0    5462
    5463    5467    5468    5469    5471    5472    5473    5476    5477    5478
    5463    5467    5468    5469    5467    5468    5469    5465    5466    5470
    5474    5475    5479    5480    5481    5482    5470    5470    5468    5469
    5471    5472    5473    5476    5477    5478    5483    5484    5485    5469
    5471    5472    5473    5471    5472    5473    5474    5475    5479    5480
    5481    5482    5486    5487    5488    5472    5473    5476    5477    5478
    5483    5484    5485    5489    5490    5491    5473    5476    5477    5478
    5476    5477    5478    5475    5479    5480    5481    5482    5486    5487
    5492    5479    5480    5481    5482    5486    5488    5492    5477    5478
    5483    5484    5485    5489    5490    5491    5493    5494    5495    5478
    5483    5484    5485    5483    5484    5485    5480    5481    5486    5487
    5488    5492    5486    5487    5482    5486    5487    5488    5492    5486
    5488    5484    5485    5489    5490    5491    5493    5494    5495    5496
    5497    5498    5485    5489    5490    5491    5489    5490    5491    5487
    5488    5492    5492    5492    5490    5491    5493    5494    5495    5496
    5497    5498    5499    5500    5501    5491    5493    5494    5495    5493
    5494    5495       0    5494    5495    5496    5497    5498    5495    5496
    5497    5498    5496    5497    5498    5499    5500    5501    5502    5503
    5504    5497    5498    5499    5500    5501    5502    5503    5504    5498
    5499    5500    5501    5499    5500    5501    5500    5501    5502    5503
    5504    5501    5502    5503    5504    5502    5503    5504    5503    5504
    5504       0    5506    5507    5508    5509    5510    5511    5512    5513
    5514    5515    5516    5517    5507    5508    5509    5510    5511    5512
    5513    5514    5515    5518    5519    5520    5508    5509    5510    5511
    5512    5515    5516    5517    5518    5520    5521    5509    5510    5511
    5512    5515    5516    5517    5521    5522    5523    5510    5513    5514
    5515    5518    5519    5524    5525    5526    5527    5511    5512    5513
    5514    5515    5516    5518    5520    5524    5512    5515    5516    5517
    5521    5528    5529    5516    5517    5521    5522    5523    5528    5529
    5530    5514    5515    5518    5519    5520    5524    5525    5526    5527
    5531    5532    5533    5518    5519    5518    5519    5520    5524    5517
    5521    5522    5523    5528    5529    5534    5521    5522    5523    5528
    5530    5534    5519    5520    5524    5525    5526    5527    5524    5525
    5526    5527    5531    5532    5533    5535    5536    5537    5524    5522
    5528    5529    5530    5534    5538    5539    5523    5528    5529    5530
    5534    5538    5539    5528    5530       0    5526    5527    5531    5532
    5533    5535    5536    5537    5540    5541    5542    5527    5531    5532
    5533    5531    5532    5533    5529    5530    5534    5538    5539    5543
    5544    5545    5546    5534    5534    5532    5533    5535    5536    5537
    5540    5541    5542    5547    5548    5549    5533    5535    5536    5537
    5535    5536    5537    5538    5539    5543    5544    5545    5546    5550
    5551    5552    5536    5537    5540    5541    5542    5547    5548    5549
    5553    5554    5555    5537    5540    5541    5542    5540    5541    5542
    5539    5543    5544    5545    5546    5550    5551    5556    5543    5544
    5545    5546    5550    5552    5556    5541    5542    5547    5548    5549
    5553    5554    5555    5557    5558    5559    5542    5547    5548    5549
    5547    5548    5549    5544    5545    5550    5551    5552    5556    5550
    5551    5546    5550    5551    5552    5556    5550    5552    5548    5549
    5553    5554    5555    5557    5558    5559    5560    5561    5562    5549
    5553    5554    5555    5553    5554    5555    5551    5552    5556    5556
    5556    5554    5555    5557    5558    5559    5560    5561    5562    5563
    5564    5565    5555    5557    5558    5559    5557    5558    5559       0
    5558    5559    5560    5561    5562    5559    5560    5561    5562    5560
    5561    5562    5563    5564    5565    5566    5567    5568    5561    5562
    5563    5564    5565    5566    5567    5568    5562    5563    5564    5565
    5563    5564    5565    5564    5565    5566    5567    5568    5565    5566
    5567    5568    5566    5567    5568    5567    5568    5568       0    5570
    5571    5572    5573    5574    5575    5576    5577    5578    5579    5580
    5581    5571    5572    5573    5574    5575    5576    5577    5578    5579
    5582    5583    5584    5572    5573    5574    5575    5576    5579    5580
    5581    5582    5584    5585    5573    5574    5575    5576    5579    5580
    5581    5585    5586    5587    5574    5577    5578    5579    5582    5583
    5588    5589    5590    5591    5575    5576    5577    5578    5579    5580
    5582    5584    5588    5576    5579    5580    5581    5585    5592    5593
    5580    5581    5585    5586    5587    5592    5593    5594    5578    5579
    5582    5583    5584    5588    5589    5590    5591    5595    5596    5597
    5582    5583    5582    5583    5584    5588    5581    5585    5586    5587
    5592    5593    5598    5585    5586    5587    5592    5594    5598    5583
    5584    5588    5589    5590    5591    5588    5589    5590    5591    5595
    5596    5597    5599    5600    5601    5588    5586    5592    5593    5594
    5598    5602    5603    5587    5592    5593    5594    5598    5602    5603
    5592    5594       0    5590    5591    5595    5596    5597    5599    5600
    5601    5604    5605    5606    5591    5595    5596    5597    5595    5596
    5597    5593    5594    5598    5602    5603    5607    5608    5609    5610
    5598    5598    5596    5597    5599    5600    5601    5604    5605    5606
    5611    5612    5613    5597    5599    5600    5601    5599    5600    5601
    5602    5603    5607    5608    5609    5610    5614    5615    5616    5600
    5601    5604    5605    5606    5611    5612    5613    5617    5618    5619
    5601    5604    5605    5606    5604    5605    5606    5603    5607    5608
    5609    5610    5614    5615    5620    5607    5608    5609    5610    5614
    5616    5620    5605    5606    5611    5612    5613    5617    5618    5619
    5621    5622    5623    5606    5611    5612    5613    5611    5612    5613
    5608    5609    5614    5615    5616    5620    5614    5615    5610    5614
    5615    5616    5620    5614    5616    5612    5613    5617    5618    5619
    5621    5622    5623    5624    5625    5626    5613    5617    5618    5619
    5617    5618    5619    5615    5616    5620    5620    5620    5618    5619
    5621    5622    5623    5624    5625    5626    5627    5628    5629    5619
    5621    5622    5623    5621    5622    5623       0    5622    5623    5624
    5625    5626    5623    5624    5625    5626    5624    5625    5626    5627
    5628    5629    5630    5631    5632    5625    5626    5627    5628    5629
    5630    5631    5632    5626    5627    5628    5629    5627    5628    5629
    5628    5629    5630    5631    5632    5629    5630    5631    5632    5630
    5631    5632    5631    5632    5632       0    5634    5635    5636    5637
    5638    5639    5640    5641    5642    5643    5644    5645    5635    5636
    5637    5638    5639    5640    5641    5642    5643    5646    5647    5648
    5636    5637    5638    5639    5640    5643    5644    5645    5646    5648
    5649    5637    5638    5639    5640    5643    5644    5645    5649    5650
    5651    5638    5641    5642    5643    5646    5647    5652    5653    5654
    5655    5639    5640    5641    5642    5643    5644    5646    5648    5652
    5640    5643    5644    5645    5649    5656    5657    5644    5645    5649
    5650    5651    5656    5657    5658    5642    5643    5646    5647    5648
    5652    5653    5654    5655    5659    5660    5661    5646    5647    5646
    5647    5648    5652    5645    5649    5650    5651    5656    5657    5662
    5649    5650    5651    5656    5658    5662    5647    5648    5652    5653
    5654    5655    5652    5653    5654    5655    5659    5660    5661    5663
    5664    5665    5652    5650    5656    5657    5658    5662    5666    5667
    5651    5656    5657    5658    5662    5666    5667    5656    5658       0
    5654    5655    5659    5660    5661    5663    5664    5665    5668    5669
    5670    5655    5659    5660    5661    5659    5660    5661    5657    5658
    5662    5666    5667    5671    5672    5673    5674    5662    5662    5660
    5661    5663    5664    5665    5668    5669    5670    5675    5676    5677
    5661    5663    5664    5665    5663    5664    5665    5666    5667    5671
    5672    5673    5674    5678    5679    5680    5664    5665    5668    5669
    5670    5675    5676    5677    5681    5682    5683    5665    5668    5669
    5670    5668    5669    5670    5667    5671    5672    5673    5674    5678
    5679    5684    5671    5672    5673    5674    5678    5680    5684    5669
    5670    5675    5676    5677    5681    5682    5683    5685    5686    5687
    5670    5675    5676    5677    5675    5676    5677    5672    5673    5678
    5679    5680    5684    5678    5679    5674    5678    5679    5680    5684
    5678    5680    5676    5677    5681    5682    5683    5685    5686    5687
    5688    5689    5690    5677    5681    5682    5683    5681    5682    5683
    5679    5680    5684    5684    5684    5682    5683    5685    5686    5687
    5688    5689    5690    5691    5692    5693    5683    5685    5686    5687
    5685    5686    5687       0    5686    5687    5688    5689    5690    5687
    5688    5689    5690    5688    5689    5690    5691    5692    5693    5694
    5695    5696    5689    5690    5691    5692    5693    5694    5695    5696
    5690    5691    5692    5693    5691    5692    5693    5692    5693    5694
    5695    5696    5693    5694    5695    5696    5694    5695    5696    5695
    5696    5696       0    5698    5699    5700    5701    5702    5703    5704
    5705    5706    5707    5708    5709    5699    5700    5701    5702    5703
    5704    5705    5706    5707    5710    5711    5712    5700    5701    5702
    5703    5704    5707    5708    5709    5710    5712    5713    5701    5702
    5703    5704    5707    5708    5709    5713    5714    5715    5702    5705
    5706    5707    5710    5711    5716    5717    5718    5719    5703    5704
    5705    5706    5707    5708    5710    5712    5716    5704    5707    5708
    5709    5713    5720    5721    5708    5709    5713    5714    5715    5720
    5721    5722    5706    5707    5710    5711    5712    5716    5717    5718
    5719    5723    5724    5725    5710    5711    5710    5711    5712    5716
    5709    5713    5714    5715    5720    5721    5726    5713    5714    5715
    5720    5722    5726    5711    5712    5716    5717    5718    5719    5716
    5717    5718    5719    5723    5724    5725    5727    5728    5729    5716
    5714    5720    5721    5722    5726    5730    5731    5715    5720    5721
    5722    5726    5730    5731    5720    5722       0    5718    5719    5723
    5724    5725    5727    5728    5729    5732    5733    5734    5719    5723
    5724    5725    5723    5724    5725    5721    5722    5726    5730    5731
    5735    5736    5737    5738    5726    5726    5724    5725    5727    5728
    5729    5732    5733    5734    5739    5740    5741    5725    5727    5728
    5729    5727    5728    5729    5730    5731    5735    5736    5737    5738
    5742    5743    5744    5728    5729    5732    5733    5734    5739    5740
    5741    5745    5746    5747    5729    5732    5733    5734    5732    5733
    5734    5731    5735    5736    5737    5738    5742    5743    5748    5735
    5736    5737    5738    5742    5744    5748    5733    5734    5739    5740
    5741    5745    5746    5747    5749    5750    5751    5734    5739    5740
    5741    5739    5740    5741    5736    5737    5742    5743    5744    5748
    5742    5743    5738    5742    5743    5744    5748    5742    5744    5740
    5741    5745    5746    5747    5749    5750    5751    5752    5753    5754
    5741    5745    5746    5747    5745    5746    5747    5743    5744    5748
    5748    5748    5746    5747    5749    5750    5751    5752    5753    5754
    5755    5756    5757    5747    5749    5750    5751    5749    5750    5751
       0    5750    5751    5752    5753    5754    5751    5752    5753    5754
    5752    5753    5754    5755    5756    5757    5758    5759    5760    5753
    5754    5755    5756    5757    5758    5759    5760    5754    5755    5756
    5757    5755    5756    5757    5756    5757    5758    5759    5760    5757
    5758    5759    5760    5758    5759    5760    5759    5760    5760       0
    5762    5763    5764    5765    5766    5767    5768    5769    5770    5771
    5772    5773    5763    5764    5765    5766    5767    5768    5769    5770
    5771    5774    5775    5776    5764    5765    5766    5767    5768    5771
    5772    5773    5774    5776    5777    5765    5766    5767    5768    5771
    5772    5773    5777    5778    5779    5766    5769    5770    5771    5774
    5775    5780    5781    5782    5783    5767    5768    5769    5770    5771
    5772    5774    5776    5780    5768    5771    5772    5773    5777    5784
    5785    5772    5773    5777    5778    5779    5784    5785    5786    5770
    5771    5774    5775    5776    5780    5781    5782    5783    5787    5788
    5789    5774    5775    5774    5775    5776    5780    5773    5777    5778
    5779    5784    5785    5790    5777    5778    5779    5784    5786    5790
    5775    5776    5780    5781    5782    5783    5780    5781    5782    5783
    5787    5788    5789    5791    5792    5793    5780    5778    5784    5785
    5786    5790    5794    5795    5779    5784    5785    5786    5790    5794
    5795    5784    5786       0    5782    5783    5787    5788    5789    5791
    5792    5793    5796    5797    5798    5783    5787    5788    5789    5787
    5788    5789    5785    5786    5790    5794    5795    5799    5800    5801
    5802    5790    5790    5788    5789    5791    5792    5793    5796    5797
    5798    5803    5804    5805    5789    5791    5792    5793    5791    5792
    5793    5794    5795    5799    5800    5801    5802    5806    5807    5808
    5792    5793    5796    5797    5798    5803    5804    5805    5809    5810
    5811    5793    5796    5797    5798    5796    5797    5798    5795    5799
    5800    5801    5802    5806    5807    5812    5799    5800    5801    5802
    5806    5808    5812    5797    5798    5803    5804    5805    5809    5810
    5811    5813    5814    5815    5798    5803    5804    5805    5803    5804
    5805    5800    5801    5806    5807    5808    5812    5806    5807    5802
    5806    5807    5808    5812    5806    5808    5804    5805    5809    5810
    5811    5813    5814    5815    5816    5817    5818    5805    5809    5810
    5811    5809    5810    5811    5807    5808    5812    5812    5812    5810
    5811    5813    5814    5815    5816    5817    5818    5819    5820    5821
    5811    5813    5814    5815    5813    5814    5815       0    5814    5815
    5816    5817    5818    5815    5816    5817    5818    5816    5817    5818
    5819    5820    5821    5822    5823    5824    5817    5818    5819    5820
    5821    5822    5823    5824    5818    5819    5820    5821    5819    5820
    5821    5820    5821    5822    5823    5824    5821    5822    5823    5824
    5822    5823    5824    5823    5824    5824       0    5826    5827    5828
    5829    5830    5831    5832    5833    5834    5835    5836    5837    5827
    5828    5829    5830    5831    5832    5833    5834    5835    5838    5839
    5840    5828    5829    5830    5831    5832    5835    5836    5837    5838
    5840    5841    5829    5830    5831    5832    5835    5836    5837    5841
    5842    5843    5830    5833    5834    5835    5838    5839    5844    5845
    5846    5847    5831    5832    5833    5834    5835    5836    5838    5840
    5844    5832    5835    5836    5837    5841    5848    5849    5836    5837
    5841    5842    5843    5848    5849    5850    5834    5835    5838    5839
    5840    5844    5845    5846    5847    5851    5852    5853    5838    5839
    5838    5839    5840    5844    5837    5841    5842    5843    5848    5849
    5854    5841    5842    5843    5848    5850    5854    5839    5840    5844
    5845    5846    5847    5844    5845    5846    5847    5851    5852    5853
    5855    5856    5857    5844    5842    5848    5849    5850    5854    5858
    5859    5843    5848    5849    5850    5854    5858    5859    5848    5850
       0    5846    5847    5851    5852    5853    5855    5856    5857    5860
    5861    5862    5847    5851    5852    5853    5851    5852    5853    5849
    5850    5854    5858    5859    5863    5864    5865    5866    5854    5854
    5852    5853    5855    5856    5857    5860    5861    5862    5867    5868
    5869    5853    5855    5856    5857    5855    5856    5857    5858    5859
    5863    5864    5865    5866    5870    5871    5872    5856    5857    5860
    5861    5862    5867    5868    5869    5873    5874    5875    5857    5860
    5861    5862    5860    5861    5862    5859    5863    5864    5865    5866
    5870    5871    5876    5863    5864    5865    5866    5870    5872    5876
    5861    5862    5867    5868    5869    5873    5874    5875    5877    5878
    5879    5862    5867    5868    5869    5867    5868    5869    5864    5865
    5870    5871    5872    5876    5870    5871    5866    5870    5871    5872
    5876    5870    5872    5868    5869    5873    5874    5875    5877    5878
    5879    5880    5881    5882    5869    5873    5874    5875    5873    5874
    5875    5871    5872    5876    5876    5876    5874    5875    5877    5878
    5879    5880    5881    5882    5883    5884    5885    5875    5877    5878
    5879    5877    5878    5879       0    5878    5879    5880    5881    5882
    5879    5880    5881    5882    5880    5881    5882    5883    5884    5885
    5886    5887    5888    5881    5882    5883    5884    5885    5886    5887
    5888    5882    5883    5884    5885    5883    5884    5885    5884    5885
    5886    5887    5888    5885    5886    5887    5888    5886    5887    5888
    5887    5888    5888       0    5890    5891    5892    5893    5894    5895
    5896    5897    5898    5899    5900    5901    5891    5892    5893    5894
    5895    5896    5897    5898    5899    5902    5903    5904    5892    5893
    5894    5895    5896    5899    5900    5901    5902    5904    5905    5893
    5894    5895    5896    5899    5900    5901    5905    5906    5907    5894
    5897    5898    5899    5902    5903    5908    5909    5910    5911    5895
    5896    5897    5898    5899    5900    5902    5904    5908    5896    5899
    5900    5901    5905    5912    5913    5900    5901    5905    5906    5907
    5912    5913    5914    5898    5899    5902    5903    5904    5908    5909
    5910    5911    5915    5916    5917    5902    5903    5902    5903    5904
    5908    5901    5905    5906    5907    5912    5913    5918    5905    5906
    5907    5912    5914    5918    5903    5904    5908    5909    5910    5911
    5908    5909    5910    5911    5915    5916    5917    5919    5920    5921
    5908    5906    5912    5913    5914    5918    5922    5923    5907    5912
    5913    5914    5918    5922    5923    5912    5914       0    5910    5911
    5915    5916    5917    5919    5920    5921    5924    5925    5926    5911
    5915    5916    5917    5915    5916    5917    5913    5914    5918    5922
    5923    5927    5928    5929    5930    5918    5918    5916    5917    5919
    5920    5921    5924    5925    5926    5931    5932    5933    5917    5919
    5920    5921    5919    5920    5921    5922    5923    5927    5928    5929
    5930    5934    5935    5936    5920    5921    5924    5925    5926    5931
    5932    5933    5937    5938    5939    5921    5924    5925    5926    5924
    5925    5926    5923    5927    5928    5929    5930    5934    5935    5940
    5927    5928    5929    5930    5934    5936    5940    5925    5926    5931
    5932    5933    5937    5938    5939    5941    5942    5943    5926    5931
    5932    5933    5931    5932    5933    5928    5929    5934    5935    5936
    5940    5934    5935    5930    5934    5935    5936    5940    5934    5936
    5932    5933    5937    5938    5939    5941    5942    5943    5944    5945
    5946    5933    5937    5938    5939    5937    5938    5939    5935    5936
    5940    5940    5940    5938    5939    5941    5942    5943    5944    5945
    5946    5947    5948    5949    5939    5941    5942    5943    5941    5942
    5943       0    5942    5943    5944    5945    5946    5943    5944    5945
    5946    5944    5945    5946    5947    5948    5949    5950    5951    5952
    5945    5946    5947    5948    5949    5950    5951    5952    5946    5947
    5948    5949    5947    5948    5949    5948    5949    5950    5951    5952
    5949    5950    5951    5952    5950    5951    5952    5951    5952    5952
       0    5954    5955    5956    5957    5958    5959    5960    5961    5962
    5963    5964    5965    5955    5956    5957    5958    5959    5960    5961
    5962    5963    5966    5967    5968    5956    5957    5958    5959    5960
    5963    5964    5965    5966    5968    5969    5957    5958    5959    5960
    5963    5964    5965    5969    5970    5971    5958    5961    5962    5963
    5966    5967    5972    5973    5974    5975    5959    5960    5961    5962
    5963    5964    5966    5968    5972    5960    5963    5964    5965    5969
    5976    5977    5964    5965    5969    5970    5971    5976    5977    5978
    5962    5963    5966    5967    5968    5972    5973    5974    5975    5979
    5980    5981    5966    5967    5966    5967    5968    5972    5965    5969
    5970    5971    5976    5977    5982    5969    5970    5971    5976    5978
    5982    5967    5968    5972    5973    5974    5975    5972    5973    5974
    5975    5979    5980    5981    5983    5984    5985    5972    5970    5976
    5977    5978    5982    5986    5987    5971    5976    5977    5978    5982
    5986    5987    5976    5978       0    5974    5975    5979    5980    5981
    5983    5984    5985    5988    5989    5990    5975    5979    5980    5981
    5979    5980    5981    5977    5978    5982    5986    5987    5991    5992
    5993    5994    5982    5982    5980    5981    5983    5984    5985    5988
    5989    5990    5995    5996    5997    5981    5983    5984    5985    5983
    5984    5985    5986    5987    5991    5992    5993    5994    5998    5999
    6000    5984    5985    5988    5989    5990    5995    5996    5997    6001
    6002    6003    5985    5988    5989    5990    5988    5989    5990    5987
    5991    5992    5993    5994    5998    5999    6004    5991    5992    5993
    5994    5998    6000    6004    5989    5990    5995    5996    5997    6001
    6002    6003    6005    6006    6007    5990    5995    5996    5997    5995
    5996    5997    5992    5993    5998    5999    6000    6004    5998    5999
    5994    5998    5999    6000    6004    5998    6000    5996    5997    6001
    6002    6003    6005    6006    6007    6008    6009    6010    5997    6001
    6002    6003    6001    6002    6003    5999    6000    6004    6004    6004
    6002    6003    6005    6006    6007    6008    6009    6010    6011    6012
    6013    6003    6005    6006    6007    6005    6006    6007       0    6006
    6007    6008    6009    6010    6007    6008    6009    6010    6008    6009
    6010    6011    6012    6013    6014    6015    6016    6009    6010    6011
    6012    6013    6014    6015    6016    6010    6011    6012    6013    6011
    6012    6013    6012    6013    6014    6015    6016    6013    6014    6015
    6016    6014    6015    6016    6015    6016    6016       0    6018    6019
    6020    6021    6022    6023    6024    6025    6026    6027    6028    6029
    6019    6020    6021    6022    6023    6024    6025    6026    6027    6030
    6031    6032    6020    6021    6022    6023    6024    6027    6028    6029
    6030    6032    6033    6021    6022    6023    6024    6027    6028    6029
    6033    6034    6035    6022    6025    6026    6027    6030    6031    6036
    6037    6038    6039    6023    6024    6025    6026    6027    6028    6030
    6032    6036    6024    6027    6028    6029    6033    6040    6041    6028
    6029    6033    6034    6035    6040    6041    6042    6026    6027    6030
    6031    6032    6036    6037    6038    6039    6043    6044    6045    6030
    6031    6030    6031    6032    6036    6029    6033    6034    6035    6040
    6041    6046    6033    6034    6035    6040    6042    6046    6031    6032
    6036    6037    6038    6039    6036    6037    6038    6039    6043    6044
    6045    6047    6048    6049    6036    6034    6040    6041    6042    6046
    6050    6051    6035    6040    6041    6042    6046    6050    6051    6040
    6042       0    6038    6039    6043    6044    6045    6047    6048    6049
    6052    6053    6054    6039    6043    6044    6045    6043    6044    6045
    6041    6042    6046    6050    6051    6055    6056    6057    6058    6046
    6046    6044    6045    6047    6048    6049    6052    6053    6054    6059
    6060    6061    6045    6047    6048    6049    6047    6048    6049    6050
    6051    6055    6056    6057    6058    6062    6063    6064    6048    6049
    6052    6053    6054    6059    6060    6061    6065    6066    6067    6049
    6052    6053    6054    6052    6053    6054    6051    6055    6056    6057
    6058    6062    6063    6068    6055    6056    6057    6058    6062    6064
    6068    6053    6054    6059    6060    6061    6065    6066    6067    6069
    6070    6071    6054    6059    6060    6061    6059    6060    6061    6056
    6057    6062    6063    6064    6068    6062    6063    6058    6062    6063
    6064    6068    6062    6064    6060    6061    6065    6066    6067    6069
    6070    6071    6072    6073    6074    6061    6065    6066    6067    6065
    6066    6067    6063    6064    6068    6068    6068    6066    6067    6069
    6070    6071    6072    6073    6074    6075    6076    6077    6067    6069
    6070    6071    6069    6070    6071       0    6070    6071    6072    6073
    6074    6071    6072    6073    6074    6072    6073    6074    6075    6076
    6077    6078    6079    6080    6073    6074    6075    6076    6077    6078
    6079    6080    6074    6075    6076    6077    6075    6076    6077    6076
    6077    6078    6079    6080    6077    6078    6079    6080    6078    6079
    6080    6079    6080    6080       0    6082    6083    6084    6085    6086
    6087    6088    6089    6090    6091    6092    6093    6083    6084    6085
    6086    6087    6088    6089    6090    6091    6094    6095    6096    6084
    6085    6086    6087    6088    6091    6092    6093    6094    6096    6097
    6085    6086    6087    6088    6091    6092    6093    6097    6098    6099
    6086    6089    6090    6091    6094    6095    6100    6101    6102    6103
    6087    6088    6089    6090    6091    6092    6094    6096    6100    6088
    6091    6092    6093    6097    6104    6105    6092    6093    6097    6098
    6099    6104    6105    6106    6090    6091    6094    6095    6096    6100
    6101    6102    6103    6107    6108    6109    6094    6095    6094    6095
    6096    6100    6093    6097    6098    6099    6104    6105    6110    6097
    6098    6099    6104    6106    6110    6095    6096    6100    6101    6102
    6103    6100    6101    6102    6103    6107    6108    6109    6111    6112
    6113    6100    6098    6104    6105    6106    6110    6114    6115    6099
    6104    6105    6106    6110    6114    6115    6104    6106       0    6102
    6103    6107    6108    6109    6111    6112    6113    6116    6117    6118
    6103    6107    6108    6109    6107    6108    6109    6105    6106    6110
    6114    6115    6119    6120    6121    6122    6110    6110    6108    6109
    6111    6112    6113    6116    6117    6118    6123    6124    6125    6109
    6111    6112    6113    6111    6112    6113    6114    6115    6119    6120
    6121    6122    6126    6127    6128    6112    6113    6116    6117    6118
    6123    6124    6125    6129    6130    6131    6113    6116    6117    6118
    6116    6117    6118    6115    6119    6120    6121    6122    6126    6127
    6132    6119    6120    6121    6122    6126    6128    6132    6117    6118
    6123    6124    6125    6129    6130    6131    6133    6134    6135    6118
    6123    6124    6125    6123    6124    6125    6120    6121    6126    6127
    6128    6132    6126    6127    6122    6126    6127    6128    6132    6126
    6128    6124    6125    6129    6130    6131    6133    6134    6135    6136
    6137    6138    6125    6129    6130    6131    6129    6130    6131    6127
    6128    6132    6132    6132    6130    6131    6133    6134    6135    6136
    6137    6138    6139    6140    6141    6131    6133    6134    6135    6133
    6134    6135       0    6134    6135    6136    6137    6138    6135    6136
    6137    6138    6136    6137    6138    6139    6140    6141    6142    6143
    6144    6137    6138    6139    6140    6141    6142    6143    6144    6138
    6139    6140    6141    6139    6140    6141    6140    6141    6142    6143
    6144    6141    6142    6143    6144    6142    6143    6144    6143    6144
    6144       0    6146    6147    6148    6149    6150    6151    6152    6153
    6154    6155    6156    6157    6147    6148    6149    6150    6151    6152
    6153    6154    6155    6158    6159    6160    6148    6149    6150    6151
    6152    6155    6156    6157    6158    6160    6161    6149    6150    6151
    6152    6155    6156    6157    6161    6162    6163    6150    6153    6154
    6155    6158    6159    6164    6165    6166    6167    6151    6152    6153
    6154    6155    6156    6158    6160    6164    6152    6155    6156    6157
    6161    6168    6169    6156    6157    6161    6162    6163    6168    6169
    6170    6154    6155    6158    6159    6160    6164    6165    6166    6167
    6171    6172    6173    6158    6159    6158    6159    6160    6164    6157
    6161    6162    6163    6168    6169    6174    6161    6162    6163    6168
    6170    6174    6159    6160    6164    6165    6166    6167    6164    6165
    6166    6167    6171    6172    6173    6175    6176    6177    6164    6162
    6168    6169    6170    6174    6178    6179    6163    6168    6169    6170
    6174    6178    6179    6168    6170       0    6166    6167    6171    6172
    6173    6175    6176    6177    6180    6181    6182    6167    6171    6172
    6173    6171    6172    6173    6169    6170    6174    6178    6179    6183
    6184    6185    6186    6174    6174    6172    6173    6175    6176    6177
    6180    6181    6182    6187    6188    6189    6173    6175    6176    6177
    6175    6176    6177    6178    6179    6183    6184    6185    6186    6190
    6191    6192    6176    6177    6180    6181    6182    6187    6188    6189
    6193    6194    6195    6177    6180    6181    6182    6180    6181    6182
    6179    6183    6184    6185    6186    6190    6191    6196    6183    6184
    6185    6186    6190    6192    6196    6181    6182    6187    6188    6189
    6193    6194    6195    6197    6198    6199    6182    6187    6188    6189
    6187    6188    6189    6184    6185    6190    6191    6192    6196    6190
    6191    6186    6190    6191    6192    6196    6190    6192    6188    6189
    6193    6194    6195    6197    6198    6199    6200    6201    6202    6189
    6193    6194    6195    6193    6194    6195    6191    6192    6196    6196
    6196    6194    6195    6197    6198    6199    6200    6201    6202    6203
    6204    6205    6195    6197    6198    6199    6197    6198    6199       0
    6198    6199    6200    6201    6202    6199    6200    6201    6202    6200
    6201    6202    6203    6204    6205    6206    6207    6208    6201    6202
    6203    6204    6205    6206    6207    6208    6202    6203    6204    6205
    6203    6204    6205    6204    6205    6206    6207    6208    6205    6206
    6207    6208    6206    6207    6208    6207    6208    6208       0    6210
    6211    6212    6213    6214    6215    6216    6217    6218    6219    6220
    6221    6211    6212    6213    6214    6215    6216    6217    6218    6219
    6222    6223    6224    6212    6213    6214    6215    6216    6219    6220
    6221    6222    6224    6225    6213    6214    6215    6216    6219    6220
    6221    6225    6226    6227    6214    6217    6218    6219    6222    6223
    6228    6229    6230    6231    6215    6216    6217    6218    6219    6220
    6222    6224    6228    6216    6219    6220    6221    6225    6232    6233
    6220    6221    6225    6226    6227    6232    6233    6234    6218    6219
    6222    6223    6224    6228    6229    6230    6231    6235    6236    6237
    6222    6223    6222    6223    6224    6228    6221    6225    6226    6227
    6232    6233    6238    6225    6226    6227    6232    6234    6238    6223
    6224    6228    6229    6230    6231    6228    6229    6230    6231    6235
    6236    6237    6239    6240    6241    6228    6226    6232    6233    6234
    6238    6242    6243    6227    6232    6233    6234    6238    6242    6243
    6232    6234       0    6230    6231    6235    6236    6237    6239    6240
    6241    6244    6245    6246    6231    6235    6236    6237    6235    6236
    6237    6233    6234    6238    6242    6243    6247    6248    6249    6250
    6238    6238    6236    6237    6239    6240    6241    6244    6245    6246
    6251    6252    6253    6237    6239    6240    6241    6239    6240    6241
    6242    6243    6247    6248    6249    6250    6254    6255    6256    6240
    6241    6244    6245    6246    6251    6252    6253    6257    6258    6259
    6241    6244    6245    6246    6244    6245    6246    6243    6247    6248
    6249    6250    6254    6255    6260    6247    6248    6249    6250    6254
    6256    6260    6245    6246    6251    6252    6253    6257    6258    6259
    6261    6262    6263    6246    6251    6252    6253    6251    6252    6253
    6248    6249    6254    6255    6256    6260    6254    6255    6250    6254
    6255    6256    6260    6254    6256    6252    6253    6257    6258    6259
    6261    6262    6263    6264    6265    6266    6253    6257    6258    6259
    6257    6258    6259    6255    6256    6260    6260    6260    6258    6259
    6261    6262    6263    6264    6265    6266    6267    6268    6269    6259
    6261    6262    6263    6261    6262    6263       0    6262    6263    6264
    6265    6266    6263    6264    6265    6266    6264    6265    6266    6267
    6268    6269    6270    6271    6272    6265    6266    6267    6268    6269
    6270    6271    6272    6266    6267    6268    6269    6267    6268    6269
    6268    6269    6270    6271    6272    6269    6270    6271    6272    6270
    6271    6272    6271    6272    6272       0    6274    6275    6276    6277
    6278    6279    6280    6281    6282    6283    6284    6285    6275    6276
    6277    6278    6279    6280    6281    6282    6283    6286    6287    6288
    6276    6277    6278    6279    6280    6283    6284    6285    6286    6288
    6289    6277    6278    6279    6280    6283    6284    6285    6289    6290
    6291    6278    6281    6282    6283    6286    6287    6292    6293    6294
    6295    6279    6280    6281    6282    6283    6284    6286    6288    6292
    6280    6283    6284    6285    6289    6296    6297    6284    6285    6289
    6290    6291    6296    6297    6298    6282    6283    6286    6287    6288
    6292    6293    6294    6295    6299    6300    6301    6286    6287    6286
    6287    6288    6292    6285    6289    6290    6291    6296    6297    6302
    6289    6290    6291    6296    6298    6302    6287    6288    6292    6293
    6294    6295    6292    6293    6294    6295    6299    6300    6301    6303
    6304    6305    6292    6290    6296    6297    6298    6302    6306    6307
    6291    6296    6297    6298    6302    6306    6307    6296    6298       0
    6294    6295    6299    6300    6301    6303    6304    6305    6308    6309
    6310    6295    6299    6300    6301    6299    6300    6301    6297    6298
    6302    6306    6307    6311    6312    6313    6314    6302    6302    6300
    6301    6303    6304    6305    6308    6309    6310    6315    6316    6317
    6301    6303    6304    6305    6303    6304    6305    6306    6307    6311
    6312    6313    6314    6318    6319    6320    6304    6305    6308    6309
    6310    6315    6316    6317    6321    6322    6323    6305    6308    6309
    6310    6308    6309    6310    6307    6311    6312    6313    6314    6318
    6319    6324    6311    6312    6313    6314    6318    6320    6324    6309
    6310    6315    6316    6317    6321    6322    6323    6325    6326    6327
    6310    6315    6316    6317    6315    6316    6317    6312    6313    6318
    6319    6320    6324    6318    6319    6314    6318    6319    6320    6324
    6318    6320    6316    6317    6321    6322    6323    6325    6326    6327
    6328    6329    6330    6317    6321    6322    6323    6321    6322    6323
    6319    6320    6324    6324    6324    6322    6323    6325    6326    6327
    6328    6329    6330    6331    6332    6333    6323    6325    6326    6327
    6325    6326    6327       0    6326    6327    6328    6329    6330    6327
    6328    6329    6330    6328    6329    6330    6331    6332    6333    6334
    6335    6336    6329    6330    6331    6332    6333    6334    6335    6336
    6330    6331    6332    6333    6331    6332    6333    6332    6333    6334
    6335    6336    6333    6334    6335    6336    6334    6335    6336    6335
    6336    6336       0    6338    6339    6340    6341    6342    6343    6344
    6345    6346    6347    6348    6349    6339    6340    6341    6342    6343
    6344    6345    6346    6347    6350    6351    6352    6340    6341    6342
    6343    6344    6347    6348    6349    6350    6352    6353    6341    6342
    6343    6344    6347    6348    6349    6353    6354    6355    6342    6345
    6346    6347    6350    6351    6356    6357    6358    6359    6343    6344
    6345    6346    6347    6348    6350    6352    6356    6344    6347    6348
    6349    6353    6360    6361    6348    6349    6353    6354    6355    6360
    6361    6362    6346    6347    6350    6351    6352    6356    6357    6358
    6359    6363    6364    6365    6350    6351    6350    6351    6352    6356
    6349    6353    6354    6355    6360    6361    6366    6353    6354    6355
    6360    6362    6366    6351    6352    6356    6357    6358    6359    6356
    6357    6358    6359    6363    6364    6365    6367    6368    6369    6356
    6354    6360    6361    6362    6366    6370    6371    6355    6360    6361
    6362    6366    6370    6371    6360    6362       0    6358    6359    6363
    6364    6365    6367    6368    6369    6372    6373    6374    6359    6363
    6364    6365    6363    6364    6365    6361    6362    6366    6370    6371
    6375    6376    6377    6378    6366    6366    6364    6365    6367    6368
    6369    6372    6373    6374    6379    6380    6381    6365    6367    6368
    6369    6367    6368    6369    6370    6371    6375    6376    6377    6378
    6382    6383    6384    6368    6369    6372    6373    6374    6379    6380
    6381    6385    6386    6387    6369    6372    6373    6374    6372    6373
    6374    6371    6375    6376    6377    6378    6382    6383    6388    6375
    6376    6377    6378    6382    6384    6388    6373    6374    6379    6380
    6381    6385    6386    6387    6389    6390    6391    6374    6379    6380
    6381    6379    6380    6381    6376    6377    6382    6383    6384    6388
    6382    6383    6378    6382    6383    6384    6388    6382    6384    6380
    6381    6385    6386    6387    6389    6390    6391    6392    6393    6394
    6381    6385    6386    6387    6385    6386    6387    6383    6384    6388
    6388    6388    6386    6387    6389    6390    6391    6392    6393    6394
    6395    6396    6397    6387    6389    6390    6391    6389    6390    6391
       0    6390    6391    6392    6393    6394    6391    6392    6393    6394
    6392    6393    6394    6395    6396    6397    6398    6399    6400    6393
    6394    6395    6396    6397    6398    6399    6400    6394    6395    6396
    6397    6395    6396    6397    6396    6397    6398    6399    6400    6397
    6398    6399    6400    6398    6399    6400    6399    6400    6400       0
    6402    6403    6404    6405    6406    6407    6408    6409    6410    6411
    6412    6413    6403    6404    6405    6406    6407    6408    6409    6410
    6411    6414    6415    6416    6404    6405    6406    6407    6408    6411
    6412    6413    6414    6416    6417    6405    6406    6407    6408    6411
    6412    6413    6417    6418    6419    6406    6409    6410    6411    6414
    6415    6420    6421    6422    6423    6407    6408    6409    6410    6411
    6412    6414    6416    6420    6408    6411    6412    6413    6417    6424
    6425    6412    6413    6417    6418    6419    6424    6425    6426    6410
    6411    6414    6415    6416    6420    6421    6422    6423    6427    6428
    6429    6414    6415    6414    6415    6416    6420    6413    6417    6418
    6419    6424    6425    6430    6417    6418    6419    6424    6426    6430
    6415    6416    6420    6421    6422    6423    6420    6421    6422    6423
    6427    6428    6429    6431    6432    6433    6420    6418    6424    6425
    6426    6430    6434    6435    6419    6424    6425    6426    6430    6434
    6435    6424    6426       0    6422    6423    6427    6428    6429    6431
    6432    6433    6436    6437    6438    6423    6427    6428    6429    6427
    6428    6429    6425    6426    6430    6434    6435    6439    6440    6441
    6442    6430    6430    6428    6429    6431    6432    6433    6436    6437
    6438    6443    6444    6445    6429    6431    6432    6433    6431    6432
    6433    6434    6435    6439    6440    6441    6442    6446    6447    6448
    6432    6433    6436    6437    6438    6443    6444    6445    6449    6450
    6451    6433    6436    6437    6438    6436    6437    6438    6435    6439
    6440    6441    6442    6446    6447    6452    6439    6440    6441    6442
    6446    6448    6452    6437    6438    6443    6444    6445    6449    6450
    6451    6453    6454    6455    6438    6443    6444    6445    6443    6444
    6445    6440    6441    6446    6447    6448    6452    6446    6447    6442
    6446    6447    6448    6452    6446    6448    6444    6445    6449    6450
    6451    6453    6454    6455    6456    6457    6458    6445    6449    6450
    6451    6449    6450    6451    6447    6448    6452    6452    6452    6450
    6451    6453    6454    6455    6456    6457    6458    6459    6460    6461
    6451    6453    6454    6455    6453    6454    6455       0    6454    6455
    6456    6457    6458    6455    6456    6457    6458    6456    6457    6458
    6459    6460    6461    6462    6463    6464    6457    6458    6459    6460
    6461    6462    6463    6464    6458    6459    6460    6461    6459    6460
    6461    6460    6461    6462    6463    6464    6461    6462    6463    6464
    6462    6463    6464    6463    6464    6464       0    6466    6467    6468
    6469    6470    6471    6472    6473    6474    6475    6476    6477    6467
    6468    6469    6470    6471    6472    6473    6474    6475    6478    6479
    6480    6468    6469    6470    6471    6472    6475    6476    6477    6478
    6480    6481    6469    6470    6471    6472    6475    6476    6477    6481
    6482    6483    6470    6473    6474    6475    6478    6479    6484    6485
    6486    6487    6471    6472    6473    6474    6475    6476    6478    6480
    6484    6472    6475    6476    6477    6481    6488    6489    6476    6477
    6481    6482    6483    6488    6489    6490    6474    6475    6478    6479
    6480    6484    6485    6486    6487    6491    6492    6493    6478    6479
    6478    6479    6480    6484    6477    6481    6482    6483    6488    6489
    6494    6481    6482    6483    6488    6490    6494    6479    6480    6484
    6485    6486    6487    6484    6485    6486    6487    6491    6492    6493
    6495    6496    6497    6484    6482    6488    6489    6490    6494    6498
    6499    6483    6488    6489    6490    6494    6498    6499    6488    6490
       0    6486    6487    6491    6492    6493    6495    6496    6497    6500
    6501    6502    6487    6491    6492    6493    6491    6492    6493    6489
    6490    6494    6498    6499    6503    6504    6505    6506    6494    6494
    6492    6493    6495    6496    6497    6500    6501    6502    6507    6508
    6509    6493    6495    6496    6497    6495    6496    6497    6498    6499
    6503    6504    6505    6506    6510    6511    6512    6496    6497    6500
    6501    6502    6507    6508    6509    6513    6514    6515    6497    6500
    6501    6502    6500    6501    6502    6499    6503    6504    6505    6506
    6510    6511    6516    6503    6504    6505    6506    6510    6512    6516
    6501    6502    6507    6508    6509    6513    6514    6515    6517    6518
    6519    6502    6507    6508    6509    6507    6508    6509    6504    6505
    6510    6511    6512    6516    6510    6511    6506    6510    6511    6512
    6516    6510    6512    6508    6509    6513    6514    6515    6517    6518
    6519    6520    6521    6522    6509    6513    6514    6515    6513    6514
    6515    6511    6512    6516    6516    6516    6514    6515    6517    6518
    6519    6520    6521    6522    6523    6524    6525    6515    6517    6518
    6519    6517    6518    6519       0    6518    6519    6520    6521    6522
    6519    6520    6521    6522    6520    6521    6522    6523    6524    6525
    6526    6527    6528    6521    6522    6523    6524    6525    6526    6527
    6528    6522    6523    6524    6525    6523    6524    6525    6524    6525
    6526    6527    6528    6525    6526    6527    6528    6526    6527    6528
    6527    6528    6528       0    6530    6531    6532    6533    6534    6535
    6536    6537    6538    6539    6540    6541    6531    6532    6533    6534
    6535    6536    6537    6538    6539    6542    6543    6544    6532    6533
    6534    6535    6536    6539    6540    6541    6542    6544    6545    6533
    6534    6535    6536    6539    6540    6541    6545    6546    6547    6534
    6537    6538    6539    6542    6543    6548    6549    6550    6551    6535
    6536    6537    6538    6539    6540    6542    6544    6548    6536    6539
    6540    6541    6545    6552    6553    6540    6541    6545    6546    6547
    6552    6553    6554    6538    6539    6542    6543    6544    6548    6549
    6550    6551    6555    6556    6557    6542    6543    6542    6543    6544
    6548    6541    6545    6546    6547    6552    6553    6558    6545    6546
    6547    6552    6554    6558    6543    6544    6548    6549    6550    6551
    6548    6549    6550    6551    6555    6556    6557    6559    6560    6561
    6548    6546    6552    6553    6554    6558    6562    6563    6547    6552
    6553    6554    6558    6562    6563    6552    6554       0    6550    6551
    6555    6556    6557    6559    6560    6561    6564    6565    6566    6551
    6555    6556    6557    6555    6556    6557    6553    6554    6558    6562
    6563    6567    6568    6569    6570    6558    6558    6556    6557    6559
    6560    6561    6564    6565    6566    6571    6572    6573    6557    6559
    6560    6561    6559    6560    6561    6562    6563    6567    6568    6569
    6570    6574    6575    6576    6560    6561    6564    6565    6566    6571
    6572    6573    6577    6578    6579    6561    6564    6565    6566    6564
    6565    6566    6563    6567    6568    6569    6570    6574    6575    6580
    6567    6568    6569    6570    6574    6576    6580    6565    6566    6571
    6572    6573    6577    6578    6579    6581    6582    6583    6566    6571
    6572    6573    6571    6572    6573    6568    6569    6574    6575    6576
    6580    6574    6575    6570    6574    6575    6576    6580    6574    6576
    6572    6573    6577    6578    6579    6581    6582    6583    6584    6585
    6586    6573    6577    6578    6579    6577    6578    6579    6575    6576
    6580    6580    6580    6578    6579    6581    6582    6583    6584    6585
    6586    6587    6588    6589    6579    6581    6582    6583    6581    6582
    6583       0    6582    6583    6584    6585    6586    6583    6584    6585
    6586    6584    6585    6586    6587    6588    6589    6590    6591    6592
    6585    6586    6587    6588    6589    6590    6591    6592    6586    6587
    6588    6589    6587    6588    6589    6588    6589    6590    6591    6592
    6589    6590    6591    6592    6590    6591    6592    6591    6592    6592
       0    6594    6595    6596    6597    6598    6599    6600    6601    6602
    6603    6604    6605    6595    6596    6597    6598    6599    6600    6601
    6602    6603    6606    6607    6608    6596    6597    6598    6599    6600
    6603    6604    6605    6606    6608    6609    6597    6598    6599    6600
    6603    6604    6605    6609    6610    6611    6598    6601    6602    6603
    6606    6607    6612    6613    6614    6615    6599    6600    6601    6602
    6603    6604    6606    6608    6612    6600    6603    6604    6605    6609
    6616    6617    6604    6605    6609    6610    6611    6616    6617    6618
    6602    6603    6606    6607    6608    6612    6613    6614    6615    6619
    6620    6621    6606    6607    6606    6607    6608    6612    6605    6609
    6610    6611    6616    6617    6622    6609    6610    6611    6616    6618
    6622    6607    6608    6612    6613    6614    6615    6612    6613    6614
    6615    6619    6620    6621    6623    6624    6625    6612    6610    6616
    6617    6618    6622    6626    6627    6611    6616    6617    6618    6622
    6626    6627    6616    6618       0    6614    6615    6619    6620    6621
    6623    6624    6625    6628    6629    6630    6615    6619    6620    6621
    6619    6620    6621    6617    6618    6622    6626    6627    6631    6632
    6633    6634    6622    6622    6620    6621    6623    6624    6625    6628
    6629    6630    6635    6636    6637    6621    6623    6624    6625    6623
    6624    6625    6626    6627    6631    6632    6633    6634    6638    6639
    6640    6624    6625    6628    6629    6630    6635    6636    6637    6641
    6642    6643    6625    6628    6629    6630    6628    6629    6630    6627
    6631    6632    6633    6634    6638    6639    6644    6631    6632    6633
    6634    6638    6640    6644    6629    6630    6635    6636    6637    6641
    6642    6643    6645    6646    6647    6630    6635    6636    6637    6635
    6636    6637    6632    6633    6638    6639    6640    6644    6638    6639
    6634    6638    6639    6640    6644    6638    6640    6636    6637    6641
    6642    6643    6645    6646    6647    6648    6649    6650    6637    6641
    6642    6643    6641    6642    6643    6639    6640    6644    6644    6644
    6642    6643    6645    6646    6647    6648    6649    6650    6651    6652
    6653    6643    6645    6646    6647    6645    6646    6647       0    6646
    6647    6648    6649    6650    6647    6648    6649    6650    6648    6649
    6650    6651    6652    6653    6654    6655    6656    6649    6650    6651
    6652    6653    6654    6655    6656    6650    6651    6652    6653    6651
    6652    6653    6652    6653    6654    6655    6656    6653    6654    6655
    6656    6654    6655    6656    6655    6656    6656       0    6658    6659
    6660    6661    6662    6663    6664    6665    6666    6667    6668    6669
    6659    6660    6661    6662    6663    6664    6665    6666    6667    6670
    6671    6672    6660    6661    6662    6663    6664    6667    6668    6669
    6670    6672    6673    6661    6662    6663    6664    6667    6668    6669
    6673    6674    6675    6662    6665    6666    6667    6670    6671    6676
    6677    6678    6679    6663    6664    6665    6666    6667    6668    6670
    6672    6676    6664    6667    6668    6669    6673    6680    6681    6668
    6669    6673    6674    6675    6680    6681    6682    6666    6667    6670
    6671    6672    6676    6677    6678    6679    6683    6684    6685    6670
    6671    6670    6671    6672    6676    6669    6673    6674    6675    6680
    6681    6686    6673    6674    6675    6680    6682    6686    6671    6672
    6676    6677    6678    6679    6676    6677    6678    6679    6683    6684
    6685    6687    6688    6689    6676    6674    6680    6681    6682    6686
    6690    6691    6675    6680    6681    6682    6686    6690    6691    6680
    6682       0    6678    6679    6683    6684    6685    6687    6688    6689
    6692    6693    6694    6679    6683    6684    6685    6683    6684    6685
    6681    6682    6686    6690    6691    6695    6696    6697    6698    6686
    6686    6684    6685    6687    6688    6689    6692    6693    6694    6699
    6700    6701    6685    6687    6688    6689    6687    6688    6689    6690
    6691    6695    6696    6697    6698    6702    6703    6704    6688    6689
    6692    6693    6694    6699    6700    6701    6705    6706    6707    6689
    6692    6693    6694    6692    6693    6694    6691    6695    6696    6697
    6698    6702    6703    6708    6695    6696    6697    6698    6702    6704
    6708    6693    6694    6699    6700    6701    6705    6706    6707    6709
    6710    6711    6694    6699    6700    6701    6699    6700    6701    6696
    6697    6702    6703    6704    6708    6702    6703    6698    6702    6703
    6704    6708    6702    6704    6700    6701    6705    6706    6707    6709
    6710    6711    6712    6713    6714    6701    6705    6706    6707    6705
    6706    6707    6703    6704    6708    6708    6708    6706    6707    6709
    6710    6711    6712    6713    6714    6715    6716    6717    6707    6709
    6710    6711    6709    6710    6711       0    6710    6711    6712    6713
    6714    6711    6712    6713    6714    6712    6713    6714    6715    6716
    6717    6718    6719    6720    6713    6714    6715    6716    6717    6718
    6719    6720    6714    6715    6716    6717    6715    6716    6717    6716
    6717    6718    6719    6720    6717    6718    6719    6720    6718    6719
    6720    6719    6720    6720       0    6722    6723    6724    6725    6726
    6727    6728    6729    6730    6731    6732    6733    6723    6724    6725
    6726    6727    6728    6729    6730    6731    6734    6735    6736    6724
    6725    6726    6727    6728    6731    6732    6733    6734    6736    6737
    6725    6726    6727    6728    6731    6732    6733    6737    6738    6739
    6726    6729    6730    6731    6734    6735    6740    6741    6742    6743
    6727    6728    6729    6730    6731    6732    6734    6736    6740    6728
    6731    6732    6733    6737    6744    6745    6732    6733    6737    6738
    6739    6744    6745    6746    6730    6731    6734    6735    6736    6740
    6741    6742    6743    6747    6748    6749    6734    6735    6734    6735
    6736    6740    6733    6737    6738    6739    6744    6745    6750    6737
    6738    6739    6744    6746    6750    6735    6736    6740    6741    6742
    6743    6740    6741    6742    6743    6747    6748    6749    6751    6752
    6753    6740    6738    6744    6745    6746    6750    6754    6755    6739
    6744    6745    6746    6750    6754    6755    6744    6746       0    6742
    6743    6747    6748    6749    6751    6752    6753    6756    6757    6758
    6743    6747    6748    6749    6747    6748    6749    6745    6746    6750
    6754    6755    6759    6760    6761    6762    6750    6750    6748    6749
    6751    6752    6753    6756    6757    6758    6763    6764    6765    6749
    6751    6752    6753    6751    6752    6753    6754    6755    6759    6760
    6761    6762    6766    6767    6768    6752    6753    6756    6757    6758
    6763    6764    6765    6769    6770    6771    6753    6756    6757    6758
    6756    6757    6758    6755    6759    6760    6761    6762    6766    6767
    6772    6759    6760    6761    6762    6766    6768    6772    6757    6758
    6763    6764    6765    6769    6770    6771    6773    6774    6775    6758
    6763    6764    6765    6763    6764    6765    6760    6761    6766    6767
    6768    6772    6766    6767    6762    6766    6767    6768    6772    6766
    6768    6764    6765    6769    6770    6771    6773    6774    6775    6776
    6777    6778    6765    6769    6770    6771    6769    6770    6771    6767
    6768    6772    6772    6772    6770    6771    6773    6774    6775    6776
    6777    6778    6779    6780    6781    6771    6773    6774    6775    6773
    6774    6775       0    6774    6775    6776    6777    6778    6775    6776
    6777    6778    6776    6777    6778    6779    6780    6781    6782    6783
    6784    6777    6778    6779    6780    6781    6782    6783    6784    6778
    6779    6780    6781    6779    6780    6781    6780    6781    6782    6783
    6784    6781    6782    6783    6784    6782    6783    6784    6783    6784
    6784       0    6786    6787    6788    6789    6790    6791    6792    6793
    6794    6795    6796    6797    6787    6788    6789    6790    6791    6792
    6793    6794    6795    6798    6799    6800    6788    6789    6790    6791
    6792    6795    6796    6797    6798    6800    6801    6789    6790    6791
    6792    6795    6796    6797    6801    6802    6803    6790    6793    6794
    6795    6798    6799    6804    6805    6806    6807    6791    6792    6793
    6794    6795    6796    6798    6800    6804    6792    6795    6796    6797
    6801    6808    6809    6796    6797    6801    6802    6803    6808    6809
    6810    6794    6795    6798    6799    6800    6804    6805    6806    6807
    6811    6812    6813    6798    6799    6798    6799    6800    6804    6797
    6801    6802    6803    6808    6809    6814    6801    6802    6803    6808
    6810    6814    6799    6800    6804    6805    6806    6807    6804    6805
    6806    6807    6811    6812    6813    6815    6816    6817    6804    6802
    6808    6809    6810    6814    6818    6819    6803    6808    6809    6810
    6814    6818    6819    6808    6810       0    6806    6807    6811    6812
    6813    6815    6816    6817    6820    6821    6822    6807    6811    6812
    6813    6811    6812    6813    6809    6810    6814    6818    6819    6823
    6824    6825    6826    6814    6814    6812    6813    6815    6816    6817
    6820    6821    6822    6827    6828    6829    6813    6815    6816    6817
    6815    6816    6817    6818    6819    6823    6824    6825    6826    6830
    6831    6832    6816    6817    6820    6821    6822    6827    6828    6829
    6833    6834    6835    6817    6820    6821    6822    6820    6821    6822
    6819    6823    6824    6825    6826    6830    6831    6836    6823    6824
    6825    6826    6830    6832    6836    6821    6822    6827    6828    6829
    6833    6834    6835    6837    6838    6839    6822    6827    6828    6829
    6827    6828    6829    6824    6825    6830    6831    6832    6836    6830
    6831    6826    6830    6831    6832    6836    6830    6832    6828    6829
    6833    6834    6835    6837    6838    6839    6840    6841    6842    6829
    6833    6834    6835    6833    6834    6835    6831    6832    6836    6836
    6836    6834    6835    6837    6838    6839    6840    6841    6842    6843
    6844    6845    6835    6837    6838    6839    6837    6838    6839       0
    6838    6839    6840    6841    6842    6839    6840    6841    6842    6840
    6841    6842    6843    6844    6845    6846    6847    6848    6841    6842
    6843    6844    6845    6846    6847    6848    6842    6843    6844    6845
    6843    6844    6845    6844    6845    6846    6847    6848    6845    6846
    6847    6848    6846    6847    6848    6847    6848    6848       0    6850
    6851    6852    6853    6854    6855    6856    6857    6858    6859    6860
    6861    6851    6852    6853    6854    6855    6856    6857    6858    6859
    6862    6863    6864    6852    6853    6854    6855    6856    6859    6860
    6861    6862    6864    6865    6853    6854    6855    6856    6859    6860
    6861    6865    6866    6867    6854    6857    6858    6859    6862    6863
    6868    6869    6870    6871    6855    6856    6857    6858    6859    6860
    6862    6864    6868    6856    6859    6860    6861    6865    6872    6873
    6860    6861    6865    6866    6867    6872    6873    6874    6858    6859
    6862    6863    6864    6868    6869    6870    6871    6875    6876    6877
    6862    6863    6862    6863    6864    6868    6861    6865    6866    6867
    6872    6873    6878    6865    6866    6867    6872    6874    6878    6863
    6864    6868    6869    6870    6871    6868    6869    6870    6871    6875
    6876    6877    6879    6880    6881    6868    6866    6872    6873    6874
    6878    6882    6883    6867    6872    6873    6874    6878    6882    6883
    6872    6874       0    6870    6871    6875    6876    6877    6879    6880
    6881    6884    6885    6886    6871    6875    6876    6877    6875    6876
    6877    6873    6874    6878    6882    6883    6887    6888    6889    6890
    6878    6878    6876    6877    6879    6880    6881    6884    6885    6886
    6891    6892    6893    6877    6879    6880    6881    6879    6880    6881
    6882    6883    6887    6888    6889    6890    6894    6895    6896    6880
    6881    6884    6885    6886    6891    6892    6893    6897    6898    6899
    6881    6884    6885    6886    6884    6885    6886    6883    6887    6888
    6889    6890    6894    6895    6900    6887    6888    6889    6890    6894
    6896    6900    6885    6886    6891    6892    6893    6897    6898    6899
    6901    6902    6903    6886    6891    6892    6893    6891    6892    6893
    6888    6889    6894    6895    6896    6900    6894    6895    6890    6894
    6895    6896    6900    6894    6896    6892    6893    6897    6898    6899
    6901    6902    6903    6904    6905    6906    6893    6897    6898    6899
    6897    6898    6899    6895    6896    6900    6900    6900    6898    6899
    6901    6902    6903    6904    6905    6906    6907    6908    6909    6899
    6901    6902    6903    6901    6902    6903       0    6902    6903    6904
    6905    6906    6903    6904    6905    6906    6904    6905    6906    6907
    6908    6909    6910    6911    6912    6905    6906    6907    6908    6909
    6910    6911    6912    6906    6907    6908    6909    6907    6908    6909
    6908    6909    6910    6911    6912    6909    6910    6911    6912    6910
    6911    6912    6911    6912    6912       0    6914    6915    6916    6917
    6918    6919    6920    6921    6922    6923    6924    6925    6915    6916
    6917    6918    6919    6920    6921    6922    6923    6926    6927    6928
    6916    6917    6918    6919    6920    6923    6924    6925    6926    6928
    6929    6917    6918    6919    6920    6923    6924    6925    6929    6930
    6931    6918    6921    6922    6923    6926    6927    6932    6933    6934
    6935    6919    6920    6921    6922    6923    6924    6926    6928    6932
    6920    6923    6924    6925    6929    6936    6937    6924    6925    6929
    6930    6931    6936    6937    6938    6922    6923    6926    6927    6928
    6932    6933    6934    6935    6939    6940    6941    6926    6927    6926
    6927    6928    6932    6925    6929    6930    6931    6936    6937    6942
    6929    6930    6931    6936    6938    6942    6927    6928    6932    6933
    6934    6935    6932    6933    6934    6935    6939    6940    6941    6943
    6944    6945    6932    6930    6936    6937    6938    6942    6946    6947
    6931    6936    6937    6938    6942    6946    6947    6936    6938       0
    6934    6935    6939    6940    6941    6943    6944    6945    6948    6949
    6950    6935    6939    6940    6941    6939    6940    6941    6937    6938
    6942    6946    6947    6951    6952    6953    6954    6942    6942    6940
    6941    6943    6944    6945    6948    6949    6950    6955    6956    6957
    6941    6943    6944    6945    6943    6944    6945    6946    6947    6951
    6952    6953    6954    6958    6959    6960    6944    6945    6948    6949
    6950    6955    6956    6957    6961    6962    6963    6945    6948    6949
    6950    6948    6949    6950    6947    6951    6952    6953    6954    6958
    6959    6964    6951    6952    6953    6954    6958    6960    6964    6949
    6950    6955    6956    6957    6961    6962    6963    6965    6966    6967
    6950    6955    6956    6957    6955    6956    6957    6952    6953    6958
    6959    6960    6964    6958    6959    6954    6958    6959    6960    6964
    6958    6960    6956    6957    6961    6962    6963    6965    6966    6967
    6968    6969    6970    6957    6961    6962    6963    6961    6962    6963
    6959    6960    6964    6964    6964    6962    6963    6965    6966    6967
    6968    6969    6970    6971    6972    6973    6963    6965    6966    6967
    6965    6966    6967       0    6966    6967    6968    6969    6970    6967
    6968    6969    6970    6968    6969    6970    6971    6972    6973    6974
    6975    6976    6969    6970    6971    6972    6973    6974    6975    6976
    6970    6971    6972    6973    6971    6972    6973    6972    6973    6974
    6975    6976    6973    6974    6975    6976    6974    6975    6976    6975
    6976    6976       0    6978    6979    6980    6981    6982    6983    6984
    6985    6986    6987    6988    6989    6979    6980    6981    6982    6983
    6984    6985    6986    6987    6990    6991    6992    6980    6981    6982
    6983    6984    6987    6988    6989    6990    6992    6993    6981    6982
    6983    6984    6987    6988    6989    6993    6994    6995    6982    6985
    6986    6987    6990    6991    6996    6997    6998    6999    6983    6984
    6985    6986    6987    6988    6990    6992    6996    6984    6987    6988
    6989    6993    7000    7001    6988    6989    6993    6994    6995    7000
    7001    7002    6986    6987    6990    6991    6992    6996    6997    6998
    6999    7003    7004    7005    6990    6991    6990    6991    6992    6996
    6989    6993    6994    6995    7000    7001    7006    6993    6994    6995
    7000    7002    7006    6991    6992    6996    6997    6998    6999    6996
    6997    6998    6999    7003    7004    7005    7007    7008    7009    6996
    6994    7000    7001    7002    7006    7010    7011    6995    7000    7001
    7002    7006    7010    7011    7000    7002       0    6998    6999    7003
    7004    7005    7007    7008    7009    7012    7013    7014    6999    7003
    7004    7005    7003    7004    7005    7001    7002    7006    7010    7011
    7015    7016    7017    7018    7006    7006    7004    7005    7007    7008
    7009    7012    7013    7014    7019    7020    7021    7005    7007    7008
    7009    7007    7008    7009    7010    7011    7015    7016    7017    7018
    7022    7023    7024    7008    7009    7012    7013    7014    7019    7020
    7021    7025    7026    7027    7009    7012    7013    7014    7012    7013
    7014    7011    7015    7016    7017    7018    7022    7023    7028    7015
    7016    7017    7018    7022    7024    7028    7013    7014    7019    7020
    7021    7025    7026    7027    7029    7030    7031    7014    7019    7020
    7021    7019    7020    7021    7016    7017    7022    7023    7024    7028
    7022    7023    7018    7022    7023    7024    7028    7022    7024    7020
    7021    7025    7026    7027    7029    7030    7031    7032    7033    7034
    7021    7025    7026    7027    7025    7026    7027    7023    7024    7028
    7028    7028    7026    7027    7029    7030    7031    7032    7033    7034
    7035    7036    7037    7027    7029    7030    7031    7029    7030    7031
       0    7030    7031    7032    7033    7034    7031    7032    7033    7034
    7032    7033    7034    7035    7036    7037    7038    7039    7040    7033
    7034    7035    7036    7037    7038    7039    7040    7034    7035    7036
    7037    7035    7036    7037    7036    7037    7038    7039    7040    7037
    7038    7039    7040    7038    7039    7040    7039    7040    7040       0
    7042    7043    7044    7045    7046    7047    7048    7049    7050    7051
    7052    7053    7043    7044    7045    7046    7047    7048    7049    7050
    7051    7054    7055    7056    7044    7045    7046    7047    7048    7051
    7052    7053    7054    7056    7057    7045    7046    7047    7048    7051
    7052    7053    7057    7058    7059    7046    7049    7050    7051    7054
    7055    7060    7061    7062    7063    7047    7048    7049    7050    7051
    7052    7054    7056    7060    7048    7051    7052    7053    7057    7064
    7065    7052    7053    7057    7058    7059    7064    7065    7066    7050
    7051    7054    7055    7056    7060    7061    7062    7063    7067    7068
    7069    7054    7055    7054    7055    7056    7060    7053    7057    7058
    7059    7064    7065    7070    7057    7058    7059    7064    7066    7070
    7055    7056    7060    7061    7062    7063    7060    7061    7062    7063
    7067    7068    7069    7071    7072    7073    7060    7058    7064    7065
    7066    7070    7074    7075    7059    7064    7065    7066    7070    7074
    7075    7064    7066       0    7062    7063    7067    7068    7069    7071
    7072    7073    7076    7077    7078    7063    7067    7068    7069    7067
    7068    7069    7065    7066    7070    7074    7075    7079    7080    7081
    7082    7070    7070    7068    7069    7071    7072    7073    7076    7077
    7078    7083    7084    7085    7069    7071    7072    7073    7071    7072
    7073    7074    7075    7079    7080    7081    7082    7086    7087    7088
    7072    7073    7076    7077    7078    7083    7084    7085    7089    7090
    7091    7073    7076    7077    7078    7076    7077    7078    7075    7079
    7080    7081    7082    7086    7087    7092    7079    7080    7081    7082
    7086    7088    7092    7077    7078    7083    7084    7085    7089    7090
    7091    7093    7094    7095    7078    7083    7084    7085    7083    7084
    7085    7080    7081    7086    7087    7088    7092    7086    7087    7082
    7086    7087    7088    7092    7086    7088    7084    7085    7089    7090
    7091    7093    7094    7095    7096    7097    7098    7085    7089    7090
    7091    7089    7090    7091    7087    7088    7092    7092    7092    7090
    7091    7093    7094    7095    7096    7097    7098    7099    7100    7101
    7091    7093    7094    7095    7093    7094    7095       0    7094    7095
    7096    7097    7098    7095    7096    7097    7098    7096    7097    7098
    7099    7100    7101    7102    7103    7104    7097    7098    7099    7100
    7101    7102    7103    7104    7098    7099    7100    7101    7099    7100
    7101    7100    7101    7102    7103    7104    7101    7102    7103    7104
    7102    7103    7104    7103    7104    7104       0    7106    7107    7108
    7109    7110    7111    7112    7113    7114    7115    7116    7117    7107
    7108    7109    7110    7111    7112    7113    7114    7115    7118    7119
    7120    7108    7109    7110    7111    7112    7115    7116    7117    7118
    7120    7121    7109    7110    7111    7112    7115    7116    7117    7121
    7122    7123    7110    7113    7114    7115    7118    7119    7124    7125
    7126    7127    7111    7112    7113    7114    7115    7116    7118    7120
    7124    7112    7115    7116    7117    7121    7128    7129    7116    7117
    7121    7122    7123    7128    7129    7130    7114    7115    7118    7119
    7120    7124    7125    7126    7127    7131    7132    7133    7118    7119
    7118    7119    7120    7124    7117    7121    7122    7123    7128    7129
    7134    7121    7122    7123    7128    7130    7134    7119    7120    7124
    7125    7126    7127    7124    7125    7126    7127    7131    7132    7133
    7135    7136    7137    7124    7122    7128    7129    7130    7134    7138
    7139    7123    7128    7129    7130    7134    7138    7139    7128    7130
       0    7126    7127    7131    7132    7133    7135    7136    7137    7140
    7141    7142    7127    7131    7132    7133    7131    7132    7133    7129
    7130    7134    7138    7139    7143    7144    7145    7146    7134    7134
    7132    7133    7135    7136    7137    7140    7141    7142    7147    7148
    7149    7133    7135    7136    7137    7135    7136    7137    7138    7139
    7143    7144    7145    7146    7150    7151    7152    7136    7137    7140
    7141    7142    7147    7148    7149    7153    7154    7155    7137    7140
    7141    7142    7140    7141    7142    7139    7143    7144    7145    7146
    7150    7151    7156    7143    7144    7145    7146    7150    7152    7156
    7141    7142    7147    7148    7149    7153    7154    7155    7157    7158
    7159    7142    7147    7148    7149    7147    7148    7149    7144    7145
    7150    7151    7152    7156    7150    7151    7146    7150    7151    7152
    7156    7150    7152    7148    7149    7153    7154    7155    7157    7158
    7159    7160    7161    7162    7149    7153    7154    7155    7153    7154
    7155    7151    7152    7156    7156    7156    7154    7155    7157    7158
    7159    7160    7161    7162    7163    7164    7165    7155    7157    7158
    7159    7157    7158    7159       0    7158    7159    7160    7161    7162
    7159    7160    7161    7162    7160    7161    7162    7163    7164    7165
    7166    7167    7168    7161    7162    7163    7164    7165    7166    7167
    7168    7162    7163    7164    7165    7163    7164    7165    7164    7165
    7166    7167    7168    7165    7166    7167    7168    7166    7167    7168
    7167    7168    7168       0    7170    7171    7172    7173    7174    7175
    7176    7177    7178    7179    7180    7181    7171    7172    7173    7174
    7175    7176    7177    7178    7179    7182    7183    7184    7172    7173
    7174    7175    7176    7179    7180    7181    7182    7184    7185    7173
    7174    7175    7176    7179    7180    7181    7185    7186    7187    7174
    7177    7178    7179    7182    7183    7188    7189    7190    7191    7175
    7176    7177    7178    7179    7180    7182    7184    7188    7176    7179
    7180    7181    7185    7192    7193    7180    7181    7185    7186    7187
    7192    7193    7194    7178    7179    7182    7183    7184    7188    7189
    7190    7191    7195    7196    7197    7182    7183    7182    7183    7184
    7188    7181    7185    7186    7187    7192    7193    7198    7185    7186
    7187    7192    7194    7198    7183    7184    7188    7189    7190    7191
    7188    7189    7190    7191    7195    7196    7197    7199    7200    7201
    7188    7186    7192    7193    7194    7198    7202    7203    7187    7192
    7193    7194    7198    7202    7203    7192    7194       0    7190    7191
    7195    7196    7197    7199    7200    7201    7204    7205    7206    7191
    7195    7196    7197    7195    7196    7197    7193    7194    7198    7202
    7203    7207    7208    7209    7210    7198    7198    7196    7197    7199
    7200    7201    7204    7205    7206    7211    7212    7213    7197    7199
    7200    7201    7199    7200    7201    7202    7203    7207    7208    7209
    7210    7214    7215    7216    7200    7201    7204    7205    7206    7211
    7212    7213    7217    7218    7219    7201    7204    7205    7206    7204
    7205    7206    7203    7207    7208    7209    7210    7214    7215    7220
    7207    7208    7209    7210    7214    7216    7220    7205    7206    7211
    7212    7213    7217    7218    7219    7221    7222    7223    7206    7211
    7212    7213    7211    7212    7213    7208    7209    7214    7215    7216
    7220    7214    7215    7210    7214    7215    7216    7220    7214    7216
    7212    7213    7217    7218    7219    7221    7222    7223    7224    7225
    7226    7213    7217    7218    7219    7217    7218    7219    7215    7216
    7220    7220    7220    7218    7219    7221    7222    7223    7224    7225
    7226    7227    7228    7229    7219    7221    7222    7223    7221    7222
    7223       0    7222    7223    7224    7225    7226    7223    7224    7225
    7226    7224    7225    7226    7227    7228    7229    7230    7231    7232
    7225    7226    7227    7228    7229    7230    7231    7232    7226    7227
    7228    7229    7227    7228    7229    7228    7229    7230    7231    7232
    7229    7230    7231    7232    7230    7231    7232    7231    7232    7232
       0    7234    7235    7236    7237    7238    7239    7240    7241    7242
    7243    7244    7245    7235    7236    7237    7238    7239    7240    7241
    7242    7243    7246    7247    7248    7236    7237    7238    7239    7240
    7243    7244    7245    7246    7248    7249    7237    7238    7239    7240
    7243    7244    7245    7249    7250    7251    7238    7241    7242    7243
    7246    7247    7252    7253    7254    7255    7239    7240    7241    7242
    7243    7244    7246    7248    7252    7240    7243    7244    7245    7249
    7256    7257    7244    7245    7249    7250    7251    7256    7257    7258
    7242    7243    7246    7247    7248    7252    7253    7254    7255    7259
    7260    7261    7246    7247    7246    7247    7248    7252    7245    7249
    7250    7251    7256    7257    7262    7249    7250    7251    7256    7258
    7262    7247    7248    7252    7253    7254    7255    7252    7253    7254
    7255    7259    7260    7261    7263    7264    7265    7252    7250    7256
    7257    7258    7262    7266    7267    7251    7256    7257    7258    7262
    7266    7267    7256    7258       0    7254    7255    7259    7260    7261
    7263    7264    7265    7268    7269    7270    7255    7259    7260    7261
    7259    7260    7261    7257    7258    7262    7266    7267    7271    7272
    7273    7274    7262    7262    7260    7261    7263    7264    7265    7268
    7269    7270    7275    7276    7277    7261    7263    7264    7265    7263
    7264    7265    7266    7267    7271    7272    7273    7274    7278    7279
    7280    7264    7265    7268    7269    7270    7275    7276    7277    7281
    7282    7283    7265    7268    7269    7270    7268    7269    7270    7267
    7271    7272    7273    7274    7278    7279    7284    7271    7272    7273
    7274    7278    7280    7284    7269    7270    7275    7276    7277    7281
    7282    7283    7285    7286    7287    7270    7275    7276    7277    7275
    7276    7277    7272    7273    7278    7279    7280    7284    7278    7279
    7274    7278    7279    7280    7284    7278    7280    7276    7277    7281
    7282    7283    7285    7286    7287    7288    7289    7290    7277    7281
    7282    7283    7281    7282    7283    7279    7280    7284    7284    7284
    7282    7283    7285    7286    7287    7288    7289    7290    7291    7292
    7293    7283    7285    7286    7287    7285    7286    7287       0    7286
    7287    7288    7289    7290    7287    7288    7289    7290    7288    7289
    7290    7291    7292    7293    7294    7295    7296    7289    7290    7291
    7292    7293    7294    7295    7296    7290    7291    7292    7293    7291
    7292    7293    7292    7293    7294    7295    7296    7293    7294    7295
    7296    7294    7295    7296    7295    7296    7296       0    7298    7299
    7300    7301    7302    7303    7304    7305    7306    7307    7308    7309
    7299    7300    7301    7302    7303    7304    7305    7306    7307    7310
    7311    7312    7300    7301    7302    7303    7304    7307    7308    7309
    7310    7312    7313    7301    7302    7303    7304    7307    7308    7309
    7313    7314    7315    7302    7305    7306    7307    7310    7311    7316
    7317    7318    7319    7303    7304    7305    7306    7307    7308    7310
    7312    7316    7304    7307    7308    7309    7313    7320    7321    7308
    7309    7313    7314    7315    7320    7321    7322    7306    7307    7310
    7311    7312    7316    7317    7318    7319    7323    7324    7325    7310
    7311    7310    7311    7312    7316    7309    7313    7314    7315    7320
    7321    7326    7313    7314    7315    7320    7322    7326    7311    7312
    7316    7317    7318    7319    7316    7317    7318    7319    7323    7324
    7325    7327    7328    7329    7316    7314    7320    7321    7322    7326
    7330    7331    7315    7320    7321    7322    7326    7330    7331    7320
    7322       0    7318    7319    7323    7324    7325    7327    7328    7329
    7332    7333    7334    7319    7323    7324    7325    7323    7324    7325
    7321    7322    7326    7330    7331    7335    7336    7337    7338    7326
    7326    7324    7325    7327    7328    7329    7332    7333    7334    7339
    7340    7341    7325    7327    7328    7329    7327    7328    7329    7330
    7331    7335    7336    7337    7338    7342    7343    7344    7328    7329
    7332    7333    7334    7339    7340    7341    7345    7346    7347    7329
    7332    7333    7334    7332    7333    7334    7331    7335    7336    7337
    7338    7342    7343    7348    7335    7336    7337    7338    7342    7344
    7348    7333    7334    7339    7340    7341    7345    7346    7347    7349
    7350    7351    7334    7339    7340    7341    7339    7340    7341    7336
    7337    7342    7343    7344    7348    7342    7343    7338    7342    7343
    7344    7348    7342    7344    7340    7341    7345    7346    7347    7349
    7350    7351    7352    7353    7354    7341    7345    7346    7347    7345
    7346    7347    7343    7344    7348    7348    7348    7346    7347    7349
    7350    7351    7352    7353    7354    7355    7356    7357    7347    7349
    7350    7351    7349    7350    7351       0    7350    7351    7352    7353
    7354    7351    7352    7353    7354    7352    7353    7354    7355    7356
    7357    7358    7359    7360    7353    7354    7355    7356    7357    7358
    7359    7360    7354    7355    7356    7357    7355    7356    7357    7356
    7357    7358    7359    7360    7357    7358    7359    7360    7358    7359
    7360    7359    7360    7360       0    7362    7363    7364    7365    7366
    7367    7368    7369    7370    7371    7372    7373    7363    7364    7365
    7366    7367    7368    7369    7370    7371    7374    7375    7376    7364
    7365    7366    7367    7368    7371    7372    7373    7374    7376    7377
    7365    7366    7367    7368    7371    7372    7373    7377    7378    7379
    7366    7369    7370    7371    7374    7375    7380    7381    7382    7383
    7367    7368    7369    7370    7371    7372    7374    7376    7380    7368
    7371    7372    7373    7377    7384    7385    7372    7373    7377    7378
    7379    7384    7385    7386    7370    7371    7374    7375    7376    7380
    7381    7382    7383    7387    7388    7389    7374    7375    7374    7375
    7376    7380    7373    7377    7378    7379    7384    7385    7390    7377
    7378    7379    7384    7386    7390    7375    7376    7380    7381    7382
    7383    7380    7381    7382    7383    7387    7388    7389    7391    7392
    7393    7380    7378    7384    7385    7386    7390    7394    7395    7379
    7384    7385    7386    7390    7394    7395    7384    7386       0    7382
    7383    7387    7388    7389    7391    7392    7393    7396    7397    7398
    7383    7387    7388    7389    7387    7388    7389    7385    7386    7390
    7394    7395    7399    7400    7401    7402    7390    7390    7388    7389
    7391    7392    7393    7396    7397    7398    7403    7404    7405    7389
    7391    7392    7393    7391    7392    7393    7394    7395    7399    7400
    7401    7402    7406    7407    7408    7392    7393    7396    7397    7398
    7403    7404    7405    7409    7410    7411    7393    7396    7397    7398
    7396    7397    7398    7395    7399    7400    7401    7402    7406    7407
    7412    7399    7400    7401    7402    7406    7408    7412    7397    7398
    7403    7404    7405    7409    7410    7411    7413    7414    7415    7398
    7403    7404    7405    7403    7404    7405    7400    7401    7406    7407
    7408    7412    7406    7407    7402    7406    7407    7408    7412    7406
    7408    7404    7405    7409    7410    7411    7413    7414    7415    7416
    7417    7418    7405    7409    7410    7411    7409    7410    7411    7407
    7408    7412    7412    7412    7410    7411    7413    7414    7415    7416
    7417    7418    7419    7420    7421    7411    7413    7414    7415    7413
    7414    7415       0    7414    7415    7416    7417    7418    7415    7416
    7417    7418    7416    7417    7418    7419    7420    7421    7422    7423
    7424    7417    7418    7419    7420    7421    7422    7423    7424    7418
    7419    7420    7421    7419    7420    7421    7420    7421    7422    7423
    7424    7421    7422    7423    7424    7422    7423    7424    7423    7424
    7424       0    7426    7427    7428    7429    7430    7431    7432    7433
    7434    7435    7436    7437    7427    7428    7429    7430    7431    7432
    7433    7434    7435    7438    7439    7440    7428    7429    7430    7431
    7432    7435    7436    7437    7438    7440    7441    7429    7430    7431
    7432    7435    7436    7437    7441    7442    7443    7430    7433    7434
    7435    7438    7439    7444    7445    7446    7447    7431    7432    7433
    7434    7435    7436    7438    7440    7444    7432    7435    7436    7437
    7441    7448    7449    7436    7437    7441    7442    7443    7448    7449
    7450    7434    7435    7438    7439    7440    7444    7445    7446    7447
    7451    7452    7453    7438    7439    7438    7439    7440    7444    7437
    7441    7442    7443    7448    7449    7454    7441    7442    7443    7448
    7450    7454    7439    7440    7444    7445    7446    7447    7444    7445
    7446    7447    7451    7452    7453    7455    7456    7457    7444    7442
    7448    7449    7450    7454    7458    7459    7443    7448    7449    7450
    7454    7458    7459    7448    7450       0    7446    7447    7451    7452
    7453    7455    7456    7457    7460    7461    7462    7447    7451    7452
    7453    7451    7452    7453    7449    7450    7454    7458    7459    7463
    7464    7465    7466    7454    7454    7452    7453    7455    7456    7457
    7460    7461    7462    7467    7468    7469    7453    7455    7456    7457
    7455    7456    7457    7458    7459    7463    7464    7465    7466    7470
    7471    7472    7456    7457    7460    7461    7462    7467    7468    7469
    7473    7474    7475    7457    7460    7461    7462    7460    7461    7462
    7459    7463    7464    7465    7466    7470    7471    7476    7463    7464
    7465    7466    7470    7472    7476    7461    7462    7467    7468    7469
    7473    7474    7475    7477    7478    7479    7462    7467    7468    7469
    7467    7468    7469    7464    7465    7470    7471    7472    7476    7470
    7471    7466    7470    7471    7472    7476    7470    7472    7468    7469
    7473    7474    7475    7477    7478    7479    7480    7481    7482    7469
    7473    7474    7475    7473    7474    7475    7471    7472    7476    7476
    7476    7474    7475    7477    7478    7479    7480    7481    7482    7483
    7484    7485    7475    7477    7478    7479    7477    7478    7479       0
    7478    7479    7480    7481    7482    7479    7480    7481    7482    7480
    7481    7482    7483    7484    7485    7486    7487    7488    7481    7482
    7483    7484    7485    7486    7487    7488    7482    7483    7484    7485
    7483    7484    7485    7484    7485    7486    7487    7488    7485    7486
    7487    7488    7486    7487    7488    7487    7488    7488       0    7490
    7491    7492    7493    7494    7495    7496    7497    7498    7499    7500
    7501    7491    7492    7493    7494    7495    7496    7497    7498    7499
    7502    7503    7504    7492    7493    7494    7495    7496    7499    7500
    7501    7502    7504    7505    7493    7494    7495    7496    7499    7500
    7501    7505    7506    7507    7494    7497    7498    7499    7502    7503
    7508    7509    7510    7511    7495    7496    7497    7498    7499    7500
    7502    7504    7508    7496    7499    7500    7501    7505    7512    7513
    7500    7501    7505    7506    7507    7512    7513    7514    7498    7499
    7502    7503    7504    7508    7509    7510    7511    7515    7516    7517
    7502    7503    7502    7503    7504    7508    7501    7505    7506    7507
    7512    7513    7518    7505    7506    7507    7512    7514    7518    7503
    7504    7508    7509    7510    7511    7508    7509    7510    7511    7515
    7516    7517    7519    7520    7521    7508    7506    7512    7513    7514
    7518    7522    7523    7507    7512    7513    7514    7518    7522    7523
    7512    7514       0    7510    7511    7515    7516    7517    7519    7520
    7521    7524    7525    7526    7511    7515    7516    7517    7515    7516
    7517    7513    7514    7518    7522    7523    7527    7528    7529    7530
    7518    7518    7516    7517    7519    7520    7521    7524    7525    7526
    7531    7532    7533    7517    7519    7520    7521    7519    7520    7521
    7522    7523    7527    7528    7529    7530    7534    7535    7536    7520
    7521    7524    7525    7526    7531    7532    7533    7537    7538    7539
    7521    7524    7525    7526    7524    7525    7526    7523    7527    7528
    7529    7530    7534    7535    7540    7527    7528    7529    7530    7534
    7536    7540    7525    7526    7531    7532    7533    7537    7538    7539
    7541    7542    7543    7526    7531    7532    7533    7531    7532    7533
    7528    7529    7534    7535    7536    7540    7534    7535    7530    7534
    7535    7536    7540    7534    7536    7532    7533    7537    7538    7539
    7541    7542    7543    7544    7545    7546    7533    7537    7538    7539
    7537    7538    7539    7535    7536    7540    7540    7540    7538    7539
    7541    7542    7543    7544    7545    7546    7547    7548    7549    7539
    7541    7542    7543    7541    7542    7543       0    7542    7543    7544
    7545    7546    7543    7544    7545    7546    7544    7545    7546    7547
    7548    7549    7550    7551    7552    7545    7546    7547    7548    7549
    7550    7551    7552    7546    7547    7548    7549    7547    7548    7549
    7548    7549    7550    7551    7552    7549    7550    7551    7552    7550
    7551    7552    7551    7552    7552       0    7554    7555    7556    7557
    7558    7559    7560    7561    7562    7563    7564    7565    7555    7556
    7557    7558    7559    7560    7561    7562    7563    7566    7567    7568
    7556    7557    7558    7559    7560    7563    7564    7565    7566    7568
    7569    7557    7558    7559    7560    7563    7564    7565    7569    7570
    7571    7558    7561    7562    7563    7566    7567    7572    7573    7574
    7575    7559    7560    7561    7562    7563    7564    7566    7568    7572
    7560    7563    7564    7565    7569    7576    7577    7564    7565    7569
    7570    7571    7576    7577    7578    7562    7563    7566    7567    7568
    7572    7573    7574    7575    7579    7580    7581    7566    7567    7566
    7567    7568    7572    7565    7569    7570    7571    7576    7577    7582
    7569    7570    7571    7576    7578    7582    7567    7568    7572    7573
    7574    7575    7572    7573    7574    7575    7579    7580    7581    7583
    7584    7585    7572    7570    7576    7577    7578    7582    7586    7587
    7571    7576    7577    7578    7582    7586    7587    7576    7578       0
    7574    7575    7579    7580    7581    7583    7584    7585    7588    7589
    7590    7575    7579    7580    7581    7579    7580    7581    7577    7578
    7582    7586    7587    7591    7592    7593    7594    7582    7582    7580
    7581    7583    7584    7585    7588    7589    7590    7595    7596    7597
    7581    7583    7584    7585    7583    7584    7585    7586    7587    7591
    7592    7593    7594    7598    7599    7600    7584    7585    7588    7589
    7590    7595    7596    7597    7601    7602    7603    7585    7588    7589
    7590    7588    7589    7590    7587    7591    7592    7593    7594    7598
    7599    7604    7591    7592    7593    7594    7598    7600    7604    7589
    7590    7595    7596    7597    7601    7602    7603    7605    7606    7607
    7590    7595    7596    7597    7595    7596    7597    7592    7593    7598
    7599    7600    7604    7598    7599    7594    7598    7599    7600    7604
    7598    7600    7596    7597    7601    7602    7603    7605    7606    7607
    7608    7609    7610    7597    7601    7602    7603    7601    7602    7603
    7599    7600    7604    7604    7604    7602    7603    7605    7606    7607
    7608    7609    7610    7611    7612    7613    7603    7605    7606    7607
    7605    7606    7607       0    7606    7607    7608    7609    7610    7607
    7608    7609    7610    7608    7609    7610    7611    7612    7613    7614
    7615    7616    7609    7610    7611    7612    7613    7614    7615    7616
    7610    7611    7612    7613    7611    7612    7613    7612    7613    7614
    7615    7616    7613    7614    7615    7616    7614    7615    7616    7615
    7616    7616       0    7618    7619    7620    7621    7622    7623    7624
    7625    7626    7627    7628    7629    7619    7620    7621    7622    7623
    7624    7625    7626    7627    7630    7631    7632    7620    7621    7622
    7623    7624    7627    7628    7629    7630    7632    7633    7621    7622
    7623    7624    7627    7628    7629    7633    7634    7635    7622    7625
    7626    7627    7630    7631    7636    7637    7638    7639    7623    7624
    7625    7626    7627    7628    7630    7632    7636    7624    7627    7628
    7629    7633    7640    7641    7628    7629    7633    7634    7635    7640
    7641    7642    7626    7627    7630    7631    7632    7636    7637    7638
    7639    7643    7644    7645    7630    7631    7630    7631    7632    7636
    7629    7633    7634    7635    7640    7641    7646    7633    7634    7635
    7640    7642    7646    7631    7632    7636    7637    7638    7639    7636
    7637    7638    7639    7643    7644    7645    7647    7648    7649    7636
    7634    7640    7641    7642    7646    7650    7651    7635    7640    7641
    7642    7646    7650    7651    7640    7642       0    7638    7639    7643
    7644    7645    7647    7648    7649    7652    7653    7654    7639    7643
    7644    7645    7643    7644    7645    7641    7642    7646    7650    7651
    7655    7656    7657    7658    7646    7646    7644    7645    7647    7648
    7649    7652    7653    7654    7659    7660    7661    7645    7647    7648
    7649    7647    7648    7649    7650    7651    7655    7656    7657    7658
    7662    7663    7664    7648    7649    7652    7653    7654    7659    7660
    7661    7665    7666    7667    7649    7652    7653    7654    7652    7653
    7654    7651    7655    7656    7657    7658    7662    7663    7668    7655
    7656    7657    7658    7662    7664    7668    7653    7654    7659    7660
    7661    7665    7666    7667    7669    7670    7671    7654    7659    7660
    7661    7659    7660    7661    7656    7657    7662    7663    7664    7668
    7662    7663    7658    7662    7663    7664    7668    7662    7664    7660
    7661    7665    7666    7667    7669    7670    7671    7672    7673    7674
    7661    7665    7666    7667    7665    7666    7667    7663    7664    7668
    7668    7668    7666    7667    7669    7670    7671    7672    7673    7674
    7675    7676    7677    7667    7669    7670    7671    7669    7670    7671
       0    7670    7671    7672    7673    7674    7671    7672    7673    7674
    7672    7673    7674    7675    7676    7677    7678    7679    7680    7673
    7674    7675    7676    7677    7678    7679    7680    7674    7675    7676
    7677    7675    7676    7677    7676    7677    7678    7679    7680    7677
    7678    7679    7680    7678    7679    7680    7679    7680    7680       0
    7682    7683    7684    7685    7686    7687    7688    7689    7690    7691
    7692    7693    7683    7684    7685    7686    7687    7688    7689    7690
    7691    7694    7695    7696    7684    7685    7686    7687    7688    7691
    7692    7693    7694    7696    7697    7685    7686    7687    7688    7691
    7692    7693    7697    7698    7699    7686    7689    7690    7691    7694
    7695    7700    7701    7702    7703    7687    7688    7689    7690    7691
    7692    7694    7696    7700    7688    7691    7692    7693    7697    7704
    7705    7692    7693    7697    7698    7699    7704    7705    7706    7690
    7691    7694    7695    7696    7700    7701    7702    7703    7707    7708
    7709    7694    7695    7694    7695    7696    7700    7693    7697    7698
    7699    7704    7705    7710    7697    7698    7699    7704    7706    7710
    7695    7696    7700    7701    7702    7703    7700    7701    7702    7703
    7707    7708    7709    7711    7712    7713    7700    7698    7704    7705
    7706    7710    7714    7715    7699    7704    7705    7706    7710    7714
    7715    7704    7706       0    7702    7703    7707    7708    7709    7711
    7712    7713    7716    7717    7718    7703    7707    7708    7709    7707
    7708    7709    7705    7706    7710    7714    7715    7719    7720    7721
    7722    7710    7710    7708    7709    7711    7712    7713    7716    7717
    7718    7723    7724    7725    7709    7711    7712    7713    7711    7712
    7713    7714    7715    7719    7720    7721    7722    7726    7727    7728
    7712    7713    7716    7717    7718    7723    7724    7725    7729    7730
    7731    7713    7716    7717    7718    7716    7717    7718    7715    7719
    7720    7721    7722    7726    7727    7732    7719    7720    7721    7722
    7726    7728    7732    7717    7718    7723    7724    7725    7729    7730
    7731    7733    7734    7735    7718    7723    7724    7725    7723    7724
    7725    7720    7721    7726    7727    7728    7732    7726    7727    7722
    7726    7727    7728    7732    7726    7728    7724    7725    7729    7730
    7731    7733    7734    7735    7736    7737    7738    7725    7729    7730
    7731    7729    7730    7731    7727    7728    7732    7732    7732    7730
    7731    7733    7734    7735    7736    7737    7738    7739    7740    7741
    7731    7733    7734    7735    7733    7734    7735       0    7734    7735
    7736    7737    7738    7735    7736    7737    7738    7736    7737    7738
    7739    7740    7741    7742    7743    7744    7737    7738    7739    7740
    7741    7742    7743    7744    7738    7739    7740    7741    7739    7740
    7741    7740    7741    7742    7743    7744    7741    7742    7743    7744
    7742    7743    7744    7743    7744    7744       0    7746    7747    7748
    7749    7750    7751    7752    7753    7754    7755    7756    7757    7747
    7748    7749    7750    7751    7752    7753    7754    7755    7758    7759
    7760    7748    7749    7750    7751    7752    7755    7756    7757    7758
    7760    7761    7749    7750    7751    7752    7755    7756    7757    7761
    7762    7763    7750    7753    7754    7755    7758    7759    7764    7765
    7766    7767    7751    7752    7753    7754    7755    7756    7758    7760
    7764    7752    7755    7756    7757    7761    7768    7769    7756    7757
    7761    7762    7763    7768    7769    7770    7754    7755    7758    7759
    7760    7764    7765    7766    7767    7771    7772    7773    7758    7759
    7758    7759    7760    7764    7757    7761    7762    7763    7768    7769
    7774    7761    7762    7763    7768    7770    7774    7759    7760    7764
    7765    7766    7767    7764    7765    7766    7767    7771    7772    7773
    7775    7776    7777    7764    7762    7768    7769    7770    7774    7778
    7779    7763    7768    7769    7770    7774    7778    7779    7768    7770
       0    7766    7767    7771    7772    7773    7775    7776    7777    7780
    7781    7782    7767    7771    7772    7773    7771    7772    7773    7769
    7770    7774    7778    7779    7783    7784    7785    7786    7774    7774
    7772    7773    7775    7776    7777    7780    7781    7782    7787    7788
    7789    7773    7775    7776    7777    7775    7776    7777    7778    7779
    7783    7784    7785    7786    7790    7791    7792    7776    7777    7780
    7781    7782    7787    7788    7789    7793    7794    7795    7777    7780
    7781    7782    7780    7781    7782    7779    7783    7784    7785    7786
    7790    7791    7796    7783    7784    7785    7786    7790    7792    7796
    7781    7782    7787    7788    7789    7793    7794    7795    7797    7798
    7799    7782    7787    7788    7789    7787    7788    7789    7784    7785
    7790    7791    7792    7796    7790    7791    7786    7790    7791    7792
    7796    7790    7792    7788    7789    7793    7794    7795    7797    7798
    7799    7800    7801    7802    7789    7793    7794    7795    7793    7794
    7795    7791    7792    7796    7796    7796    7794    7795    7797    7798
    7799    7800    7801    7802    7803    7804    7805    7795    7797    7798
    7799    7797    7798    7799       0    7798    7799    7800    7801    7802
    7799    7800    7801    7802    7800    7801    7802    7803    7804    7805
    7806    7807    7808    7801    7802    7803    7804    7805    7806    7807
    7808    7802    7803    7804    7805    7803    7804    7805    7804    7805
    7806    7807    7808    7805    7806    7807    7808    7806    7807    7808
    7807    7808    7808       0    7810    7811    7812    7813    7814    7815
    7816    7817    7818    7819    7820    7821    7811    7812    7813    7814
    7815    7816    7817    7818    7819    7822    7823    7824    7812    7813
    7814    7815    7816    7819    7820    7821    7822    7824    7825    7813
    7814    7815    7816    7819    7820    7821    7825    7826    7827    7814
    7817    7818    7819    7822    7823    7828    7829    7830    7831    7815
    7816    7817    7818    7819    7820    7822    7824    7828    7816    7819
    7820    7821    7825    7832    7833    7820    7821    7825    7826    7827
    7832    7833    7834    7818    7819    7822    7823    7824    7828    7829
    7830    7831    7835    7836    7837    7822    7823    7822    7823    7824
    7828    7821    7825    7826    7827    7832    7833    7838    7825    7826
    7827    7832    7834    7838    7823    7824    7828    7829    7830    7831
    7828    7829    7830    7831    7835    7836    7837    7839    7840    7841
    7828    7826    7832    7833    7834    7838    7842    7843    7827    7832
    7833    7834    7838    7842    7843    7832    7834       0    7830    7831
    7835    7836    7837    7839    7840    7841    7844    7845    7846    7831
    7835    7836    7837    7835    7836    7837    7833    7834    7838    7842
    7843    7847    7848    7849    7850    7838    7838    7836    7837    7839
    7840    7841    7844    7845    7846    7851    7852    7853    7837    7839
    7840    7841    7839    7840    7841    7842    7843    7847    7848    7849
    7850    7854    7855    7856    7840    7841    7844    7845    7846    7851
    7852    7853    7857    7858    7859    7841    7844    7845    7846    7844
    7845    7846    7843    7847    7848    7849    7850    7854    7855    7860
    7847    7848    7849    7850    7854    7856    7860    7845    7846    7851
    7852    7853    7857    7858    7859    7861    7862    7863    7846    7851
    7852    7853    7851    7852    7853    7848    7849    7854    7855    7856
    7860    7854    7855    7850    7854    7855    7856    7860    7854    7856
    7852    7853    7857    7858    7859    7861    7862    7863    7864    7865
    7866    7853    7857    7858    7859    7857    7858    7859    7855    7856
    7860    7860    7860    7858    7859    7861    7862    7863    7864    7865
    7866    7867    7868    7869    7859    7861    7862    7863    7861    7862
    7863       0    7862    7863    7864    7865    7866    7863    7864    7865
    7866    7864    7865    7866    7867    7868    7869    7870    7871    7872
    7865    7866    7867    7868    7869    7870    7871    7872    7866    7867
    7868    7869    7867    7868    7869    7868    7869    7870    7871    7872
    7869    7870    7871    7872    7870    7871    7872    7871    7872    7872
       0    7874    7875    7876    7877    7878    7879    7880    7881    7882
    7883    7884    7885    7875    7876    7877    7878    7879    7880    7881
    7882    7883    7886    7887    7888    7876    7877    7878    7879    7880
    7883    7884    7885    7886    7888    7889    7877    7878    7879    7880
    7883    7884    7885    7889    7890    7891    7878    7881    7882    7883
    7886    7887    7892    7893    7894    7895    7879    7880    7881    7882
    7883    7884    7886    7888    7892    7880    7883    7884    7885    7889
    7896    7897    7884    7885    7889    7890    7891    7896    7897    7898
    7882    7883    7886    7887    7888    7892    7893    7894    7895    7899
    7900    7901    7886    7887    7886    7887    7888    7892    7885    7889
    7890    7891    7896    7897    7902    7889    7890    7891    7896    7898
    7902    7887    7888    7892    7893    7894    7895    7892    7893    7894
    7895    7899    7900    7901    7903    7904    7905    7892    7890    7896
    7897    7898    7902    7906    7907    7891    7896    7897    7898    7902
    7906    7907    7896    7898       0    7894    7895    7899    7900    7901
    7903    7904    7905    7908    7909    7910    7895    7899    7900    7901
    7899    7900    7901    7897    7898    7902    7906    7907    7911    7912
    7913    7914    7902    7902    7900    7901    7903    7904    7905    7908
    7909    7910    7915    7916    7917    7901    7903    7904    7905    7903
    7904    7905    7906    7907    7911    7912    7913    7914    7918    7919
    7920    7904    7905    7908    7909    7910    7915    7916    7917    7921
    7922    7923    7905    7908    7909    7910    7908    7909    7910    7907
    7911    7912    7913    7914    7918    7919    7924    7911    7912    7913
    7914    7918    7920    7924    7909    7910    7915    7916    7917    7921
    7922    7923    7925    7926    7927    7910    7915    7916    7917    7915
    7916    7917    7912    7913    7918    7919    7920    7924    7918    7919
    7914    7918    7919    7920    7924    7918    7920    7916    7917    7921
    7922    7923    7925    7926    7927    7928    7929    7930    7917    7921
    7922    7923    7921    7922    7923    7919    7920    7924    7924    7924
    7922    7923    7925    7926    7927    7928    7929    7930    7931    7932
    7933    7923    7925    7926    7927    7925    7926    7927       0    7926
    7927    7928    7929    7930    7927    7928    7929    7930    7928    7929
    7930    7931    7932    7933    7934    7935    7936    7929    7930    7931
    7932    7933    7934    7935    7936    7930    7931    7932    7933    7931
    7932    7933    7932    7933    7934    7935    7936    7933    7934    7935
    7936    7934    7935    7936    7935    7936    7936       0    7938    7939
    7940    7941    7942    7943    7944    7945    7946    7947    7948    7949
    7939    7940    7941    7942    7943    7944    7945    7946    7947    7950
    7951    7952    7940    7941    7942    7943    7944    7947    7948    7949
    7950    7952    7953    7941    7942    7943    7944    7947    7948    7949
    7953    7954    7955    7942    7945    7946    7947    7950    7951    7956
    7957    7958    7959    7943    7944    7945    7946    7947    7948    7950
    7952    7956    7944    7947    7948    7949    7953    7960    7961    7948
    7949    7953    7954    7955    7960    7961    7962    7946    7947    7950
    7951    7952    7956    7957    7958    7959    7963    7964    7965    7950
    7951    7950    7951    7952    7956    7949    7953    7954    7955    7960
    7961    7966    7953    7954    7955    7960    7962    7966    7951    7952
    7956    7957    7958    7959    7956    7957    7958    7959    7963    7964
    7965    7967    7968    7969    7956    7954    7960    7961    7962    7966
    7970    7971    7955    7960    7961    7962    7966    7970    7971    7960
    7962       0    7958    7959    7963    7964    7965    7967    7968    7969
    7972    7973    7974    7959    7963    7964    7965    7963    7964    7965
    7961    7962    7966    7970    7971    7975    7976    7977    7978    7966
    7966    7964    7965    7967    7968    7969    7972    7973    7974    7979
    7980    7981    7965    7967    7968    7969    7967    7968    7969    7970
    7971    7975    7976    7977    7978    7982    7983    7984    7968    7969
    7972    7973    7974    7979    7980    7981    7985    7986    7987    7969
    7972    7973    7974    7972    7973    7974    7971    7975    7976    7977
    7978    7982    7983    7988    7975    7976    7977    7978    7982    7984
    7988    7973    7974    7979    7980    7981    7985    7986    7987    7989
    7990    7991    7974    7979    7980    7981    7979    7980    7981    7976
    7977    7982    7983    7984    7988    7982    7983    7978    7982    7983
    7984    7988    7982    7984    7980    7981    7985    7986    7987    7989
    7990    7991    7992    7993    7994    7981    7985    7986    7987    7985
    7986    7987    7983    7984    7988    7988    7988    7986    7987    7989
    7990    7991    7992    7993    7994    7995    7996    7997    7987    7989
    7990    7991    7989    7990    7991       0    7990    7991    7992    7993
    7994    7991    7992    7993    7994    7992    7993    7994    7995    7996
    7997    7998    7999    8000    7993    7994    7995    7996    7997    7998
    7999    8000    7994    7995    7996    7997    7995    7996    7997    7996
    7997    7998    7999    8000    7997    7998    7999    8000    7998    7999
    8000    7999    8000    8000       0    8002    8003    8004    8005    8006
    8007    8008    8009    8010    8011    8012    8013    8003    8004    8005
    8006    8007    8008    8009    8010    8011    8014    8015    8016    8004
    8005    8006    8007    8008    8011    8012    8013    8014    8016    8017
    8005    8006    8007    8008    8011    8012    8013    8017    8018    8019
    8006    8009    8010    8011    8014    8015    8020    8021    8022    8023
    8007    8008    8009    8010    8011    8012    8014    8016    8020    8008
    8011    8012    8013    8017    8024    8025    8012    8013    8017    8018
    8019    8024    8025    8026    8010    8011    8014    8015    8016    8020
    8021    8022    8023    8027    8028    8029    8014    8015    8014    8015
    8016    8020    8013    8017    8018    8019    8024    8025    8030    8017
    8018    8019    8024    8026    8030    8015    8016    8020    8021    8022
    8023    8020    8021    8022    8023    8027    8028    8029    8031    8032
    8033    8020    8018    8024    8025    8026    8030    8034    8035    8019
    8024    8025    8026    8030    8034    8035    8024    8026       0    8022
    8023    8027    8028    8029    8031    8032    8033    8036    8037    8038
    8023    8027    8028    8029    8027    8028    8029    8025    8026    8030
    8034    8035    8039    8040    8041    8042    8030    8030    8028    8029
    8031    8032    8033    8036    8037    8038    8043    8044    8045    8029
    8031    8032    8033    8031    8032    8033    8034    8035    8039    8040
    8041    8042    8046    8047    8048    8032    8033    8036    8037    8038
    8043    8044    8045    8049    8050    8051    8033    8036    8037    8038
    8036    8037    8038    8035    8039    8040    8041    8042    8046    8047
    8052    8039    8040    8041    8042    8046    8048    8052    8037    8038
    8043    8044    8045    8049    8050    8051    8053    8054    8055    8038
    8043    8044    8045    8043    8044    8045    8040    8041    8046    8047
    8048    8052    8046    8047    8042    8046    8047    8048    8052    8046
    8048    8044    8045    8049    8050    8051    8053    8054    8055    8056
    8057    8058    8045    8049    8050    8051    8049    8050    8051    8047
    8048    8052    8052    8052    8050    8051    8053    8054    8055    8056
    8057    8058    8059    8060    8061    8051    8053    8054    8055    8053
    8054    8055       0    8054    8055    8056    8057    8058    8055    8056
    8057    8058    8056    8057    8058    8059    8060    8061    8062    8063
    8064    8057    8058    8059    8060    8061    8062    8063    8064    8058
    8059    8060    8061    8059    8060    8061    8060    8061    8062    8063
    8064    8061    8062    8063    8064    8062    8063    8064    8063    8064
    8064       0    8066    8067    8068    8069    8070    8071    8072    8073
    8074    8075    8076    8077    8067    8068    8069    8070    8071    8072
    8073    8074    8075    8078    8079    8080    8068    8069    8070    8071
    8072    8075    8076    8077    8078    8080    8081    8069    8070    8071
    8072    8075    8076    8077    8081    8082    8083    8070    8073    8074
    8075    8078    8079    8084    8085    8086    8087    8071    8072    8073
    8074    8075    8076    8078    8080    8084    8072    8075    8076    8077
    8081    8088    8089    8076    8077    8081    8082    8083    8088    8089
    8090    8074    8075    8078    8079    8080    8084    8085    8086    8087
    8091    8092    8093    8078    8079    8078    8079    8080    8084    8077
    8081    8082    8083    8088    8089    8094    8081    8082    8083    8088
    8090    8094    8079    8080    8084    8085    8086    8087    8084    8085
    8086    8087    8091    8092    8093    8095    8096    8097    8084    8082
    8088    8089    8090    8094    8098    8099    8083    8088    8089    8090
    8094    8098    8099    8088    8090       0    8086    8087    8091    8092
    8093    8095    8096    8097    8100    8101    8102    8087    8091    8092
    8093    8091    8092    8093    8089    8090    8094    8098    8099    8103
    8104    8105    8106    8094    8094    8092    8093    8095    8096    8097
    8100    8101    8102    8107    8108    8109    8093    8095    8096    8097
    8095    8096    8097    8098    8099    8103    8104    8105    8106    8110
    8111    8112    8096    8097    8100    8101    8102    8107    8108    8109
    8113    8114    8115    8097    8100    8101    8102    8100    8101    8102
    8099    8103    8104    8105    8106    8110    8111    8116    8103    8104
    8105    8106    8110    8112    8116    8101    8102    8107    8108    8109
    8113    8114    8115    8117    8118    8119    8102    8107    8108    8109
    8107    8108    8109    8104    8105    8110    8111    8112    8116    8110
    8111    8106    8110    8111    8112    8116    8110    8112    8108    8109
    8113    8114    8115    8117    8118    8119    8120    8121    8122    8109
    8113    8114    8115    8113    8114    8115    8111    8112    8116    8116
    8116    8114    8115    8117    8118    8119    8120    8121    8122    8123
    8124    8125    8115    8117    8118    8119    8117    8118    8119       0
    8118    8119    8120    8121    8122    8119    8120    8121    8122    8120
    8121    8122    8123    8124    8125    8126    8127    8128    8121    8122
    8123    8124    8125    8126    8127    8128    8122    8123    8124    8125
    8123    8124    8125    8124    8125    8126    8127    8128    8125    8126
    8127    8128    8126    8127    8128    8127    8128    8128       0    8130
    8131    8132    8133    8134    8135    8136    8137    8138    8139    8140
    8141    8131    8132    8133    8134    8135    8136    8137    8138    8139
    8142    8143    8144    8132    8133    8134    8135    8136    8139    8140
    8141    8142    8144    8145    8133    8134    8135    8136    8139    8140
    8141    8145    8146    8147    8134    8137    8138    8139    8142    8143
    8148    8149    8150    8151    8135    8136    8137    8138    8139    8140
    8142    8144    8148    8136    8139    8140    8141    8145    8152    8153
    8140    8141    8145    8146    8147    8152    8153    8154    8138    8139
    8142    8143    8144    8148    8149    8150    8151    8155    8156    8157
    8142    8143    8142    8143    8144    8148    8141    8145    8146    8147
    8152    8153    8158    8145    8146    8147    8152    8154    8158    8143
    8144    8148    8149    8150    8151    8148    8149    8150    8151    8155
    8156    8157    8159    8160    8161    8148    8146    8152    8153    8154
    8158    8162    8163    8147    8152    8153    8154    8158    8162    8163
    8152    8154       0    8150    8151    8155    8156    8157    8159    8160
    8161    8164    8165    8166    8151    8155    8156    8157    8155    8156
    8157    8153    8154    8158    8162    8163    8167    8168    8169    8170
    8158    8158    8156    8157    8159    8160    8161    8164    8165    8166
    8171    8172    8173    8157    8159    8160    8161    8159    8160    8161
    8162    8163    8167    8168    8169    8170    8174    8175    8176    8160
    8161    8164    8165    8166    8171    8172    8173    8177    8178    8179
    8161    8164    8165    8166    8164    8165    8166    8163    8167    8168
    8169    8170    8174    8175    8180    8167    8168    8169    8170    8174
    8176    8180    8165    8166    8171    8172    8173    8177    8178    8179
    8181    8182    8183    8166    8171    8172    8173    8171    8172    8173
    8168    8169    8174    8175    8176    8180    8174    8175    8170    8174
    8175    8176    8180    8174    8176    8172    8173    8177    8178    8179
    8181    8182    8183    8184    8185    8186    8173    8177    8178    8179
    8177    8178    8179    8175    8176    8180    8180    8180    8178    8179
    8181    8182    8183    8184    8185    8186    8187    8188    8189    8179
    8181    8182    8183    8181    8182    8183       0    8182    8183    8184
    8185    8186    8183    8184    8185    8186    8184    8185    8186    8187
    8188    8189    8190    8191    8192    8185    8186    8187    8188    8189
    8190    8191    8192    8186    8187    8188    8189    8187    8188    8189
    8188    8189    8190    8191    8192    8189    8190    8191    8192    8190
    8191    8192    8191    8192    8192       0    8194    8195    8196    8197
    8198    8199    8200    8201    8202    8203    8204    8205    8195    8196
    8197    8198    8199    8200    8201    8202    8203    8206    8207    8208
    8196    8197    8198    8199    8200    8203    8204    8205    8206    8208
    8209    8197    8198    8199    8200    8203    8204    8205    8209    8210
    8211    8198    8201    8202    8203    8206    8207    8212    8213    8214
    8215    8199    8200    8201    8202    8203    8204    8206    8208    8212
    8200    8203    8204    8205    8209    8216    8217    8204    8205    8209
    8210    8211    8216    8217    8218    8202    8203    8206    8207    8208
    8212    8213    8214    8215    8219    8220    8221    8206    8207    8206
    8207    8208    8212    8205    8209    8210    8211    8216    8217    8222
    8209    8210    8211    8216    8218    8222    8207    8208    8212    8213
    8214    8215    8212    8213    8214    8215    8219    8220    8221    8223
    8224    8225    8212    8210    8216    8217    8218    8222    8226    8227
    8211    8216    8217    8218    8222    8226    8227    8216    8218       0
    8214    8215    8219    8220    8221    8223    8224    8225    8228    8229
    8230    8215    8219    8220    8221    8219    8220    8221    8217    8218
    8222    8226    8227    8231    8232    8233    8234    8222    8222    8220
    8221    8223    8224    8225    8228    8229    8230    8235    8236    8237
    8221    8223    8224    8225    8223    8224    8225    8226    8227    8231
    8232    8233    8234    8238    8239    8240    8224    8225    8228    8229
    8230    8235    8236    8237    8241    8242    8243    8225    8228    8229
    8230    8228    8229    8230    8227    8231    8232    8233    8234    8238
    8239    8244    8231    8232    8233    8234    8238    8240    8244    8229
    8230    8235    8236    8237    8241    8242    8243    8245    8246    8247
    8230    8235    8236    8237    8235    8236    8237    8232    8233    8238
    8239    8240    8244    8238    8239    8234    8238    8239    8240    8244
    8238    8240    8236    8237    8241    8242    8243    8245    8246    8247
    8248    8249    8250    8237    8241    8242    8243    8241    8242    8243
    8239    8240    8244    8244    8244    8242    8243    8245    8246    8247
    8248    8249    8250    8251    8252    8253    8243    8245    8246    8247
    8245    8246    8247       0    8246    8247    8248    8249    8250    8247
    8248    8249    8250    8248    8249    8250    8251    8252    8253    8254
    8255    8256    8249    8250    8251    8252    8253    8254    8255    8256
    8250    8251    8252    8253    8251    8252    8253    8252    8253    8254
    8255    8256    8253    8254    8255    8256    8254    8255    8256    8255
    8256    8256       0    8258    8259    8260    8261    8262    8263    8264
    8265    8266    8267    8268    8269    8259    8260    8261    8262    8263
    8264    8265    8266    8267    8270    8271    8272    8260    8261    8262
    8263    8264    8267    8268    8269    8270    8272    8273    8261    8262
    8263    8264    8267    8268    8269    8273    8274    8275    8262    8265
    8266    8267    8270    8271    8276    8277    8278    8279    8263    8264
    8265    8266    8267    8268    8270    8272    8276    8264    8267    8268
    8269    8273    8280    8281    8268    8269    8273    8274    8275    8280
    8281    8282    8266    8267    8270    8271    8272    8276    8277    8278
    8279    8283    8284    8285    8270    8271    8270    8271    8272    8276
    8269    8273    8274    8275    8280    8281    8286    8273    8274    8275
    8280    8282    8286    8271    8272    8276    8277    8278    8279    8276
    8277    8278    8279    8283    8284    8285    8287    8288    8289    8276
    8274    8280    8281    8282    8286    8290    8291    8275    8280    8281
    8282    8286    8290    8291    8280    8282       0    8278    8279    8283
    8284    8285    8287    8288    8289    8292    8293    8294    8279    8283
    8284    8285    8283    8284    8285    8281    8282    8286    8290    8291
    8295    8296    8297    8298    8286    8286    8284    8285    8287    8288
    8289    8292    8293    8294    8299    8300    8301    8285    8287    8288
    8289    8287    8288    8289    8290    8291    8295    8296    8297    8298
    8302    8303    8304    8288    8289    8292    8293    8294    8299    8300
    8301    8305    8306    8307    8289    8292    8293    8294    8292    8293
    8294    8291    8295    8296    8297    8298    8302    8303    8308    8295
    8296    8297    8298    8302    8304    8308    8293    8294    8299    8300
    8301    8305    8306    8307    8309    8310    8311    8294    8299    8300
    8301    8299    8300    8301    8296    8297    8302    8303    8304    8308
    8302    8303    8298    8302    8303    8304    8308    8302    8304    8300
    8301    8305    8306    8307    8309    8310    8311    8312    8313    8314
    8301    8305    8306    8307    8305    8306    8307    8303    8304    8308
    8308    8308    8306    8307    8309    8310    8311    8312    8313    8314
    8315    8316    8317    8307    8309    8310    8311    8309    8310    8311
       0    8310    8311    8312    8313    8314    8311    8312    8313    8314
    8312    8313    8314    8315    8316    8317    8318    8319    8320    8313
    8314    8315    8316    8317    8318    8319    8320    8314    8315    8316
    8317    8315    8316    8317    8316    8317    8318    8319    8320    8317
    8318    8319    8320    8318    8319    8320    8319    8320    8320       0
    8322    8323    8324    8325    8326    8327    8328    8329    8330    8331
    8332    8333    8323    8324    8325    8326    8327    8328    8329    8330
    8331    8334    8335    8336    8324    8325    8326    8327    8328    8331
    8332    8333    8334    8336    8337    8325    8326    8327    8328    8331
    8332    8333    8337    8338    8339    8326    8329    8330    8331    8334
    8335    8340    8341    8342    8343    8327    8328    8329    8330    8331
    8332    8334    8336    8340    8328    8331    8332    8333    8337    8344
    8345    8332    8333    8337    8338    8339    8344    8345    8346    8330
    8331    8334    8335    8336    8340    8341    8342    8343    8347    8348
    8349    8334    8335    8334    8335    8336    8340    8333    8337    8338
    8339    8344    8345    8350    8337    8338    8339    8344    8346    8350
    8335    8336    8340    8341    8342    8343    8340    8341    8342    8343
    8347    8348    8349    8351    8352    8353    8340    8338    8344    8345
    8346    8350    8354    8355    8339    8344    8345    8346    8350    8354
    8355    8344    8346       0    8342    8343    8347    8348    8349    8351
    8352    8353    8356    8357    8358    8343    8347    8348    8349    8347
    8348    8349    8345    8346    8350    8354    8355    8359    8360    8361
    8362    8350    8350    8348    8349    8351    8352    8353    8356    8357
    8358    8363    8364    8365    8349    8351    8352    8353    8351    8352
    8353    8354    8355    8359    8360    8361    8362    8366    8367    8368
    8352    8353    8356    8357    8358    8363    8364    8365    8369    8370
    8371    8353    8356    8357    8358    8356    8357    8358    8355    8359
    8360    8361    8362    8366    8367    8372    8359    8360    8361    8362
    8366    8368    8372    8357    8358    8363    8364    8365    8369    8370
    8371    8373    8374    8375    8358    8363    8364    8365    8363    8364
    8365    8360    8361    8366    8367    8368    8372    8366    8367    8362
    8366    8367    8368    8372    8366    8368    8364    8365    8369    8370
    8371    8373    8374    8375    8376    8377    8378    8365    8369    8370
    8371    8369    8370    8371    8367    8368    8372    8372    8372    8370
    8371    8373    8374    8375    8376    8377    8378    8379    8380    8381
    8371    8373    8374    8375    8373    8374    8375       0    8374    8375
    8376    8377    8378    8375    8376    8377    8378    8376    8377    8378
    8379    8380    8381    8382    8383    8384    8377    8378    8379    8380
    8381    8382    8383    8384    8378    8379    8380    8381    8379    8380
    8381    8380    8381    8382    8383    8384    8381    8382    8383    8384
    8382    8383    8384    8383    8384    8384       0    8386    8387    8388
    8389    8390    8391    8392    8393    8394    8395    8396    8397    8387
    8388    8389    8390    8391    8392    8393    8394    8395    8398    8399
    8400    8388    8389    8390    8391    8392    8395    8396    8397    8398
    8400    8401    8389    8390    8391    8392    8395    8396    8397    8401
    8402    8403    8390    8393    8394    8395    8398    8399    8404    8405
    8406    8407    8391    8392    8393    8394    8395    8396    8398    8400
    8404    8392    8395    8396    8397    8401    8408    8409    8396    8397
    8401    8402    8403    8408    8409    8410    8394    8395    8398    8399
    8400    8404    8405    8406    8407    8411    8412    8413    8398    8399
    8398    8399    8400    8404    8397    8401    8402    8403    8408    8409
    8414    8401    8402    8403    8408    8410    8414    8399    8400    8404
    8405    8406    8407    8404    8405    8406    8407    8411    8412    8413
    8415    8416    8417    8404    8402    8408    8409    8410    8414    8418
    8419    8403    8408    8409    8410    8414    8418    8419    8408    8410
       0    8406    8407    8411    8412    8413    8415    8416    8417    8420
    8421    8422    8407    8411    8412    8413    8411    8412    8413    8409
    8410    8414    8418    8419    8423    8424    8425    8426    8414    8414
    8412    8413    8415    8416    8417    8420    8421    8422    8427    8428
    8429    8413    8415    8416    8417    8415    8416    8417    8418    8419
    8423    8424    8425    8426    8430    8431    8432    8416    8417    8420
    8421    8422    8427    8428    8429    8433    8434    8435    8417    8420
    8421    8422    8420    8421    8422    8419    8423    8424    8425    8426
    8430    8431    8436    8423    8424    8425    8426    8430    8432    8436
    8421    8422    8427    8428    8429    8433    8434    8435    8437    8438
    8439    8422    8427    8428    8429    8427    8428    8429    8424    8425
    8430    8431    8432    8436    8430    8431    8426    8430    8431    8432
    8436    8430    8432    8428    8429    8433    8434    8435    8437    8438
    8439    8440    8441    8442    8429    8433    8434    8435    8433    8434
    8435    8431    8432    8436    8436    8436    8434    8435    8437    8438
    8439    8440    8441    8442    8443    8444    8445    8435    8437    8438
    8439    8437    8438    8439       0    8438    8439    8440    8441    8442
    8439    8440    8441    8442    8440    8441    8442    8443    8444    8445
    8446    8447    8448    8441    8442    8443    8444    8445    8446    8447
    8448    8442    8443    8444    8445    8443    8444    8445    8444    8445
    8446    8447    8448    8445    8446    8447    8448    8446    8447    8448
    8447    8448    8448       0    8450    8451    8452    8453    8454    8455
    8456    8457    8458    8459    8460    8461    8451    8452    8453    8454
    8455    8456    8457    8458    8459    8462    8463    8464    8452    8453
    8454    8455    8456    8459    8460    8461    8462    8464    8465    8453
    8454    8455    8456    8459    8460    8461    8465    8466    8467    8454
    8457    8458    8459    8462    8463    8468    8469    8470    8471    8455
    8456    8457    8458    8459    8460    8462    8464    8468    8456    8459
    8460    8461    8465    8472    8473    8460    8461    8465    8466    8467
    8472    8473    8474    8458    8459    8462    8463    8464    8468    8469
    8470    8471    8475    8476    8477    8462    8463    8462    8463    8464
    8468    8461    8465    8466    8467    8472    8473    8478    8465    8466
    8467    8472    8474    8478    8463    8464    8468    8469    8470    8471
    8468    8469    8470    8471    8475    8476    8477    8479    8480    8481
    8468    8466    8472    8473    8474    8478    8482    8483    8467    8472
    8473    8474    8478    8482    8483    8472    8474       0    8470    8471
    8475    8476    8477    8479    8480    8481    8484    8485    8486    8471
    8475    8476    8477    8475    8476    8477    8473    8474    8478    8482
    8483    8487    8488    8489    8490    8478    8478    8476    8477    8479
    8480    8481    8484    8485    8486    8491    8492    8493    8477    8479
    8480    8481    8479    8480    8481    8482    8483    8487    8488    8489
    8490    8494    8495    8496    8480    8481    8484    8485    8486    8491
    8492    8493    8497    8498    8499    8481    8484    8485    8486    8484
    8485    8486    8483    8487    8488    8489    8490    8494    8495    8500
    8487    8488    8489    8490    8494    8496    8500    8485    8486    8491
    8492    8493    8497    8498    8499    8501    8502    8503    8486    8491
    8492    8493    8491    8492    8493    8488    8489    8494    8495    8496
    8500    8494    8495    8490    8494    8495    8496    8500    8494    8496
    8492    8493    8497    8498    8499    8501    8502    8503    8504    8505
    8506    8493    8497    8498    8499    8497    8498    8499    8495    8496
    8500    8500    8500    8498    8499    8501    8502    8503    8504    8505
    8506    8507    8508    8509    8499    8501    8502    8503    8501    8502
    8503       0    8502    8503    8504    8505    8506    8503    8504    8505
    8506    8504    8505    8506    8507    8508    8509    8510    8511    8512
    8505    8506    8507    8508    8509    8510    8511    8512    8506    8507
    8508    8509    8507    8508    8509    8508    8509    8510    8511    8512
    8509    8510    8511    8512    8510    8511    8512    8511    8512    8512
       0    8514    8515    8516    8517    8518    8519    8520    8521    8522
    8523    8524    8525    8515    8516    8517    8518    8519    8520    8521
    8522    8523    8526    8527    8528    8516    8517    8518    8519    8520
    8523    8524    8525    8526    8528    8529    8517    8518    8519    8520
    8523    8524    8525    8529    8530    8531    8518    8521    8522    8523
    8526    8527    8532    8533    8534    8535    8519    8520    8521    8522
    8523    8524    8526    8528    8532    8520    8523    8524    8525    8529
    8536    8537    8524    8525    8529    8530    8531    8536    8537    8538
    8522    8523    8526    8527    8528    8532    8533    8534    8535    8539
    8540    8541    8526    8527    8526    8527    8528    8532    8525    8529
    8530    8531    8536    8537    8542    8529    8530    8531    8536    8538
    8542    8527    8528    8532    8533    8534    8535    8532    8533    8534
    8535    8539    8540    8541    8543    8544    8545    8532    8530    8536
    8537    8538    8542    8546    8547    8531    8536    8537    8538    8542
    8546    8547    8536    8538       0    8534    8535    8539    8540    8541
    8543    8544    8545    8548    8549    8550    8535    8539    8540    8541
    8539    8540    8541    8537    8538    8542    8546    8547    8551    8552
    8553    8554    8542    8542    8540    8541    8543    8544    8545    8548
    8549    8550    8555    8556    8557    8541    8543    8544    8545    8543
    8544    8545    8546    8547    8551    8552    8553    8554    8558    8559
    8560    8544    8545    8548    8549    8550    8555    8556    8557    8561
    8562    8563    8545    8548    8549    8550    8548    8549    8550    8547
    8551    8552    8553    8554    8558    8559    8564    8551    8552    8553
    8554    8558    8560    8564    8549    8550    8555    8556    8557    8561
    8562    8563    8565    8566    8567    8550    8555    8556    8557    8555
    8556    8557    8552    8553    8558    8559    8560    8564    8558    8559
    8554    8558    8559    8560    8564    8558    8560    8556    8557    8561
    8562    8563    8565    8566    8567    8568    8569    8570    8557    8561
    8562    8563    8561    8562    8563    8559    8560    8564    8564    8564
    8562    8563    8565    8566    8567    8568    8569    8570    8571    8572
    8573    8563    8565    8566    8567    8565    8566    8567       0    8566
    8567    8568    8569    8570    8567    8568    8569    8570    8568    8569
    8570    8571    8572    8573    8574    8575    8576    8569    8570    8571
    8572    8573    8574    8575    8576    8570    8571    8572    8573    8571
    8572    8573    8572    8573    8574    8575    8576    8573    8574    8575
    8576    8574    8575    8576    8575    8576    8576       0    8578    8579
    8580    8581    8582    8583    8584    8585    8586    8587    8588    8589
    8579    8580    8581    8582    8583    8584    8585    8586    8587    8590
    8591    8592    8580    8581    8582    8583    8584    8587    8588    8589
    8590    8592    8593    8581    8582    8583    8584    8587    8588    8589
    8593    8594    8595    8582    8585    8586    8587    8590    8591    8596
    8597    8598    8599    8583    8584    8585    8586    8587    8588    8590
    8592    8596    8584    8587    8588    8589    8593    8600    8601    8588
    8589    8593    8594    8595    8600    8601    8602    8586    8587    8590
    8591    8592    8596    8597    8598    8599    8603    8604    8605    8590
    8591    8590    8591    8592    8596    8589    8593    8594    8595    8600
    8601    8606    8593    8594    8595    8600    8602    8606    8591    8592
    8596    8597    8598    8599    8596    8597    8598    8599    8603    8604
    8605    8607    8608    8609    8596    8594    8600    8601    8602    8606
    8610    8611    8595    8600    8601    8602    8606    8610    8611    8600
    8602       0    8598    8599    8603    8604    8605    8607    8608    8609
    8612    8613    8614    8599    8603    8604    8605    8603    8604    8605
    8601    8602    8606    8610    8611    8615    8616    8617    8618    8606
    8606    8604    8605    8607    8608    8609    8612    8613    8614    8619
    8620    8621    8605    8607    8608    8609    8607    8608    8609    8610
    8611    8615    8616    8617    8618    8622    8623    8624    8608    8609
    8612    8613    8614    8619    8620    8621    8625    8626    8627    8609
    8612    8613    8614    8612    8613    8614    8611    8615    8616    8617
    8618    8622    8623    8628    8615    8616    8617    8618    8622    8624
    8628    8613    8614    8619    8620    8621    8625    8626    8627    8629
    8630    8631    8614    8619    8620    8621    8619    8620    8621    8616
    8617    8622    8623    8624    8628    8622    8623    8618    8622    8623
    8624    8628    8622    8624    8620    8621    8625    8626    8627    8629
    8630    8631    8632    8633    8634    8621    8625    8626    8627    8625
    8626    8627    8623    8624    8628    8628    8628    8626    8627    8629
    8630    8631    8632    8633    8634    8635    8636    8637    8627    8629
    8630    8631    8629    8630    8631       0    8630    8631    8632    8633
    8634    8631    8632    8633    8634    8632    8633    8634    8635    8636
    8637    8638    8639    8640    8633    8634    8635    8636    8637    8638
    8639    8640    8634    8635    8636    8637    8635    8636    8637    8636
    8637    8638    8639    8640    8637    8638    8639    8640    8638    8639
    8640    8639    8640    8640       0    8642    8643    8644    8645    8646
    8647    8648    8649    8650    8651    8652    8653    8643    8644    8645
    8646    8647    8648    8649    8650    8651    8654    8655    8656    8644
    8645    8646    8647    8648    8651    8652    8653    8654    8656    8657
    8645    8646    8647    8648    8651    8652    8653    8657    8658    8659
    8646    8649    8650    8651    8654    8655    8660    8661    8662    8663
    8647    8648    8649    8650    8651    8652    8654    8656    8660    8648
    8651    8652    8653    8657    8664    8665    8652    8653    8657    8658
    8659    8664    8665    8666    8650    8651    8654    8655    8656    8660
    8661    8662    8663    8667    8668    8669    8654    8655    8654    8655
    8656    8660    8653    8657    8658    8659    8664    8665    8670    8657
    8658    8659    8664    8666    8670    8655    8656    8660    8661    8662
    8663    8660    8661    8662    8663    8667    8668    8669    8671    8672
    8673    8660    8658    8664    8665    8666    8670    8674    8675    8659
    8664    8665    8666    8670    8674    8675    8664    8666       0    8662
    8663    8667    8668    8669    8671    8672    8673    8676    8677    8678
    8663    8667    8668    8669    8667    8668    8669    8665    8666    8670
    8674    8675    8679    8680    8681    8682    8670    8670    8668    8669
    8671    8672    8673    8676    8677    8678    8683    8684    8685    8669
    8671    8672    8673    8671    8672    8673    8674    8675    8679    8680
    8681    8682    8686    8687    8688    8672    8673    8676    8677    8678
    8683    8684    8685    8689    8690    8691    8673    8676    8677    8678
    8676    8677    8678    8675    8679    8680    8681    8682    8686    8687
    8692    8679    8680    8681    8682    8686    8688    8692    8677    8678
    8683    8684    8685    8689    8690    8691    8693    8694    8695    8678
    8683    8684    8685    8683    8684    8685    8680    8681    8686    8687
    8688    8692    8686    8687    8682    8686    8687    8688    8692    8686
    8688    8684    8685    8689    8690    8691    8693    8694    8695    8696
    8697    8698    8685    8689    8690    8691    8689    8690    8691    8687
    8688    8692    8692    8692    8690    8691    8693    8694    8695    8696
    8697    8698    8699    8700    8701    8691    8693    8694    8695    8693
    8694    8695       0    8694    8695    8696    8697    8698    8695    8696
    8697    8698    8696    8697    8698    8699    8700    8701    8702    8703
    8704    8697    8698    8699    8700    8701    8702    8703    8704    8698
    8699    8700    8701    8699    8700    8701    8700    8701    8702    8703
    8704    8701    8702    8703    8704    8702    8703    8704    8703    8704
    8704       0    8706    8707    8708    8709    8710    8711    8712    8713
    8714    8715    8716    8717    8707    8708    8709    8710    8711    8712
    8713    8714    8715    8718    8719    8720    8708    8709    8710    8711
    8712    8715    8716    8717    8718    8720    8721    8709    8710    8711
    8712    8715    8716    8717    8721    8722    8723    8710    8713    8714
    8715    8718    8719    8724    8725    8726    8727    8711    8712    8713
    8714    8715    8716    8718    8720    8724    8712    8715    8716    8717
    8721    8728    8729    8716    8717    8721    8722    8723    8728    8729
    8730    8714    8715    8718    8719    8720    8724    8725    8726    8727
    8731    8732    8733    8718    8719    8718    8719    8720    8724    8717
    8721    8722    8723    8728    8729    8734    8721    8722    8723    8728
    8730    8734    8719    8720    8724    8725    8726    8727    8724    8725
    8726    8727    8731    8732    8733    8735    8736    8737    8724    8722
    8728    8729    8730    8734    8738    8739    8723    8728    8729    8730
    8734    8738    8739    8728    8730       0    8726    8727    8731    8732
    8733    8735    8736    8737    8740    8741    8742    8727    8731    8732
    8733    8731    8732    8733    8729    8730    8734    8738    8739    8743
    8744    8745    8746    8734    8734    8732    8733    8735    8736    8737
    8740    8741    8742    8747    8748    8749    8733    8735    8736    8737
    8735    8736    8737    8738    8739    8743    8744    8745    8746    8750
    8751    8752    8736    8737    8740    8741    8742    8747    8748    8749
    8753    8754    8755    8737    8740    8741    8742    8740    8741    8742
    8739    8743    8744    8745    8746    8750    8751    8756    8743    8744
    8745    8746    8750    8752    8756    8741    8742    8747    8748    8749
    8753    8754    8755    8757    8758    8759    8742    8747    8748    8749
    8747    8748    8749    8744    8745    8750    8751    8752    8756    8750
    8751    8746    8750    8751    8752    8756    8750    8752    8748    8749
    8753    8754    8755    8757    8758    8759    8760    8761    8762    8749
    8753    8754    8755    8753    8754    8755    8751    8752    8756    8756
    8756    8754    8755    8757    8758    8759    8760    8761    8762    8763
    8764    8765    8755    8757    8758    8759    8757    8758    8759       0
    8758    8759    8760    8761    8762    8759    8760    8761    8762    8760
    8761    8762    8763    8764    8765    8766    8767    8768    8761    8762
    8763    8764    8765    8766    8767    8768    8762    8763    8764    8765
    8763    8764    8765    8764    8765    8766    8767    8768    8765    8766
    8767    8768    8766    8767    8768    8767    8768    8768       0    8770
    8771    8772    8773    8774    8775    8776    8777    8778    8779    8780
    8781    8771    8772    8773    8774    8775    8776    8777    8778    8779
    8782    8783    8784    8772    8773    8774    8775    8776    8779    8780
    8781    8782    8784    8785    8773    8774    8775    8776    8779    8780
    8781    8785    8786    8787    8774    8777    8778    8779    8782    8783
    8788    8789    8790    8791    8775    8776    8777    8778    8779    8780
    8782    8784    8788    8776    8779    8780    8781    8785    8792    8793
    8780    8781    8785    8786    8787    8792    8793    8794    8778    8779
    8782    8783    8784    8788    8789    8790    8791    8795    8796    8797
    8782    8783    8782    8783    8784    8788    8781    8785    8786    8787
    8792    8793    8798    8785    8786    8787    8792    8794    8798    8783
    8784    8788    8789    8790    8791    8788    8789    8790    8791    8795
    8796    8797    8799    8800    8801    8788    8786    8792    8793    8794
    8798    8802    8803    8787    8792    8793    8794    8798    8802    8803
    8792    8794       0    8790    8791    8795    8796    8797    8799    8800
    8801    8804    8805    8806    8791    8795    8796    8797    8795    8796
    8797    8793    8794    8798    8802    8803    8807    8808    8809    8810
    8798    8798    8796    8797    8799    8800    8801    8804    8805    8806
    8811    8812    8813    8797    8799    8800    8801    8799    8800    8801
    8802    8803    8807    8808    8809    8810    8814    8815    8816    8800
    8801    8804    8805    8806    8811    8812    8813    8817    8818    8819
    8801    8804    8805    8806    8804    8805    8806    8803    8807    8808
    8809    8810    8814    8815    8820    8807    8808    8809    8810    8814
    8816    8820    8805    8806    8811    8812    8813    8817    8818    8819
    8821    8822    8823    8806    8811    8812    8813    8811    8812    8813
    8808    8809    8814    8815    8816    8820    8814    8815    8810    8814
    8815    8816    8820    8814    8816    8812    8813    8817    8818    8819
    8821    8822    8823    8824    8825    8826    8813    8817    8818    8819
    8817    8818    8819    8815    8816    8820    8820    8820    8818    8819
    8821    8822    8823    8824    8825    8826    8827    8828    8829    8819
    8821    8822    8823    8821    8822    8823       0    8822    8823    8824
    8825    8826    8823    8824    8825    8826    8824    8825    8826    8827
    8828    8829    8830    8831    8832    8825    8826    8827    8828    8829
    8830    8831    8832    8826    8827    8828    8829    8827    8828    8829
    8828    8829    8830    8831    8832    8829    8830    8831    8832    8830
    8831    8832    8831    8832    8832       0    8834    8835    8836    8837
    8838    8839    8840    8841    8842    8843    8844    8845    8835    8836
    8837    8838    8839    8840    8841    8842    8843    8846    8847    8848
    8836    8837    8838    8839    8840    8843    8844    8845    8846    8848
    8849    8837    8838    8839    8840    8843    8844    8845    8849    8850
    8851    8838    8841    8842    8843    8846    8847    8852    8853    8854
    8855    8839    8840    8841    8842    8843    8844    8846    8848    8852
    8840    8843    8844    8845    8849    8856    8857    8844    8845    8849
    8850    8851    8856    8857    8858    8842    8843    8846    8847    8848
    8852    8853    8854    8855    8859    8860    8861    8846    8847    8846
    8847    8848    8852    8845    8849    8850    8851    8856    8857    8862
    8849    8850    8851    8856    8858    8862    8847    8848    8852    8853
    8854    8855    8852    8853    8854    8855    8859    8860    8861    8863
    8864    8865    8852    8850    8856    8857    8858    8862    8866    8867
    8851    8856    8857    8858    8862    8866    8867    8856    8858       0
    8854    8855    8859    8860    8861    8863    8864    8865    8868    8869
    8870    8855    8859    8860    8861    8859    8860    8861    8857    8858
    8862    8866    8867    8871    8872    8873    8874    8862    8862    8860
    8861    8863    8864    8865    8868    8869    8870    8875    8876    8877
    8861    8863    8864    8865    8863    8864    8865    8866    8867    8871
    8872    8873    8874    8878    8879    8880    8864    8865    8868    8869
    8870    8875    8876    8877    8881    8882    8883    8865    8868    8869
    8870    8868    8869    8870    8867    8871    8872    8873    8874    8878
    8879    8884    8871    8872    8873    8874    8878    8880    8884    8869
    8870    8875    8876    8877    8881    8882    8883    8885    8886    8887
    8870    8875    8876    8877    8875    8876    8877    8872    8873    8878
    8879    8880    8884    8878    8879    8874    8878    8879    8880    8884
    8878    8880    8876    8877    8881    8882    8883    8885    8886    8887
    8888    8889    8890    8877    8881    8882    8883    8881    8882    8883
    8879    8880    8884    8884    8884    8882    8883    8885    8886    8887
    8888    8889    8890    8891    8892    8893    8883    8885    8886    8887
    8885    8886    8887       0    8886    8887    8888    8889    8890    8887
    8888    8889    8890    8888    8889    8890    8891    8892    8893    8894
    8895    8896    8889    8890    8891    8892    8893    8894    8895    8896
    8890    8891    8892    8893    8891    8892    8893    8892    8893    8894
    8895    8896    8893    8894    8895    8896    8894    8895    8896    8895
    8896    8896       0    8898    8899    8900    8901    8902    8903    8904
    8905    8906    8907    8908    8909    8899    8900    8901    8902    8903
    8904    8905    8906    8907    8910    8911    8912    8900    8901    8902
    8903    8904    8907    8908    8909    8910    8912    8913    8901    8902
    8903    8904    8907    8908    8909    8913    8914    8915    8902    8905
    8906    8907    8910    8911    8916    8917    8918    8919    8903    8904
    8905    8906    8907    8908    8910    8912    8916    8904    8907    8908
    8909    8913    8920    8921    8908    8909    8913    8914    8915    8920
    8921    8922    8906    8907    8910    8911    8912    8916    8917    8918
    8919    8923    8924    8925    8910    8911    8910    8911    8912    8916
    8909    8913    8914    8915    8920    8921    8926    8913    8914    8915
    8920    8922    8926    8911    8912    8916    8917    8918    8919    8916
    8917    8918    8919    8923    8924    8925    8927    8928    8929    8916
    8914    8920    8921    8922    8926    8930    8931    8915    8920    8921
    8922    8926    8930    8931    8920    8922       0    8918    8919    8923
    8924    8925    8927    8928    8929    8932    8933    8934    8919    8923
    8924    8925    8923    8924    8925    8921    8922    8926    8930    8931
    8935    8936    8937    8938    8926    8926    8924    8925    8927    8928
    8929    8932    8933    8934    8939    8940    8941    8925    8927    8928
    8929    8927    8928    8929    8930    8931    8935    8936    8937    8938
    8942    8943    8944    8928    8929    8932    8933    8934    8939    8940
    8941    8945    8946    8947    8929    8932    8933    8934    8932    8933
    8934    8931    8935    8936    8937    8938    8942    8943    8948    8935
    8936    8937    8938    8942    8944    8948    8933    8934    8939    8940
    8941    8945    8946    8947    8949    8950    8951    8934    8939    8940
    8941    8939    8940    8941    8936    8937    8942    8943    8944    8948
    8942    8943    8938    8942    8943    8944    8948    8942    8944    8940
    8941    8945    8946    8947    8949    8950    8951    8952    8953    8954
    8941    8945    8946    8947    8945    8946    8947    8943    8944    8948
    8948    8948    8946    8947    8949    8950    8951    8952    8953    8954
    8955    8956    8957    8947    8949    8950    8951    8949    8950    8951
       0    8950    8951    8952    8953    8954    8951    8952    8953    8954
    8952    8953    8954    8955    8956    8957    8958    8959    8960    8953
    8954    8955    8956    8957    8958    8959    8960    8954    8955    8956
    8957    8955    8956    8957    8956    8957    8958    8959    8960    8957
    8958    8959    8960    8958    8959    8960    8959    8960    8960       0
    8962    8963    8964    8965    8966    8967    8968    8969    8970    8971
    8972    8973    8963    8964    8965    8966    8967    8968    8969    8970
    8971    8974    8975    8976    8964    8965    8966    8967    8968    8971
    8972    8973    8974    8976    8977    8965    8966    8967    8968    8971
    8972    8973    8977    8978    8979    8966    8969    8970    8971    8974
    8975    8980    8981    8982    8983    8967    8968    8969    8970    8971
    8972    8974    8976    8980    8968    8971    8972    8973    8977    8984
    8985    8972    8973    8977    8978    8979    8984    8985    8986    8970
    8971    8974    8975    8976    8980    8981    8982    8983    8987    8988
    8989    8974    8975    8974    8975    8976    8980    8973    8977    8978
    8979    8984    8985    8990    8977    8978    8979    8984    8986    8990
    8975    8976    8980    8981    8982    8983    8980    8981    8982    8983
    8987    8988    8989    8991    8992    8993    8980    8978    8984    8985
    8986    8990    8994    8995    8979    8984    8985    8986    8990    8994
    8995    8984    8986       0    8982    8983    8987    8988    8989    8991
    8992    8993    8996    8997    8998    8983    8987    8988    8989    8987
    8988    8989    8985    8986    8990    8994    8995    8999    9000    9001
    9002    8990    8990    8988    8989    8991    8992    8993    8996    8997
    8998    9003    9004    9005    8989    8991    8992    8993    8991    8992
    8993    8994    8995    8999    9000    9001    9002    9006    9007    9008
    8992    8993    8996    8997    8998    9003    9004    9005    9009    9010
    9011    8993    8996    8997    8998    8996    8997    8998    8995    8999
    9000    9001    9002    9006    9007    9012    8999    9000    9001    9002
    9006    9008    9012    8997    8998    9003    9004    9005    9009    9010
    9011    9013    9014    9015    8998    9003    9004    9005    9003    9004
    9005    9000    9001    9006    9007    9008    9012    9006    9007    9002
    9006    9007    9008    9012    9006    9008    9004    9005    9009    9010
    9011    9013    9014    9015    9016    9017    9018    9005    9009    9010
    9011    9009    9010    9011    9007    9008    9012    9012    9012    9010
    9011    9013    9014    9015    9016    9017    9018    9019    9020    9021
    9011    9013    9014    9015    9013    9014    9015       0    9014    9015
    9016    9017    9018    9015    9016    9017    9018    9016    9017    9018
    9019    9020    9021    9022    9023    9024    9017    9018    9019    9020
    9021    9022    9023    9024    9018    9019    9020    9021    9019    9020
    9021    9020    9021    9022    9023    9024    9021    9022    9023    9024
    9022    9023    9024    9023    9024    9024       0    9026    9027    9028
    9029    9030    9031    9032    9033    9034    9035    9036    9037    9027
    9028    9029    9030    9031    9032    9033    9034    9035    9038    9039
    9040    9028    9029    9030    9031    9032    9035    9036    9037    9038
    9040    9041    9029    9030    9031    9032    9035    9036    9037    9041
    9042    9043    9030    9033    9034    9035    9038    9039    9044    9045
    9046    9047    9031    9032    9033    9034    9035    9036    9038    9040
    9044    9032    9035    9036    9037    9041    9048    9049    9036    9037
    9041    9042    9043    9048    9049    9050    9034    9035    9038    9039
    9040    9044    9045    9046    9047    9051    9052    9053    9038    9039
    9038    9039    9040    9044    9037    9041    9042    9043    9048    9049
    9054    9041    9042    9043    9048    9050    9054    9039    9040    9044
    9045    9046    9047    9044    9045    9046    9047    9051    9052    9053
    9055    9056    9057    9044    9042    9048    9049    9050    9054    9058
    9059    9043    9048    9049    9050    9054    9058    9059    9048    9050
       0    9046    9047    9051    9052    9053    9055    9056    9057    9060
    9061    9062    9047    9051    9052    9053    9051    9052    9053    9049
    9050    9054    9058    9059    9063    9064    9065    9066    9054    9054
    9052    9053    9055    9056    9057    9060    9061    9062    9067    9068
    9069    9053    9055    9056    9057    9055    9056    9057    9058    9059
    9063    9064    9065    9066    9070    9071    9072    9056    9057    9060
    9061    9062    9067    9068    9069    9073    9074    9075    9057    9060
    9061    9062    9060    9061    9062    9059    9063    9064    9065    9066
    9070    9071    9076    9063    9064    9065    9066    9070    9072    9076
    9061    9062    9067    9068    9069    9073    9074    9075    9077    9078
    9079    9062    9067    9068    9069    9067    9068    9069    9064    9065
    9070    9071    9072    9076    9070    9071    9066    9070    9071    9072
    9076    9070    9072    9068    9069    9073    9074    9075    9077    9078
    9079    9080    9081    9082    9069    9073    9074    9075    9073    9074
    9075    9071    9072    9076    9076    9076    9074    9075    9077    9078
    9079    9080    9081    9082    9083    9084    9085    9075    9077    9078
    9079    9077    9078    9079       0    9078    9079    9080    9081    9082
    9079    9080    9081    9082    9080    9081    9082    9083    9084    9085
    9086    9087    9088    9081    9082    9083    9084    9085    9086    9087
    9088    9082    9083    9084    9085    9083    9084    9085    9084    9085
    9086    9087    9088    9085    9086    9087    9088    9086    9087    9088
    9087    9088    9088       0    9090    9091    9092    9093    9094    9095
    9096    9097    9098    9099    9100    9101    9091    9092    9093    9094
    9095    9096    9097    9098    9099    9102    9103    9104    9092    9093
    9094    9095    9096    9099    9100    9101    9102    9104    9105    9093
    9094    9095    9096    9099    9100    9101    9105    9106    9107    9094
    9097    9098    9099    9102    9103    9108    9109    9110    9111    9095
    9096    9097    9098    9099    9100    9102    9104    9108    9096    9099
    9100    9101    9105    9112    9113    9100    9101    9105    9106    9107
    9112    9113    9114    9098    9099    9102    9103    9104    9108    9109
    9110    9111    9115    9116    9117    9102    9103    9102    9103    9104
    9108    9101    9105    9106    9107    9112    9113    9118    9105    9106
    9107    9112    9114    9118    9103    9104    9108    9109    9110    9111
    9108    9109    9110    9111    9115    9116    9117    9119    9120    9121
    9108    9106    9112    9113    9114    9118    9122    9123    9107    9112
    9113    9114    9118    9122    9123    9112    9114       0    9110    9111
    9115    9116    9117    9119    9120    9121    9124    9125    9126    9111
    9115    9116    9117    9115    9116    9117    9113    9114    9118    9122
    9123    9127    9128    9129    9130    9118    9118    9116    9117    9119
    9120    9121    9124    9125    9126    9131    9132    9133    9117    9119
    9120    9121    9119    9120    9121    9122    9123    9127    9128    9129
    9130    9134    9135    9136    9120    9121    9124    9125    9126    9131
    9132    9133    9137    9138    9139    9121    9124    9125    9126    9124
    9125    9126    9123    9127    9128    9129    9130    9134    9135    9140
    9127    9128    9129    9130    9134    9136    9140    9125    9126    9131
    9132    9133    9137    9138    9139    9141    9142    9143    9126    9131
    9132    9133    9131    9132    9133    9128    9129    9134    9135    9136
    9140    9134    9135    9130    9134    9135    9136    9140    9134    9136
    9132    9133    9137    9138    9139    9141    9142    9143    9144    9145
    9146    9133    9137    9138    9139    9137    9138    9139    9135    9136
    9140    9140    9140    9138    9139    9141    9142    9143    9144    9145
    9146    9147    9148    9149    9139    9141    9142    9143    9141    9142
    9143       0    9142    9143    9144    9145    9146    9143    9144    9145
    9146    9144    9145    9146    9147    9148    9149    9150    9151    9152
    9145    9146    9147    9148    9149    9150    9151    9152    9146    9147
    9148    9149    9147    9148    9149    9148    9149    9150    9151    9152
    9149    9150    9151    9152    9150    9151    9152    9151    9152    9152
       0    9154    9155    9156    9157    9158    9159    9160    9161    9162
    9163    9164    9165    9155    9156    9157    9158    9159    9160    9161
    9162    9163    9166    9167    9168    9156    9157    9158    9159    9160
    9163    9164    9165    9166    9168    9169    9157    9158    9159    9160
    9163    9164    9165    9169    9170    9171    9158    9161    9162    9163
    9166    9167    9172    9173    9174    9175    9159    9160    9161    9162
    9163    9164    9166    9168    9172    9160    9163    9164    9165    9169
    9176    9177    9164    9165    9169    9170    9171    9176    9177    9178
    9162    9163    9166    9167    9168    9172    9173    9174    9175    9179
    9180    9181    9166    9167    9166    9167    9168    9172    9165    9169
    9170    9171    9176    9177    9182    9169    9170    9171    9176    9178
    9182    9167    9168    9172    9173    9174    9175    9172    9173    9174
    9175    9179    9180    9181    9183    9184    9185    9172    9170    9176
    9177    9178    9182    9186    9187    9171    9176    9177    9178    9182
    9186    9187    9176    9178       0    9174    9175    9179    9180    9181
    9183    9184    9185    9188    9189    9190    9175    9179    9180    9181
    9179    9180    9181    9177    9178    9182    9186    9187    9191    9192
    9193    9194    9182    9182    9180    9181    9183    9184    9185    9188
    9189    9190    9195    9196    9197    9181    9183    9184    9185    9183
    9184    9185    9186    9187    9191    9192    9193    9194    9198    9199
    9200    9184    9185    9188    9189    9190    9195    9196    9197    9201
    9202    9203    9185    9188    9189    9190    9188    9189    9190    9187
    9191    9192    9193    9194    9198    9199    9204    9191    9192    9193
    9194    9198    9200    9204    9189    9190    9195    9196    9197    9201
    9202    9203    9205    9206    9207    9190    9195    9196    9197    9195
    9196    9197    9192    9193    9198    9199    9200    9204    9198    9199
    9194    9198    9199    9200    9204    9198    9200    9196    9197    9201
    9202    9203    9205    9206    9207    9208    9209    9210    9197    9201
    9202    9203    9201    9202    9203    9199    9200    9204    9204    9204
    9202    9203    9205    9206    9207    9208    9209    9210    9211    9212
    9213    9203    9205    9206    9207    9205    9206    9207       0    9206
    9207    9208    9209    9210    9207    9208    9209    9210    9208    9209
    9210    9211    9212    9213    9214    9215    9216    9209    9210    9211
    9212    9213    9214    9215    9216    9210    9211    9212    9213    9211
    9212    9213    9212    9213    9214    9215    9216    9213    9214    9215
    9216    9214    9215    9216    9215    9216    9216       0    9218    9219
    9220    9221    9222    9223    9224    9225    9226    9227    9228    9229
    9219    9220    9221    9222    9223    9224    9225    9226    9227    9230
    9231    9232    9220    9221    9222    9223    9224    9227    9228    9229
    9230    9232    9233    9221    9222    9223    9224    9227    9228    9229
    9233    9234    9235    9222    9225    9226    9227    9230    9231    9236
    9237    9238    9239    9223    9224    9225    9226    9227    9228    9230
    9232    9236    9224    9227    9228    9229    9233    9240    9241    9228
    9229    9233    9234    9235    9240    9241    9242    9226    9227    9230
    9231    9232    9236    9237    9238    9239    9243    9244    9245    9230
    9231    9230    9231    9232    9236    9229    9233    9234    9235    9240
    9241    9246    9233    9234    9235    9240    9242    9246    9231    9232
    9236    9237    9238    9239    9236    9237    9238    9239    9243    9244
    9245    9247    9248    9249    9236    9234    9240    9241    9242    9246
    9250    9251    9235    9240    9241    9242    9246    9250    9251    9240
    9242       0    9238    9239    9243    9244    9245    9247    9248    9249
    9252    9253    9254    9239    9243    9244    9245    9243    9244    9245
    9241    9242    9246    9250    9251    9255    9256    9257    9258    9246
    9246    9244    9245    9247    9248    9249    9252    9253    9254    9259
    9260    9261    9245    9247    9248    9249    9247    9248    9249    9250
    9251    9255    9256    9257    9258    9262    9263    9264    9248    9249
    9252    9253    9254    9259    9260    9261    9265    9266    9267    9249
    9252    9253    9254    9252    9253    9254    9251    9255    9256    9257
    9258    9262    9263    9268    9255    9256    9257    9258    9262    9264
    9268    9253    9254    9259    9260    9261    9265    9266    9267    9269
    9270    9271    9254    9259    9260    9261    9259    9260    9261    9256
    9257    9262    9263    9264    9268    9262    9263    9258    9262    9263
    9264    9268    9262    9264    9260    9261    9265    9266    9267    9269
    9270    9271    9272    9273    9274    9261    9265    9266    9267    9265
    9266    9267    9263    9264    9268    9268    9268    9266    9267    9269
    9270    9271    9272    9273    9274    9275    9276    9277    9267    9269
    9270    9271    9269    9270    9271       0    9270    9271    9272    9273
    9274    9271    9272    9273    9274    9272    9273    9274    9275    9276
    9277    9278    9279    9280    9273    9274    9275    9276    9277    9278
    9279    9280    9274    9275    9276    9277    9275    9276    9277    9276
    9277    9278    9279    9280    9277    9278    9279    9280    9278    9279
    9280    9279    9280    9280       0    9282    9283    9284    9285    9286
    9287    9288    9289    9290    9291    9292    9293    9283    9284    9285
    9286    9287    9288    9289    9290    9291    9294    9295    9296    9284
    9285    9286    9287    9288    9291    9292    9293    9294    9296    9297
    9285    9286    9287    9288    9291    9292    9293    9297    9298    9299
    9286    9289    9290    9291    9294    9295    9300    9301    9302    9303
    9287    9288    9289    9290    9291    9292    9294    9296    9300    9288
    9291    9292    9293    9297    9304    9305    9292    9293    9297    9298
    9299    9304    9305    9306    9290    9291    9294    9295    9296    9300
    9301    9302    9303    9307    9308    9309    9294    9295    9294    9295
    9296    9300    9293    9297    9298    9299    9304    9305    9310    9297
    9298    9299    9304    9306    9310    9295    9296    9300    9301    9302
    9303    9300    9301    9302    9303    9307    9308    9309    9311    9312
    9313    9300    9298    9304    9305    9306    9310    9314    9315    9299
    9304    9305    9306    9310    9314    9315    9304    9306       0    9302
    9303    9307    9308    9309    9311    9312    9313    9316    9317    9318
    9303    9307    9308    9309    9307    9308    9309    9305    9306    9310
    9314    9315    9319    9320    9321    9322    9310    9310    9308    9309
    9311    9312    9313    9316    9317    9318    9323    9324    9325    9309
    9311    9312    9313    9311    9312    9313    9314    9315    9319    9320
    9321    9322    9326    9327    9328    9312    9313    9316    9317    9318
    9323    9324    9325    9329    9330    9331    9313    9316    9317    9318
    9316    9317    9318    9315    9319    9320    9321    9322    9326    9327
    9332    9319    9320    9321    9322    9326    9328    9332    9317    9318
    9323    9324    9325    9329    9330    9331    9333    9334    9335    9318
    9323    9324    9325    9323    9324    9325    9320    9321    9326    9327
    9328    9332    9326    9327    9322    9326    9327    9328    9332    9326
    9328    9324    9325    9329    9330    9331    9333    9334    9335    9336
    9337    9338    9325    9329    9330    9331    9329    9330    9331    9327
    9328    9332    9332    9332    9330    9331    9333    9334    9335    9336
    9337    9338    9339    9340    9341    9331    9333    9334    9335    9333
    9334    9335       0    9334    9335    9336    9337    9338    9335    9336
    9337    9338    9336    9337    9338    9339    9340    9341    9342    9343
    9344    9337    9338    9339    9340    9341    9342    9343    9344    9338
    9339    9340    9341    9339    9340    9341    9340    9341    9342    9343
    9344    9341    9342    9343    9344    9342    9343    9344    9343    9344
    9344       0    9346    9347    9348    9349    9350    9351    9352    9353
    9354    9355    9356    9357    9347    9348    9349    9350    9351    9352
    9353    9354    9355    9358    9359    9360    9348    9349    9350    9351
    9352    9355    9356    9357    9358    9360    9361    9349    9350    9351
    9352    9355    9356    9357    9361    9362    9363    9350    9353    9354
    9355    9358    9359    9364    9365    9366    9367    9351    9352    9353
    9354    9355    9356    9358    9360    9364    9352    9355    9356    9357
    9361    9368    9369    9356    9357    9361    9362    9363    9368    9369
    9370    9354    9355    9358    9359    9360    9364    9365    9366    9367
    9371    9372    9373    9358    9359    9358    9359    9360    9364    9357
    9361    9362    9363    9368    9369    9374    9361    9362    9363    9368
    9370    9374    9359    9360    9364    9365    9366    9367    9364    9365
    9366    9367    9371    9372    9373    9375    9376    9377    9364    9362
    9368    9369    9370    9374    9378    9379    9363    9368    9369    9370
    9374    9378    9379    9368    9370       0    9366    9367    9371    9372
    9373    9375    9376    9377    9380    9381    9382    9367    9371    9372
    9373    9371    9372    9373    9369    9370    9374    9378    9379    9383
    9384    9385    9386    9374    9374    9372    9373    9375    9376    9377
    9380    9381    9382    9387    9388    9389    9373    9375    9376    9377
    9375    9376    9377    9378    9379    9383    9384    9385    9386    9390
    9391    9392    9376    9377    9380    9381    9382    9387    9388    9389
    9393    9394    9395    9377    9380    9381    9382    9380    9381    9382
    9379    9383    9384    9385    9386    9390    9391    9396    9383    9384
    9385    9386    9390    9392    9396    9381    9382    9387    9388    9389
    9393    9394    9395    9397    9398    9399    9382    9387    9388    9389
    9387    9388    9389    9384    9385    9390    9391    9392    9396    9390
    9391    9386    9390    9391    9392    9396    9390    9392    9388    9389
    9393    9394    9395    9397    9398    9399    9400    9401    9402    9389
    9393    9394    9395    9393    9394    9395    9391    9392    9396    9396
    9396    9394    9395    9397    9398    9399    9400    9401    9402    9403
    9404    9405    9395    9397    9398    9399    9397    9398    9399       0
    9398    9399    9400    9401    9402    9399    9400    9401    9402    9400
    9401    9402    9403    9404    9405    9406    9407    9408    9401    9402
    9403    9404    9405    9406    9407    9408    9402    9403    9404    9405
    9403    9404    9405    9404    9405    9406    9407    9408    9405    9406
    9407    9408    9406    9407    9408    9407    9408    9408       0    9410
    9411    9412    9413    9414    9415    9416    9417    9418    9419    9420
    9421    9411    9412    9413    9414    9415    9416    9417    9418    9419
    9422    9423    9424    9412    9413    9414    9415    9416    9419    9420
    9421    9422    9424    9425    9413    9414    9415    9416    9419    9420
    9421    9425    9426    9427    9414    9417    9418    9419    9422    9423
    9428    9429    9430    9431    9415    9416    9417    9418    9419    9420
    9422    9424    9428    9416    9419    9420    9421    9425    9432    9433
    9420    9421    9425    9426    9427    9432    9433    9434    9418    9419
    9422    9423    9424    9428    9429    9430    9431    9435    9436    9437
    9422    9423    9422    9423    9424    9428    9421    9425    9426    9427
    9432    9433    9438    9425    9426    9427    9432    9434    9438    9423
    9424    9428    9429    9430    9431    9428    9429    9430    9431    9435
    9436    9437    9439    9440    9441    9428    9426    9432    9433    9434
    9438    9442    9443    9427    9432    9433    9434    9438    9442    9443
    9432    9434       0    9430    9431    9435    9436    9437    9439    9440
    9441    9444    9445    9446    9431    9435    9436    9437    9435    9436
    9437    9433    9434    9438    9442    9443    9447    9448    9449    9450
    9438    9438    9436    9437    9439    9440    9441    9444    9445    9446
    9451    9452    9453    9437    9439    9440    9441    9439    9440    9441
    9442    9443    9447    9448    9449    9450    9454    9455    9456    9440
    9441    9444    9445    9446    9451    9452    9453    9457    9458    9459
    9441    9444    9445    9446    9444    9445    9446    9443    9447    9448
    9449    9450    9454    9455    9460    9447    9448    9449    9450    9454
    9456    9460    9445    9446    9451    9452    9453    9457    9458    9459
    9461    9462    9463    9446    9451    9452    9453    9451    9452    9453
    9448    9449    9454    9455    9456    9460    9454    9455    9450    9454
    9455    9456    9460    9454    9456    9452    9453    9457    9458    9459
    9461    9462    9463    9464    9465    9466    9453    9457    9458    9459
    9457    9458    9459    9455    9456    9460    9460    9460    9458    9459
    9461    9462    9463    9464    9465    9466    9467    9468    9469    9459
    9461    9462    9463    9461    9462    9463       0    9462    9463    9464
    9465    9466    9463    9464    9465    9466    9464    9465    9466    9467
    9468    9469    9470    9471    9472    9465    9466    9467    9468    9469
    9470    9471    9472    9466    9467    9468    9469    9467    9468    9469
    9468    9469    9470    9471    9472    9469    9470    9471    9472    9470
    9471    9472    9471    9472    9472       0    9474    9475    9476    9477
    9478    9479    9480    9481    9482    9483    9484    9485    9475    9476
    9477    9478    9479    9480    9481    9482    9483    9486    9487    9488
    9476    9477    9478    9479    9480    9483    9484    9485    9486    9488
    9489    9477    9478    9479    9480    9483    9484    9485    9489    9490
    9491    9478    9481    9482    9483    9486    9487    9492    9493    9494
    9495    9479    9480    9481    9482    9483    9484    9486    9488    9492
    9480    9483    9484    9485    9489    9496    9497    9484    9485    9489
    9490    9491    9496    9497    9498    9482    9483    9486    9487    9488
    9492    9493    9494    9495    9499    9500    9501    9486    9487    9486
    9487    9488    9492    9485    9489    9490    9491    9496    9497    9502
    9489    9490    9491    9496    9498    9502    9487    9488    9492    9493
    9494    9495    9492    9493    9494    9495    9499    9500    9501    9503
    9504    9505    9492    9490    9496    9497    9498    9502    9506    9507
    9491    9496    9497    9498    9502    9506    9507    9496    9498       0
    9494    9495    9499    9500    9501    9503    9504    9505    9508    9509
    9510    9495    9499    9500    9501    9499    9500    9501    9497    9498
    9502    9506    9507    9511    9512    9513    9514    9502    9502    9500
    9501    9503    9504    9505    9508    9509    9510    9515    9516    9517
    9501    9503    9504    9505    9503    9504    9505    9506    9507    9511
    9512    9513    9514    9518    9519    9520    9504    9505    9508    9509
    9510    9515    9516    9517    9521    9522    9523    9505    9508    9509
    9510    9508    9509    9510    9507    9511    9512    9513    9514    9518
    9519    9524    9511    9512    9513    9514    9518    9520    9524    9509
    9510    9515    9516    9517    9521    9522    9523    9525    9526    9527
    9510    9515    9516    9517    9515    9516    9517    9512    9513    9518
    9519    9520    9524    9518    9519    9514    9518    9519    9520    9524
    9518    9520    9516    9517    9521    9522    9523    9525    9526    9527
    9528    9529    9530    9517    9521    9522    9523    9521    9522    9523
    9519    9520    9524    9524    9524    9522    9523    9525    9526    9527
    9528    9529    9530    9531    9532    9533    9523    9525    9526    9527
    9525    9526    9527       0    9526    9527    9528    9529    9530    9527
    9528    9529    9530    9528    9529    9530    9531    9532    9533    9534
    9535    9536    9529    9530    9531    9532    9533    9534    9535    9536
    9530    9531    9532    9533    9531    9532    9533    9532    9533    9534
    9535    9536    9533    9534    9535    9536    9534    9535    9536    9535
    9536    9536       0    9538    9539    9540    9541    9542    9543    9544
    9545    9546    9547    9548    9549    9539    9540    9541    9542    9543
    9544    9545    9546    9547    9550    9551    9552    9540    9541    9542
    9543    9544    9547    9548    9549    9550    9552    9553    9541    9542
    9543    9544    9547    9548    9549    9553    9554    9555    9542    9545
    9546    9547    9550    9551    9556    9557    9558    9559    9543    9544
    9545    9546    9547    9548    9550    9552    9556    9544    9547    9548
    9549    9553    9560    9561    9548    9549    9553    9554    9555    9560
    9561    9562    9546    9547    9550    9551    9552    9556    9557    9558
    9559    9563    9564    9565    9550    9551    9550    9551    9552    9556
    9549    9553    9554    9555    9560    9561    9566    9553    9554    9555
    9560    9562    9566    9551    9552    9556    9557    9558    9559    9556
    9557    9558    9559    9563    9564    9565    9567    9568    9569    9556
    9554    9560    9561    9562    9566    9570    9571    9555    9560    9561
    9562    9566    9570    9571    9560    9562       0    9558    9559    9563
    9564    9565    9567    9568    9569    9572    9573    9574    9559    9563
    9564    9565    9563    9564    9565    9561    9562    9566    9570    9571
    9575    9576    9577    9578    9566    9566    9564    9565    9567    9568
    9569    9572    9573    9574    9579    9580    9581    9565    9567    9568
    9569    9567    9568    9569    9570    9571    9575    9576    9577    9578
    9582    9583    9584    9568    9569    9572    9573    9574    9579    9580
    9581    9585    9586    9587    9569    9572    9573    9574    9572    9573
    9574    9571    9575    9576    9577    9578    9582    9583    9588    9575
    9576    9577    9578    9582    9584    9588    9573    9574    9579    9580
    9581    9585    9586    9587    9589    9590    9591    9574    9579    9580
    9581    9579    9580    9581    9576    9577    9582    9583    9584    9588
    9582    9583    9578    9582    9583    9584    9588    9582    9584    9580
    9581    9585    9586    9587    9589    9590    9591    9592    9593    9594
    9581    9585    9586    9587    9585    9586    9587    9583    9584    9588
    9588    9588    9586    9587    9589    9590    9591    9592    9593    9594
    9595    9596    9597    9587    9589    9590    9591    9589    9590    9591
       0    9590    9591    9592    9593    9594    9591    9592    9593    9594
    9592    9593    9594    9595    9596    9597    9598    9599    9600    9593
    9594    9595    9596    9597    9598    9599    9600    9594    9595    9596
    9597    9595    9596    9597    9596    9597    9598    9599    9600    9597
    9598    9599    9600    9598    9599    9600    9599    9600    9600       0
    9602    9603    9604    9605    9606    9607    9608    9609    9610    9611
    9612    9613    9603    9604    9605    9606    9607    9608    9609    9610
    9611    9614    9615    9616    9604    9605    9606    9607    9608    9611
    9612    9613    9614    9616    9617    9605    9606    9607    9608    9611
    9612    9613    9617    9618    9619    9606    9609    9610    9611    9614
    9615    9620    9621    9622    9623    9607    9608    9609    9610    9611
    9612    9614    9616    9620    9608    9611    9612    9613    9617    9624
    9625    9612    9613    9617    9618    9619    9624    9625    9626    9610
    9611    9614    9615    9616    9620    9621    9622    9623    9627    9628
    9629    9614    9615    9614    9615    9616    9620    9613    9617    9618
    9619    9624    9625    9630    9617    9618    9619    9624    9626    9630
    9615    9616    9620    9621    9622    9623    9620    9621    9622    9623
    9627    9628    9629    9631    9632    9633    9620    9618    9624    9625
    9626    9630    9634    9635    9619    9624    9625    9626    9630    9634
    9635    9624    9626       0    9622    9623    9627    9628    9629    9631
    9632    9633    9636    9637    9638    9623    9627    9628    9629    9627
    9628    9629    9625    9626    9630    9634    9635    9639    9640    9641
    9642    9630    9630    9628    9629    9631    9632    9633    9636    9637
    9638    9643    9644    9645    9629    9631    9632    9633    9631    9632
    9633    9634    9635    9639    9640    9641    9642    9646    9647    9648
    9632    9633    9636    9637    9638    9643    9644    9645    9649    9650
    9651    9633    9636    9637    9638    9636    9637    9638    9635    9639
    9640    9641    9642    9646    9647    9652    9639    9640    9641    9642
    9646    9648    9652    9637    9638    9643    9644    9645    9649    9650
    9651    9653    9654    9655    9638    9643    9644    9645    9643    9644
    9645    9640    9641    9646    9647    9648    9652    9646    9647    9642
    9646    9647    9648    9652    9646    9648    9644    9645    9649    9650
    9651    9653    9654    9655    9656    9657    9658    9645    9649    9650
    9651    9649    9650    9651    9647    9648    9652    9652    9652    9650
    9651    9653    9654    9655    9656    9657    9658    9659    9660    9661
    9651    9653    9654    9655    9653    9654    9655       0    9654    9655
    9656    9657    9658    9655    9656    9657    9658    9656    9657    9658
    9659    9660    9661    9662    9663    9664    9657    9658    9659    9660
    9661    9662    9663    9664    9658    9659    9660    9661    9659    9660
    9661    9660    9661    9662    9663    9664    9661    9662    9663    9664
    9662    9663    9664    9663    9664    9664       0    9666    9667    9668
    9669    9670    9671    9672    9673    9674    9675    9676    9677    9667
    9668    9669    9670    9671    9672    9673    9674    9675    9678    9679
    9680    9668    9669    9670    9671    9672    9675    9676    9677    9678
    9680    9681    9669    9670    9671    9672    9675    9676    9677    9681
    9682    9683    9670    9673    9674    9675    9678    9679    9684    9685
    9686    9687    9671    9672    9673    9674    9675    9676    9678    9680
    9684    9672    9675    9676    9677    9681    9688    9689    9676    9677
    9681    9682    9683    9688    9689    9690    9674    9675    9678    9679
    9680    9684    9685    9686    9687    9691    9692    9693    9678    9679
    9678    9679    9680    9684    9677    9681    9682    9683    9688    9689
    9694    9681    9682    9683    9688    9690    9694    9679    9680    9684
    9685    9686    9687    9684    9685    9686    9687    9691    9692    9693
    9695    9696    9697    9684    9682    9688    9689    9690    9694    9698
    9699    9683    9688    9689    9690    9694    9698    9699    9688    9690
       0    9686    9687    9691    9692    9693    9695    9696    9697    9700
    9701    9702    9687    9691    9692    9693    9691    9692    9693    9689
    9690    9694    9698    9699    9703    9704    9705    9706    9694    9694
    9692    9693    9695    9696    9697    9700    9701    9702    9707    9708
    9709    9693    9695    9696    9697    9695    9696    9697    9698    9699
    9703    9704    9705    9706    9710    9711    9712    9696    9697    9700
    9701    9702    9707    9708    9709    9713    9714    9715    9697    9700
    9701    9702    9700    9701    9702    9699    9703    9704    9705    9706
    9710    9711    9716    9703    9704    9705    9706    9710    9712    9716
    9701    9702    9707    9708    9709    9713    9714    9715    9717    9718
    9719    9702    9707    9708    9709    9707    9708    9709    9704    9705
    9710    9711    9712    9716    9710    9711    9706    9710    9711    9712
    9716    9710    9712    9708    9709    9713    9714    9715    9717    9718
    9719    9720    9721    9722    9709    9713    9714    9715    9713    9714
    9715    9711    9712    9716    9716    9716    9714    9715    9717    9718
    9719    9720    9721    9722    9723    9724    9725    9715    9717    9718
    9719    9717    9718    9719       0    9718    9719    9720    9721    9722
    9719    9720    9721    9722    9720    9721    9722    9723    9724    9725
    9726    9727    9728    9721    9722    9723    9724    9725    9726    9727
    9728    9722    9723    9724    9725    9723    9724    9725    9724    9725
    9726    9727    9728    9725    9726    9727    9728    9726    9727    9728
    9727    9728    9728       0    9730    9731    9732    9733    9734    9735
    9736    9737    9738    9739    9740    9741    9731    9732    9733    9734
    9735    9736    9737    9738    9739    9742    9743    9744    9732    9733
    9734    9735    9736    9739    9740    9741    9742    9744    9745    9733
    9734    9735    9736    9739    9740    9741    9745    9746    9747    9734
    9737    9738    9739    9742    9743    9748    9749    9750    9751    9735
    9736    9737    9738    9739    9740    9742    9744    9748    9736    9739
    9740    9741    9745    9752    9753    9740    9741    9745    9746    9747
    9752    9753    9754    9738    9739    9742    9743    9744    9748    9749
    9750    9751    9755    9756    9757    9742    9743    9742    9743    9744
    9748    9741    9745    9746    9747    9752    9753    9758    9745    9746
    9747    9752    9754    9758    9743    9744    9748    9749    9750    9751
    9748    9749    9750    9751    9755    9756    9757    9759    9760    9761
    9748    9746    9752    9753    9754    9758    9762    9763    9747    9752
    9753    9754    9758    9762    9763    9752    9754       0    9750    9751
    9755    9756    9757    9759    9760    9761    9764    9765    9766    9751
    9755    9756    9757    9755    9756    9757    9753    9754    9758    9762
    9763    9767    9768    9769    9770    9758    9758    9756    9757    9759
    9760    9761    9764    9765    9766    9771    9772    9773    9757    9759
    9760    9761    9759    9760    9761    9762    9763    9767    9768    9769
    9770    9774    9775    9776    9760    9761    9764    9765    9766    9771
    9772    9773    9777    9778    9779    9761    9764    9765    9766    9764
    9765    9766    9763    9767    9768    9769    9770    9774    9775    9780
    9767    9768    9769    9770    9774    9776    9780    9765    9766    9771
    9772    9773    9777    9778    9779    9781    9782    9783    9766    9771
    9772    9773    9771    9772    9773    9768    9769    9774    9775    9776
    9780    9774    9775    9770    9774    9775    9776    9780    9774    9776
    9772    9773    9777    9778    9779    9781    9782    9783    9784    9785
    9786    9773    9777    9778    9779    9777    9778    9779    9775    9776
    9780    9780    9780    9778    9779    9781    9782    9783    9784    9785
    9786    9787    9788    9789    9779    9781    9782    9783    9781    9782
    9783       0    9782    9783    9784    9785    9786    9783    9784    9785
    9786    9784    9785    9786    9787    9788    9789    9790    9791    9792
    9785    9786    9787    9788    9789    9790    9791    9792    9786    9787
    9788    9789    9787    9788    9789    9788    9789    9790    9791    9792
    9789    9790    9791    9792    9790    9791    9792    9791    9792    9792
       0    9794    9795    9796    9797    9798    9799    9800    9801    9802
    9803    9804    9805    9795    9796    9797    9798    9799    9800    9801
    9802    9803    9806    9807    9808    9796    9797    9798    9799    9800
    9803    9804    9805    9806    9808    9809    9797    9798    9799    9800
    9803    9804    9805    9809    9810    9811    9798    9801    9802    9803
    9806    9807    9812    9813    9814    9815    9799    9800    9801    9802
    9803    9804    9806    9808    9812    9800    9803    9804    9805    9809
    9816    9817    9804    9805    9809    9810    9811    9816    9817    9818
    9802    9803    9806    9807    9808    9812    9813    9814    9815    9819
    9820    9821    9806    9807    9806    9807    9808    9812    9805    9809
    9810    9811    9816    9817    9822    9809    9810    9811    9816    9818
    9822    9807    9808    9812    9813    9814    9815    9812    9813    9814
    9815    9819    9820    9821    9823    9824    9825    9812    9810    9816
    9817    9818    9822    9826    9827    9811    9816    9817    9818    9822
    9826    9827    9816    9818       0    9814    9815    9819    9820    9821
    9823    9824    9825    9828    9829    9830    9815    9819    9820    9821
    9819    9820    9821    9817    9818    9822    9826    9827    9831    9832
    9833    9834    9822    9822    9820    9821    9823    9824    9825    9828
    9829    9830    9835    9836    9837    9821    9823    9824    9825    9823
    9824    9825    9826    9827    9831    9832    9833    9834    9838    9839
    9840    9824    9825    9828    9829    9830    9835    9836    9837    9841
    9842    9843    9825    9828    9829    9830    9828    9829    9830    9827
    9831    9832    9833    9834    9838    9839    9844    9831    9832    9833
    9834    9838    9840    9844    9829    9830    9835    9836    9837    9841
    9842    9843    9845    9846    9847    9830    9835    9836    9837    9835
    9836    9837    9832    9833    9838    9839    9840    9844    9838    9839
    9834    9838    9839    9840    9844    9838    9840    9836    9837    9841
    9842    9843    9845    9846    9847    9848    9849    9850    9837    9841
    9842    9843    9841    9842    9843    9839    9840    9844    9844    9844
    9842    9843    9845    9846    9847    9848    9849    9850    9851    9852
    9853    9843    9845    9846    9847    9845    9846    9847       0    9846
    9847    9848    9849    9850    9847    9848    9849    9850    9848    9849
    9850    9851    9852    9853    9854    9855    9856    9849    9850    9851
    9852    9853    9854    9855    9856    9850    9851    9852    9853    9851
    9852    9853    9852    9853    9854    9855    9856    9853    9854    9855
    9856    9854    9855    9856    9855    9856    9856       0    9858    9859
    9860    9861    9862    9863    9864    9865    9866    9867    9868    9869
    9859    9860    9861    9862    9863    9864    9865    9866    9867    9870
    9871    9872    9860    9861    9862    9863    9864    9867    9868    9869
    9870    9872    9873    9861    9862    9863    9864    9867    9868    9869
    9873    9874    9875    9862    9865    9866    9867    9870    9871    9876
    9877    9878    9879    9863    9864    9865    9866    9867    9868    9870
    9872    9876    9864    9867    9868    9869    9873    9880    9881    9868
    9869    9873    9874    9875    9880    9881    9882    9866    9867    9870
    9871    9872    9876    9877    9878    9879    9883    9884    9885    9870
    9871    9870    9871    9872    9876    9869    9873    9874    9875    9880
    9881    9886    9873    9874    9875    9880    9882    9886    9871    9872
    9876    9877    9878    9879    9876    9877    9878    9879    9883    9884
    9885    9887    9888    9889    9876    9874    9880    9881    9882    9886
    9890    9891    9875    9880    9881    9882    9886    9890    9891    9880
    9882       0    9878    9879    9883    9884    9885    9887    9888    9889
    9892    9893    9894    9879    9883    9884    9885    9883    9884    9885
    9881    9882    9886    9890    9891    9895    9896    9897    9898    9886
    9886    9884    9885    9887    9888    9889    9892    9893    9894    9899
    9900    9901    9885    9887    9888    9889    9887    9888    9889    9890
    9891    9895    9896    9897    9898    9902    9903    9904    9888    9889
    9892    9893    9894    9899    9900    9901    9905    9906    9907    9889
    9892    9893    9894    9892    9893    9894    9891    9895    9896    9897
    9898    9902    9903    9908    9895    9896    9897    9898    9902    9904
    9908    9893    9894    9899    9900    9901    9905    9906    9907    9909
    9910    9911    9894    9899    9900    9901    9899    9900    9901    9896
    9897    9902    9903    9904    9908    9902    9903    9898    9902    9903
    9904    9908    9902    9904    9900    9901    9905    9906    9907    9909
    9910    9911    9912    9913    9914    9901    9905    9906    9907    9905
    9906    9907    9903    9904    9908    9908    9908    9906    9907    9909
    9910    9911    9912    9913    9914    9915    9916    9917    9907    9909
    9910    9911    9909    9910    9911       0    9910    9911    9912    9913
    9914    9911    9912    9913    9914    9912    9913    9914    9915    9916
    9917    9918    9919    9920    9913    9914    9915    9916    9917    9918
    9919    9920    9914    9915    9916    9917    9915    9916    9917    9916
    9917    9918    9919    9920    9917    9918    9919    9920    9918    9919
    9920    9919    9920    9920       0    9922    9923    9924    9925    9926
    9927    9928    9929    9930    9931    9932    9933    9923    9924    9925
    9926    9927    9928    9929    9930    9931    9934    9935    9936    9924
    9925    9926    9927    9928    9931    9932    9933    9934    9936    9937
    9925    9926    9927    9928    9931    9932    9933    9937    9938    9939
    9926    9929    9930    9931    9934    9935    9940    9941    9942    9943
    9927    9928    9929    9930    9931    9932    9934    9936    9940    9928
    9931    9932    9933    9937    9944    9945    9932    9933    9937    9938
    9939    9944    9945    9946    9930    9931    9934    9935    9936    9940
    9941    9942    9943    9947    9948    9949    9934    9935    9934    9935
    9936    9940    9933    9937    9938    9939    9944    9945    9950    9937
    9938    9939    9944    9946    9950    9935    9936    9940    9941    9942
    9943    9940    9941    9942    9943    9947    9948    9949    9951    9952
    9953    9940    9938    9944    9945    9946    9950    9954    9955    9939
    9944    9945    9946    9950    9954    9955    9944    9946       0    9942
    9943    9947    9948    9949    9951    9952    9953    9956    9957    9958
    9943    9947    9948    9949    9947    9948    9949    9945    9946    9950
    9954    9955    9959    9960    9961    9962    9950    9950    9948    9949
    9951    9952    9953    9956    9957    9958    9963    9964    9965    9949
    9951    9952    9953    9951    9952    9953    9954    9955    9959    9960
    9961    9962    9966    9967    9968    9952    9953    9956    9957    9958
    9963    9964    9965    9969    9970    9971    9953    9956    9957    9958
    9956    9957    9958    9955    9959    9960    9961    9962    9966    9967
    9972    9959    9960    9961    9962    9966    9968    9972    9957    9958
    9963    9964    9965    9969    9970    9971    9973    9974    9975    9958
    9963    9964    9965    9963    9964    9965    9960    9961    9966    9967
    9968    9972    9966    9967    9962    9966    9967    9968    9972    9966
    9968    9964    9965    9969    9970    9971    9973    9974    9975    9976
    9977    9978    9965    9969    9970    9971    9969    9970    9971    9967
    9968    9972    9972    9972    9970    9971    9973    9974    9975    9976
    9977    9978    9979    9980    9981    9971    9973    9974    9975    9973
    9974    9975       0    9974    9975    9976    9977    9978    9975    9976
    9977    9978    9976    9977    9978    9979    9980    9981    9982    9983
    9984    9977    9978    9979    9980    9981    9982    9983    9984    9978
    9979    9980    9981    9979    9980    9981    9980    9981    9982    9983
    9984    9981    9982    9983    9984    9982    9983    9984    9983    9984
    9984       0    9986    9987    9988    9989    9990    9991    9992    9993
    9994    9995    9996    9997    9987    9988    9989    9990    9991    9992
    9993    9994    9995    9998    9999   10000    9988    9989    9990    9991
    9992    9995    9996    9997    9998   10000   10001    9989    9990    9991
    9992    9995    9996    9997   10001   10002   10003    9990    9993    9994
    9995    9998    9999   10004   10005   10006   10007    9991    9992    9993
    9994    9995    9996    9998   10000   10004    9992    9995    9996    9997
   10001   10008   10009    9996    9997   10001   10002   10003   10008   10009
   10010    9994    9995    9998    9999   10000   10004   10005   10006   10007
   10011   10012   10013    9998    9999    9998    9999   10000   10004    9997
   10001   10002   10003   10008   10009   10014   10001   10002   10003   10008
   10010   10014    9999   10000   10004   10005   10006   10007   10004   10005
   10006   10007   10011   10012   10013   10015   10016   10017   10004   10002
   10008   10009   10010   10014   10018   10019   10003   10008   10009   10010
   10014   10018   10019   10008   10010       0   10006   10007   10011   10012
   10013   10015   10016   10017   10020   10021   10022   10007   10011   10012
   10013   10011   10012   10013   10009   10010   10014   10018   10019   10023
   10024   10025   10026   10014   10014   10012   10013   10015   10016   10017
   10020   10021   10022   10027   10028   10029   10013   10015   10016   10017
   10015   10016   10017   10018   10019   10023   10024   10025   10026   10030
   10031   10032   10016   10017   10020   10021   10022   10027   10028   10029
   10033   10034   10035   10017   10020   10021   10022   10020   10021   10022
   10019   10023   10024   10025   10026   10030   10031   10036   10023   10024
   10025   10026   10030   10032   10036   10021   10022   10027   10028   10029
   10033   10034   10035   10037   10038   10039   10022   10027   10028   10029
   10027   10028   10029   10024   10025   10030   10031   10032   10036   10030
   10031   10026   10030   10031   10032   10036   10030   10032   10028   10029
   10033   10034   10035   10037   10038   10039   10040   10041   10042   10029
   10033   10034   10035   10033   10034   10035   10031   10032   10036   10036
   10036   10034   10035   10037   10038   10039   10040   10041   10042   10043
   10044   10045   10035   10037   10038   10039   10037   10038   10039       0
   10038   10039   10040   10041   10042   10039   10040   10041   10042   10040
   10041   10042   10043   10044   10045   10046   10047   10048   10041   10042
   10043   10044   10045   10046   10047   10048   10042   10043   10044   10045
   10043   10044   10045   10044   10045   10046   10047   10048   10045   10046
   10047   10048   10046   10047   10048   10047   10048   10048       0   10050
   10051   10052   10053   10054   10055   10056   10057   10058   10059   10060
   10061   10051   10052   10053   10054   10055   10056   10057   10058   10059
   10062   10063   10064   10052   10053   10054   10055   10056   10059   10060
   10061   10062   10064   10065   10053   10054   10055   10056   10059   10060
   10061   10065   10066   10067   10054   10057   10058   10059   10062   10063
   10068   10069   10070   10071   10055   10056   10057   10058   10059   10060
   10062   10064   10068   10056   10059   10060   10061   10065   10072   10073
   10060   10061   10065   10066   10067   10072   10073   10074   10058   10059
   10062   10063   10064   10068   10069   10070   10071   10075   10076   10077
   10062   10063   10062   10063   10064   10068   10061   10065   10066   10067
   10072   10073   10078   10065   10066   10067   10072   10074   10078   10063
   10064   10068   10069   10070   10071   10068   10069   10070   10071   10075
   10076   10077   10079   10080   10081   10068   10066   10072   10073   10074
   10078   10082   10083   10067   10072   10073   10074   10078   10082   10083
   10072   10074       0   10070   10071   10075   10076   10077   10079   10080
   10081   10084   10085   10086   10071   10075   10076   10077   10075   10076
   10077   10073   10074   10078   10082   10083   10087   10088   10089   10090
   10078   10078   10076   10077   10079   10080   10081   10084   10085   10086
   10091   10092   10093   10077   10079   10080   10081   10079   10080   10081
   10082   10083   10087   10088   10089   10090   10094   10095   10096   10080
   10081   10084   10085   10086   10091   10092   10093   10097   10098   10099
   10081   10084   10085   10086   10084   10085   10086   10083   10087   10088
   10089   10090   10094   10095   10100   10087   10088   10089   10090   10094
   10096   10100   10085   10086   10091   10092   10093   10097   10098   10099
   10101   10102   10103   10086   10091   10092   10093   10091   10092   10093
   10088   10089   10094   10095   10096   10100   10094   10095   10090   10094
   10095   10096   10100   10094   10096   10092   10093   10097   10098   10099
   10101   10102   10103   10104   10105   10106   10093   10097   10098   10099
   10097   10098   10099   10095   10096   10100   10100   10100   10098   10099
   10101   10102   10103   10104   10105   10106   10107   10108   10109   10099
   10101   10102   10103   10101   10102   10103       0   10102   10103   10104
   10105   10106   10103   10104   10105   10106   10104   10105   10106   10107
   10108   10109   10110   10111   10112   10105   10106   10107   10108   10109
   10110   10111   10112   10106   10107   10108   10109   10107   10108   10109
   10108   10109   10110   10111   10112   10109   10110   10111   10112   10110
   10111   10112   10111   10112   10112       0   10114   10115   10116   10117
   10118   10119   10120   10121   10122   10123   10124   10125   10115   10116
   10117   10118   10119   10120   10121   10122   10123   10126   10127   10128
   10116   10117   10118   10119   10120   10123   10124   10125   10126   10128
   10129   10117   10118   10119   10120   10123   10124   10125   10129   10130
   10131   10118   10121   10122   10123   10126   10127   10132   10133   10134
   10135   10119   10120   10121   10122   10123   10124   10126   10128   10132
   10120   10123   10124   10125   10129   10136   10137   10124   10125   10129
   10130   10131   10136   10137   10138   10122   10123   10126   10127   10128
   10132   10133   10134   10135   10139   10140   10141   10126   10127   10126
   10127   10128   10132   10125   10129   10130   10131   10136   10137   10142
   10129   10130   10131   10136   10138   10142   10127   10128   10132   10133
   10134   10135   10132   10133   10134   10135   10139   10140   10141   10143
   10144   10145   10132   10130   10136   10137   10138   10142   10146   10147
   10131   10136   10137   10138   10142   10146   10147   10136   10138       0
   10134   10135   10139   10140   10141   10143   10144   10145   10148   10149
   10150   10135   10139   10140   10141   10139   10140   10141   10137   10138
   10142   10146   10147   10151   10152   10153   10154   10142   10142   10140
   10141   10143   10144   10145   10148   10149   10150   10155   10156   10157
   10141   10143   10144   10145   10143   10144   10145   10146   10147   10151
   10152   10153   10154   10158   10159   10160   10144   10145   10148   10149
   10150   10155   10156   10157   10161   10162   10163   10145   10148   10149
   10150   10148   10149   10150   10147   10151   10152   10153   10154   10158
   10159   10164   10151   10152   10153   10154   10158   10160   10164   10149
   10150   10155   10156   10157   10161   10162   10163   10165   10166   10167
   10150   10155   10156   10157   10155   10156   10157   10152   10153   10158
   10159   10160   10164   10158   10159   10154   10158   10159   10160   10164
   10158   10160   10156   10157   10161   10162   10163   10165   10166   10167
   10168   10169   10170   10157   10161   10162   10163   10161   10162   10163
   10159   10160   10164   10164   10164   10162   10163   10165   10166   10167
   10168   10169   10170   10171   10172   10173   10163   10165   10166   10167
   10165   10166   10167       0   10166   10167   10168   10169   10170   10167
   10168   10169   10170   10168   10169   10170   10171   10172   10173   10174
   10175   10176   10169   10170   10171   10172   10173   10174   10175   10176
   10170   10171   10172   10173   10171   10172   10173   10172   10173   10174
   10175   10176   10173   10174   10175   10176   10174   10175   10176   10175
   10176   10176       0   10178   10179   10180   10181   10182   10183   10184
   10185   10186   10187   10188   10189   10179   10180   10181   10182   10183
   10184   10185   10186   10187   10190   10191   10192   10180   10181   10182
   10183   10184   10187   10188   10189   10190   10192   10193   10181   10182
   10183   10184   10187   10188   10189   10193   10194   10195   10182   10185
   10186   10187   10190   10191   10196   10197   10198   10199   10183   10184
   10185   10186   10187   10188   10190   10192   10196   10184   10187   10188
   10189   10193   10200   10201   10188   10189   10193   10194   10195   10200
   10201   10202   10186   10187   10190   10191   10192   10196   10197   10198
   10199   10203   10204   10205   10190   10191   10190   10191   10192   10196
   10189   10193   10194   10195   10200   10201   10206   10193   10194   10195
   10200   10202   10206   10191   10192   10196   10197   10198   10199   10196
   10197   10198   10199   10203   10204   10205   10207   10208   10209   10196
   10194   10200   10201   10202   10206   10210   10211   10195   10200   10201
   10202   10206   10210   10211   10200   10202       0   10198   10199   10203
   10204   10205   10207   10208   10209   10212   10213   10214   10199   10203
   10204   10205   10203   10204   10205   10201   10202   10206   10210   10211
   10215   10216   10217   10218   10206   10206   10204   10205   10207   10208
   10209   10212   10213   10214   10219   10220   10221   10205   10207   10208
   10209   10207   10208   10209   10210   10211   10215   10216   10217   10218
   10222   10223   10224   10208   10209   10212   10213   10214   10219   10220
   10221   10225   10226   10227   10209   10212   10213   10214   10212   10213
   10214   10211   10215   10216   10217   10218   10222   10223   10228   10215
   10216   10217   10218   10222   10224   10228   10213   10214   10219   10220
   10221   10225   10226   10227   10229   10230   10231   10214   10219   10220
   10221   10219   10220   10221   10216   10217   10222   10223   10224   10228
   10222   10223   10218   10222   10223   10224   10228   10222   10224   10220
   10221   10225   10226   10227   10229   10230   10231   10232   10233   10234
   10221   10225   10226   10227   10225   10226   10227   10223   10224   10228
   10228   10228   10226   10227   10229   10230   10231   10232   10233   10234
   10235   10236   10237   10227   10229   10230   10231   10229   10230   10231
       0   10230   10231   10232   10233   10234   10231   10232   10233   10234
   10232   10233   10234   10235   10236   10237   10238   10239   10240   10233
   10234   10235   10236   10237   10238   10239   10240   10234   10235   10236
   10237   10235   10236   10237   10236   10237   10238   10239   10240   10237
   10238   10239   10240   10238   10239   10240   10239   10240   10240       0
   10242   10243   10244   10245   10246   10247   10248   10249   10250   10251
   10252   10253   10243   10244   10245   10246   10247   10248   10249   10250
   10251   10254   10255   10256   10244   10245   10246   10247   10248   10251
   10252   10253   10254   10256   10257   10245   10246   10247   10248   10251
   10252   10253   10257   10258   10259   10246   10249   10250   10251   10254
   10255   10260   10261   10262   10263   10247   10248   10249   10250   10251
   10252   10254   10256   10260   10248   10251   10252   10253   10257   10264
   10265   10252   10253   10257   10258   10259   10264   10265   10266   10250
   10251   10254   10255   10256   10260   10261   10262   10263   10267   10268
   10269   10254   10255   10254   10255   10256   10260   10253   10257   10258
   10259   10264   10265   10270   10257   10258   10259   10264   10266   10270
   10255   10256   10260   10261   10262   10263   10260   10261   10262   10263
   10267   10268   10269   10271   10272   10273   10260   10258   10264   10265
   10266   10270   10274   10275   10259   10264   10265   10266   10270   10274
   10275   10264   10266       0   10262   10263   10267   10268   10269   10271
   10272   10273   10276   10277   10278   10263   10267   10268   10269   10267
   10268   10269   10265   10266   10270   10274   10275   10279   10280   10281
   10282   10270   10270   10268   10269   10271   10272   10273   10276   10277
   10278   10283   10284   10285   10269   10271   10272   10273   10271   10272
   10273   10274   10275   10279   10280   10281   10282   10286   10287   10288
   10272   10273   10276   10277   10278   10283   10284   10285   10289   10290
   10291   10273   10276   10277   10278   10276   10277   10278   10275   10279
   10280   10281   10282   10286   10287   10292   10279   10280   10281   10282
   10286   10288   10292   10277   10278   10283   10284   10285   10289   10290
   10291   10293   10294   10295   10278   10283   10284   10285   10283   10284
   10285   10280   10281   10286   10287   10288   10292   10286   10287   10282
   10286   10287   10288   10292   10286   10288   10284   10285   10289   10290
   10291   10293   10294   10295   10296   10297   10298   10285   10289   10290
   10291   10289   10290   10291   10287   10288   10292   10292   10292   10290
   10291   10293   10294   10295   10296   10297   10298   10299   10300   10301
   10291   10293   10294   10295   10293   10294   10295       0   10294   10295
   10296   10297   10298   10295   10296   10297   10298   10296   10297   10298
   10299   10300   10301   10302   10303   10304   10297   10298   10299   10300
   10301   10302   10303   10304   10298   10299   10300   10301   10299   10300
   10301   10300   10301   10302   10303   10304   10301   10302   10303   10304
   10302   10303   10304   10303   10304   10304       0   10306   10307   10308
   10309   10310   10311   10312   10313   10314   10315   10316   10317   10307
   10308   10309   10310   10311   10312   10313   10314   10315   10318   10319
   10320   10308   10309   10310   10311   10312   10315   10316   10317   10318
   10320   10321   10309   10310   10311   10312   10315   10316   10317   10321
   10322   10323   10310   10313   10314   10315   10318   10319   10324   10325
   10326   10327   10311   10312   10313   10314   10315   10316   10318   10320
   10324   10312   10315   10316   10317   10321   10328   10329   10316   10317
   10321   10322   10323   10328   10329   10330   10314   10315   10318   10319
   10320   10324   10325   10326   10327   10331   10332   10333   10318   10319
   10318   10319   10320   10324   10317   10321   10322   10323   10328   10329
   10334   10321   10322   10323   10328   10330   10334   10319   10320   10324
   10325   10326   10327   10324   10325   10326   10327   10331   10332   10333
   10335   10336   10337   10324   10322   10328   10329   10330   10334   10338
   10339   10323   10328   10329   10330   10334   10338   10339   10328   10330
       0   10326   10327   10331   10332   10333   10335   10336   10337   10340
   10341   10342   10327   10331   10332   10333   10331   10332   10333   10329
   10330   10334   10338   10339   10343   10344   10345   10346   10334   10334
   10332   10333   10335   10336   10337   10340   10341   10342   10347   10348
   10349   10333   10335   10336   10337   10335   10336   10337   10338   10339
   10343   10344   10345   10346   10350   10351   10352   10336   10337   10340
   10341   10342   10347   10348   10349   10353   10354   10355   10337   10340
   10341   10342   10340   10341   10342   10339   10343   10344   10345   10346
   10350   10351   10356   10343   10344   10345   10346   10350   10352   10356
   10341   10342   10347   10348   10349   10353   10354   10355   10357   10358
   10359   10342   10347   10348   10349   10347   10348   10349   10344   10345
   10350   10351   10352   10356   10350   10351   10346   10350   10351   10352
   10356   10350   10352   10348   10349   10353   10354   10355   10357   10358
   10359   10360   10361   10362   10349   10353   10354   10355   10353   10354
   10355   10351   10352   10356   10356   10356   10354   10355   10357   10358
   10359   10360   10361   10362   10363   10364   10365   10355   10357   10358
   10359   10357   10358   10359       0   10358   10359   10360   10361   10362
   10359   10360   10361   10362   10360   10361   10362   10363   10364   10365
   10366   10367   10368   10361   10362   10363   10364   10365   10366   10367
   10368   10362   10363   10364   10365   10363   10364   10365   10364   10365
   10366   10367   10368   10365   10366   10367   10368   10366   10367   10368
   10367   10368   10368       0   10370   10371   10372   10373   10374   10375
   10376   10377   10378   10379   10380   10381   10371   10372   10373   10374
   10375   10376   10377   10378   10379   10382   10383   10384   10372   10373
   10374   10375   10376   10379   10380   10381   10382   10384   10385   10373
   10374   10375   10376   10379   10380   10381   10385   10386   10387   10374
   10377   10378   10379   10382   10383   10388   10389   10390   10391   10375
   10376   10377   10378   10379   10380   10382   10384   10388   10376   10379
   10380   10381   10385   10392   10393   10380   10381   10385   10386   10387
   10392   10393   10394   10378   10379   10382   10383   10384   10388   10389
   10390   10391   10395   10396   10397   10382   10383   10382   10383   10384
   10388   10381   10385   10386   10387   10392   10393   10398   10385   10386
   10387   10392   10394   10398   10383   10384   10388   10389   10390   10391
   10388   10389   10390   10391   10395   10396   10397   10399   10400   10401
   10388   10386   10392   10393   10394   10398   10402   10403   10387   10392
   10393   10394   10398   10402   10403   10392   10394       0   10390   10391
   10395   10396   10397   10399   10400   10401   10404   10405   10406   10391
   10395   10396   10397   10395   10396   10397   10393   10394   10398   10402
   10403   10407   10408   10409   10410   10398   10398   10396   10397   10399
   10400   10401   10404   10405   10406   10411   10412   10413   10397   10399
   10400   10401   10399   10400   10401   10402   10403   10407   10408   10409
   10410   10414   10415   10416   10400   10401   10404   10405   10406   10411
   10412   10413   10417   10418   10419   10401   10404   10405   10406   10404
   10405   10406   10403   10407   10408   10409   10410   10414   10415   10420
   10407   10408   10409   10410   10414   10416   10420   10405   10406   10411
   10412   10413   10417   10418   10419   10421   10422   10423   10406   10411
   10412   10413   10411   10412   10413   10408   10409   10414   10415   10416
   10420   10414   10415   10410   10414   10415   10416   10420   10414   10416
   10412   10413   10417   10418   10419   10421   10422   10423   10424   10425
   10426   10413   10417   10418   10419   10417   10418   10419   10415   10416
   10420   10420   10420   10418   10419   10421   10422   10423   10424   10425
   10426   10427   10428   10429   10419   10421   10422   10423   10421   10422
   10423       0   10422   10423   10424   10425   10426   10423   10424   10425
   10426   10424   10425   10426   10427   10428   10429   10430   10431   10432
   10425   10426   10427   10428   10429   10430   10431   10432   10426   10427
   10428   10429   10427   10428   10429   10428   10429   10430   10431   10432
   10429   10430   10431   10432   10430   10431   10432   10431   10432   10432
       0   10434   10435   10436   10437   10438   10439   10440   10441   10442
   10443   10444   10445   10435   10436   10437   10438   10439   10440   10441
   10442   10443   10446   10447   10448   10436   10437   10438   10439   10440
   10443   10444   10445   10446   10448   10449   10437   10438   10439   10440
   10443   10444   10445   10449   10450   10451   10438   10441   10442   10443
   10446   10447   10452   10453   10454   10455   10439   10440   10441   10442
   10443   10444   10446   10448   10452   10440   10443   10444   10445   10449
   10456   10457   10444   10445   10449   10450   10451   10456   10457   10458
   10442   10443   10446   10447   10448   10452   10453   10454   10455   10459
   10460   10461   10446   10447   10446   10447   10448   10452   10445   10449
   10450   10451   10456   10457   10462   10449   10450   10451   10456   10458
   10462   10447   10448   10452   10453   10454   10455   10452   10453   10454
   10455   10459   10460   10461   10463   10464   10465   10452   10450   10456
   10457   10458   10462   10466   10467   10451   10456   10457   10458   10462
   10466   10467   10456   10458       0   10454   10455   10459   10460   10461
   10463   10464   10465   10468   10469   10470   10455   10459   10460   10461
   10459   10460   10461   10457   10458   10462   10466   10467   10471   10472
   10473   10474   10462   10462   10460   10461   10463   10464   10465   10468
   10469   10470   10475   10476   10477   10461   10463   10464   10465   10463
   10464   10465   10466   10467   10471   10472   10473   10474   10478   10479
   10480   10464   10465   10468   10469   10470   10475   10476   10477   10481
   10482   10483   10465   10468   10469   10470   10468   10469   10470   10467
   10471   10472   10473   10474   10478   10479   10484   10471   10472   10473
   10474   10478   10480   10484   10469   10470   10475   10476   10477   10481
   10482   10483   10485   10486   10487   10470   10475   10476   10477   10475
   10476   10477   10472   10473   10478   10479   10480   10484   10478   10479
   10474   10478   10479   10480   10484   10478   10480   10476   10477   10481
   10482   10483   10485   10486   10487   10488   10489   10490   10477   10481
   10482   10483   10481   10482   10483   10479   10480   10484   10484   10484
   10482   10483   10485   10486   10487   10488   10489   10490   10491   10492
   10493   10483   10485   10486   10487   10485   10486   10487       0   10486
   10487   10488   10489   10490   10487   10488   10489   10490   10488   10489
   10490   10491   10492   10493   10494   10495   10496   10489   10490   10491
   10492   10493   10494   10495   10496   10490   10491   10492   10493   10491
   10492   10493   10492   10493   10494   10495   10496   10493   10494   10495
   10496   10494   10495   10496   10495   10496   10496       0   10498   10499
   10500   10501   10502   10503   10504   10505   10506   10507   10508   10509
   10499   10500   10501   10502   10503   10504   10505   10506   10507   10510
   10511   10512   10500   10501   10502   10503   10504   10507   10508   10509
   10510   10512   10513   10501   10502   10503   10504   10507   10508   10509
   10513   10514   10515   10502   10505   10506   10507   10510   10511   10516
   10517   10518   10519   10503   10504   10505   10506   10507   10508   10510
   10512   10516   10504   10507   10508   10509   10513   10520   10521   10508
   10509   10513   10514   10515   10520   10521   10522   10506   10507   10510
   10511   10512   10516   10517   10518   10519   10523   10524   10525   10510
   10511   10510   10511   10512   10516   10509   10513   10514   10515   10520
   10521   10526   10513   10514   10515   10520   10522   10526   10511   10512
   10516   10517   10518   10519   10516   10517   10518   10519   10523   10524
   10525   10527   10528   10529   10516   10514   10520   10521   10522   10526
   10530   10531   10515   10520   10521   10522   10526   10530   10531   10520
   10522       0   10518   10519   10523   10524   10525   10527   10528   10529
   10532   10533   10534   10519   10523   10524   10525   10523   10524   10525
   10521   10522   10526   10530   10531   10535   10536   10537   10538   10526
   10526   10524   10525   10527   10528   10529   10532   10533   10534   10539
   10540   10541   10525   10527   10528   10529   10527   10528   10529   10530
   10531   10535   10536   10537   10538   10542   10543   10544   10528   10529
   10532   10533   10534   10539   10540   10541   10545   10546   10547   10529
   10532   10533   10534   10532   10533   10534   10531   10535   10536   10537
   10538   10542   10543   10548   10535   10536   10537   10538   10542   10544
   10548   10533   10534   10539   10540   10541   10545   10546   10547   10549
   10550   10551   10534   10539   10540   10541   10539   10540   10541   10536
   10537   10542   10543   10544   10548   10542   10543   10538   10542   10543
   10544   10548   10542   10544   10540   10541   10545   10546   10547   10549
   10550   10551   10552   10553   10554   10541   10545   10546   10547   10545
   10546   10547   10543   10544   10548   10548   10548   10546   10547   10549
   10550   10551   10552   10553   10554   10555   10556   10557   10547   10549
   10550   10551   10549   10550   10551       0   10550   10551   10552   10553
   10554   10551   10552   10553   10554   10552   10553   10554   10555   10556
   10557   10558   10559   10560   10553   10554   10555   10556   10557   10558
   10559   10560   10554   10555   10556   10557   10555   10556   10557   10556
   10557   10558   10559   10560   10557   10558   10559   10560   10558   10559
   10560   10559   10560   10560       0   10562   10563   10564   10565   10566
   10567   10568   10569   10570   10571   10572   10573   10563   10564   10565
   10566   10567   10568   10569   10570   10571   10574   10575   10576   10564
   10565   10566   10567   10568   10571   10572   10573   10574   10576   10577
   10565   10566   10567   10568   10571   10572   10573   10577   10578   10579
   10566   10569   10570   10571   10574   10575   10580   10581   10582   10583
   10567   10568   10569   10570   10571   10572   10574   10576   10580   10568
   10571   10572   10573   10577   10584   10585   10572   10573   10577   10578
   10579   10584   10585   10586   10570   10571   10574   10575   10576   10580
   10581   10582   10583   10587   10588   10589   10574   10575   10574   10575
   10576   10580   10573   10577   10578   10579   10584   10585   10590   10577
   10578   10579   10584   10586   10590   10575   10576   10580   10581   10582
   10583   10580   10581   10582   10583   10587   10588   10589   10591   10592
   10593   10580   10578   10584   10585   10586   10590   10594   10595   10579
   10584   10585   10586   10590   10594   10595   10584   10586       0   10582
   10583   10587   10588   10589   10591   10592   10593   10596   10597   10598
   10583   10587   10588   10589   10587   10588   10589   10585   10586   10590
   10594   10595   10599   10600   10601   10602   10590   10590   10588   10589
   10591   10592   10593   10596   10597   10598   10603   10604   10605   10589
   10591   10592   10593   10591   10592   10593   10594   10595   10599   10600
   10601   10602   10606   10607   10608   10592   10593   10596   10597   10598
   10603   10604   10605   10609   10610   10611   10593   10596   10597   10598
   10596   10597   10598   10595   10599   10600   10601   10602   10606   10607
   10612   10599   10600   10601   10602   10606   10608   10612   10597   10598
   10603   10604   10605   10609   10610   10611   10613   10614   10615   10598
   10603   10604   10605   10603   10604   10605   10600   10601   10606   10607
   10608   10612   10606   10607   10602   10606   10607   10608   10612   10606
   10608   10604   10605   10609   10610   10611   10613   10614   10615   10616
   10617   10618   10605   10609   10610   10611   10609   10610   10611   10607
   10608   10612   10612   10612   10610   10611   10613   10614   10615   10616
   10617   10618   10619   10620   10621   10611   10613   10614   10615   10613
   10614   10615       0   10614   10615   10616   10617   10618   10615   10616
   10617   10618   10616   10617   10618   10619   10620   10621   10622   10623
   10624   10617   10618   10619   10620   10621   10622   10623   10624   10618
   10619   10620   10621   10619   10620   10621   10620   10621   10622   10623
   10624   10621   10622   10623   10624   10622   10623   10624   10623   10624
   10624       0   10626   10627   10628   10629   10630   10631   10632   10633
   10634   10635   10636   10637   10627   10628   10629   10630   10631   10632
   10633   10634   10635   10638   10639   10640   10628   10629   10630   10631
   10632   10635   10636   10637   10638   10640   10641   10629   10630   10631
   10632   10635   10636   10637   10641   10642   10643   10630   10633   10634
   10635   10638   10639   10644   10645   10646   10647   10631   10632   10633
   10634   10635   10636   10638   10640   10644   10632   10635   10636   10637
   10641   10648   10649   10636   10637   10641   10642   10643   10648   10649
   10650   10634   10635   10638   10639   10640   10644   10645   10646   10647
   10651   10652   10653   10638   10639   10638   10639   10640   10644   10637
   10641   10642   10643   10648   10649   10654   10641   10642   10643   10648
   10650   10654   10639   10640   10644   10645   10646   10647   10644   10645
   10646   10647   10651   10652   10653   10655   10656   10657   10644   10642
   10648   10649   10650   10654   10658   10659   10643   10648   10649   10650
   10654   10658   10659   10648   10650       0   10646   10647   10651   10652
   10653   10655   10656   10657   10660   10661   10662   10647   10651   10652
   10653   10651   10652   10653   10649   10650   10654   10658   10659   10663
   10664   10665   10666   10654   10654   10652   10653   10655   10656   10657
   10660   10661   10662   10667   10668   10669   10653   10655   10656   10657
   10655   10656   10657   10658   10659   10663   10664   10665   10666   10670
   10671   10672   10656   10657   10660   10661   10662   10667   10668   10669
   10673   10674   10675   10657   10660   10661   10662   10660   10661   10662
   10659   10663   10664   10665   10666   10670   10671   10676   10663   10664
   10665   10666   10670   10672   10676   10661   10662   10667   10668   10669
   10673   10674   10675   10677   10678   10679   10662   10667   10668   10669
   10667   10668   10669   10664   10665   10670   10671   10672   10676   10670
   10671   10666   10670   10671   10672   10676   10670   10672   10668   10669
   10673   10674   10675   10677   10678   10679   10680   10681   10682   10669
   10673   10674   10675   10673   10674   10675   10671   10672   10676   10676
   10676   10674   10675   10677   10678   10679   10680   10681   10682   10683
   10684   10685   10675   10677   10678   10679   10677   10678   10679       0
   10678   10679   10680   10681   10682   10679   10680   10681   10682   10680
   10681   10682   10683   10684   10685   10686   10687   10688   10681   10682
   10683   10684   10685   10686   10687   10688   10682   10683   10684   10685
   10683   10684   10685   10684   10685   10686   10687   10688   10685   10686
   10687   10688   10686   10687   10688   10687   10688   10688       0   10690
   10691   10692   10693   10694   10695   10696   10697   10698   10699   10700
   10701   10691   10692   10693   10694   10695   10696   10697   10698   10699
   10702   10703   10704   10692   10693   10694   10695   10696   10699   10700
   10701   10702   10704   10705   10693   10694   10695   10696   10699   10700
   10701   10705   10706   10707   10694   10697   10698   10699   10702   10703
   10708   10709   10710   10711   10695   10696   10697   10698   10699   10700
   10702   10704   10708   10696   10699   10700   10701   10705   10712   10713
   10700   10701   10705   10706   10707   10712   10713   10714   10698   10699
   10702   10703   10704   10708   10709   10710   10711   10715   10716   10717
   10702   10703   10702   10703   10704   10708   10701   10705   10706   10707
   10712   10713   10718   10705   10706   10707   10712   10714   10718   10703
   10704   10708   10709   10710   10711   10708   10709   10710   10711   10715
   10716   10717   10719   10720   10721   10708   10706   10712   10713   10714
   10718   10722   10723   10707   10712   10713   10714   10718   10722   10723
   10712   10714       0   10710   10711   10715   10716   10717   10719   10720
   10721   10724   10725   10726   10711   10715   10716   10717   10715   10716
   10717   10713   10714   10718   10722   10723   10727   10728   10729   10730
   10718   10718   10716   10717   10719   10720   10721   10724   10725   10726
   10731   10732   10733   10717   10719   10720   10721   10719   10720   10721
   10722   10723   10727   10728   10729   10730   10734   10735   10736   10720
   10721   10724   10725   10726   10731   10732   10733   10737   10738   10739
   10721   10724   10725   10726   10724   10725   10726   10723   10727   10728
   10729   10730   10734   10735   10740   10727   10728   10729   10730   10734
   10736   10740   10725   10726   10731   10732   10733   10737   10738   10739
   10741   10742   10743   10726   10731   10732   10733   10731   10732   10733
   10728   10729   10734   10735   10736   10740   10734   10735   10730   10734
   10735   10736   10740   10734   10736   10732   10733   10737   10738   10739
   10741   10742   10743   10744   10745   10746   10733   10737   10738   10739
   10737   10738   10739   10735   10736   10740   10740   10740   10738   10739
   10741   10742   10743   10744   10745   10746   10747   10748   10749   10739
   10741   10742   10743   10741   10742   10743       0   10742   10743   10744
   10745   10746   10743   10744   10745   10746   10744   10745   10746   10747
   10748   10749   10750   10751   10752   10745   10746   10747   10748   10749
   10750   10751   10752   10746   10747   10748   10749   10747   10748   10749
   10748   10749   10750   10751   10752   10749   10750   10751   10752   10750
   10751   10752   10751   10752   10752       0   10754   10755   10756   10757
   10758   10759   10760   10761   10762   10763   10764   10765   10755   10756
   10757   10758   10759   10760   10761   10762   10763   10766   10767   10768
   10756   10757   10758   10759   10760   10763   10764   10765   10766   10768
   10769   10757   10758   10759   10760   10763   10764   10765   10769   10770
   10771   10758   10761   10762   10763   10766   10767   10772   10773   10774
   10775   10759   10760   10761   10762   10763   10764   10766   10768   10772
   10760   10763   10764   10765   10769   10776   10777   10764   10765   10769
   10770   10771   10776   10777   10778   10762   10763   10766   10767   10768
   10772   10773   10774   10775   10779   10780   10781   10766   10767   10766
   10767   10768   10772   10765   10769   10770   10771   10776   10777   10782
   10769   10770   10771   10776   10778   10782   10767   10768   10772   10773
   10774   10775   10772   10773   10774   10775   10779   10780   10781   10783
   10784   10785   10772   10770   10776   10777   10778   10782   10786   10787
   10771   10776   10777   10778   10782   10786   10787   10776   10778       0
   10774   10775   10779   10780   10781   10783   10784   10785   10788   10789
   10790   10775   10779   10780   10781   10779   10780   10781   10777   10778
   10782   10786   10787   10791   10792   10793   10794   10782   10782   10780
   10781   10783   10784   10785   10788   10789   10790   10795   10796   10797
   10781   10783   10784   10785   10783   10784   10785   10786   10787   10791
   10792   10793   10794   10798   10799   10800   10784   10785   10788   10789
   10790   10795   10796   10797   10801   10802   10803   10785   10788   10789
   10790   10788   10789   10790   10787   10791   10792   10793   10794   10798
   10799   10804   10791   10792   10793   10794   10798   10800   10804   10789
   10790   10795   10796   10797   10801   10802   10803   10805   10806   10807
   10790   10795   10796   10797   10795   10796   10797   10792   10793   10798
   10799   10800   10804   10798   10799   10794   10798   10799   10800   10804
   10798   10800   10796   10797   10801   10802   10803   10805   10806   10807
   10808   10809   10810   10797   10801   10802   10803   10801   10802   10803
   10799   10800   10804   10804   10804   10802   10803   10805   10806   10807
   10808   10809   10810   10811   10812   10813   10803   10805   10806   10807
   10805   10806   10807       0   10806   10807   10808   10809   10810   10807
   10808   10809   10810   10808   10809   10810   10811   10812   10813   10814
   10815   10816   10809   10810   10811   10812   10813   10814   10815   10816
   10810   10811   10812   10813   10811   10812   10813   10812   10813   10814
   10815   10816   10813   10814   10815   10816   10814   10815   10816   10815
   10816   10816       0   10818   10819   10820   10821   10822   10823   10824
   10825   10826   10827   10828   10829   10819   10820   10821   10822   10823
   10824   10825   10826   10827   10830   10831   10832   10820   10821   10822
   10823   10824   10827   10828   10829   10830   10832   10833   10821   10822
   10823   10824   10827   10828   10829   10833   10834   10835   10822   10825
   10826   10827   10830   10831   10836   10837   10838   10839   10823   10824
   10825   10826   10827   10828   10830   10832   10836   10824   10827   10828
   10829   10833   10840   10841   10828   10829   10833   10834   10835   10840
   10841   10842   10826   10827   10830   10831   10832   10836   10837   10838
   10839   10843   10844   10845   10830   10831   10830   10831   10832   10836
   10829   10833   10834   10835   10840   10841   10846   10833   10834   10835
   10840   10842   10846   10831   10832   10836   10837   10838   10839   10836
   10837   10838   10839   10843   10844   10845   10847   10848   10849   10836
   10834   10840   10841   10842   10846   10850   10851   10835   10840   10841
   10842   10846   10850   10851   10840   10842       0   10838   10839   10843
   10844   10845   10847   10848   10849   10852   10853   10854   10839   10843
   10844   10845   10843   10844   10845   10841   10842   10846   10850   10851
   10855   10856   10857   10858   10846   10846   10844   10845   10847   10848
   10849   10852   10853   10854   10859   10860   10861   10845   10847   10848
   10849   10847   10848   10849   10850   10851   10855   10856   10857   10858
   10862   10863   10864   10848   10849   10852   10853   10854   10859   10860
   10861   10865   10866   10867   10849   10852   10853   10854   10852   10853
   10854   10851   10855   10856   10857   10858   10862   10863   10868   10855
   10856   10857   10858   10862   10864   10868   10853   10854   10859   10860
   10861   10865   10866   10867   10869   10870   10871   10854   10859   10860
   10861   10859   10860   10861   10856   10857   10862   10863   10864   10868
   10862   10863   10858   10862   10863   10864   10868   10862   10864   10860
   10861   10865   10866   10867   10869   10870   10871   10872   10873   10874
   10861   10865   10866   10867   10865   10866   10867   10863   10864   10868
   10868   10868   10866   10867   10869   10870   10871   10872   10873   10874
   10875   10876   10877   10867   10869   10870   10871   10869   10870   10871
       0   10870   10871   10872   10873   10874   10871   10872   10873   10874
   10872   10873   10874   10875   10876   10877   10878   10879   10880   10873
   10874   10875   10876   10877   10878   10879   10880   10874   10875   10876
   10877   10875   10876   10877   10876   10877   10878   10879   10880   10877
   10878   10879   10880   10878   10879   10880   10879   10880   10880       0
   10882   10883   10884   10885   10886   10887   10888   10889   10890   10891
   10892   10893   10883   10884   10885   10886   10887   10888   10889   10890
   10891   10894   10895   10896   10884   10885   10886   10887   10888   10891
   10892   10893   10894   10896   10897   10885   10886   10887   10888   10891
   10892   10893   10897   10898   10899   10886   10889   10890   10891   10894
   10895   10900   10901   10902   10903   10887   10888   10889   10890   10891
   10892   10894   10896   10900   10888   10891   10892   10893   10897   10904
   10905   10892   10893   10897   10898   10899   10904   10905   10906   10890
   10891   10894   10895   10896   10900   10901   10902   10903   10907   10908
   10909   10894   10895   10894   10895   10896   10900   10893   10897   10898
   10899   10904   10905   10910   10897   10898   10899   10904   10906   10910
   10895   10896   10900   10901   10902   10903   10900   10901   10902   10903
   10907   10908   10909   10911   10912   10913   10900   10898   10904   10905
   10906   10910   10914   10915   10899   10904   10905   10906   10910   10914
   10915   10904   10906       0   10902   10903   10907   10908   10909   10911
   10912   10913   10916   10917   10918   10903   10907   10908   10909   10907
   10908   10909   10905   10906   10910   10914   10915   10919   10920   10921
   10922   10910   10910   10908   10909   10911   10912   10913   10916   10917
   10918   10923   10924   10925   10909   10911   10912   10913   10911   10912
   10913   10914   10915   10919   10920   10921   10922   10926   10927   10928
   10912   10913   10916   10917   10918   10923   10924   10925   10929   10930
   10931   10913   10916   10917   10918   10916   10917   10918   10915   10919
   10920   10921   10922   10926   10927   10932   10919   10920   10921   10922
   10926   10928   10932   10917   10918   10923   10924   10925   10929   10930
   10931   10933   10934   10935   10918   10923   10924   10925   10923   10924
   10925   10920   10921   10926   10927   10928   10932   10926   10927   10922
   10926   10927   10928   10932   10926   10928   10924   10925   10929   10930
   10931   10933   10934   10935   10936   10937   10938   10925   10929   10930
   10931   10929   10930   10931   10927   10928   10932   10932   10932   10930
   10931   10933   10934   10935   10936   10937   10938   10939   10940   10941
   10931   10933   10934   10935   10933   10934   10935       0   10934   10935
   10936   10937   10938   10935   10936   10937   10938   10936   10937   10938
   10939   10940   10941   10942   10943   10944   10937   10938   10939   10940
   10941   10942   10943   10944   10938   10939   10940   10941   10939   10940
   10941   10940   10941   10942   10943   10944   10941   10942   10943   10944
   10942   10943   10944   10943   10944   10944       0   10946   10947   10948
   10949   10950   10951   10952   10953   10954   10955   10956   10957   10947
   10948   10949   10950   10951   10952   10953   10954   10955   10958   10959
   10960   10948   10949   10950   10951   10952   10955   10956   10957   10958
   10960   10961   10949   10950   10951   10952   10955   10956   10957   10961
   10962   10963   10950   10953   10954   10955   10958   10959   10964   10965
   10966   10967   10951   10952   10953   10954   10955   10956   10958   10960
   10964   10952   10955   10956   10957   10961   10968   10969   10956   10957
   10961   10962   10963   10968   10969   10970   10954   10955   10958   10959
   10960   10964   10965   10966   10967   10971   10972   10973   10958   10959
   10958   10959   10960   10964   10957   10961   10962   10963   10968   10969
   10974   10961   10962   10963   10968   10970   10974   10959   10960   10964
   10965   10966   10967   10964   10965   10966   10967   10971   10972   10973
   10975   10976   10977   10964   10962   10968   10969   10970   10974   10978
   10979   10963   10968   10969   10970   10974   10978   10979   10968   10970
       0   10966   10967   10971   10972   10973   10975   10976   10977   10980
   10981   10982   10967   10971   10972   10973   10971   10972   10973   10969
   10970   10974   10978   10979   10983   10984   10985   10986   10974   10974
   10972   10973   10975   10976   10977   10980   10981   10982   10987   10988
   10989   10973   10975   10976   10977   10975   10976   10977   10978   10979
   10983   10984   10985   10986   10990   10991   10992   10976   10977   10980
   10981   10982   10987   10988   10989   10993   10994   10995   10977   10980
   10981   10982   10980   10981   10982   10979   10983   10984   10985   10986
   10990   10991   10996   10983   10984   10985   10986   10990   10992   10996
   10981   10982   10987   10988   10989   10993   10994   10995   10997   10998
   10999   10982   10987   10988   10989   10987   10988   10989   10984   10985
   10990   10991   10992   10996   10990   10991   10986   10990   10991   10992
   10996   10990   10992   10988   10989   10993   10994   10995   10997   10998
   10999   11000   11001   11002   10989   10993   10994   10995   10993   10994
   10995   10991   10992   10996   10996   10996   10994   10995   10997   10998
   10999   11000   11001   11002   11003   11004   11005   10995   10997   10998
   10999   10997   10998   10999       0   10998   10999   11000   11001   11002
   10999   11000   11001   11002   11000   11001   11002   11003   11004   11005
   11006   11007   11008   11001   11002   11003   11004   11005   11006   11007
   11008   11002   11003   11004   11005   11003   11004   11005   11004   11005
   11006   11007   11008   11005   11006   11007   11008   11006   11007   11008
   11007   11008   11008       0   11010   11011   11012   11013   11014   11015
   11016   11017   11018   11019   11020   11021   11011   11012   11013   11014
   11015   11016   11017   11018   11019   11022   11023   11024   11012   11013
   11014   11015   11016   11019   11020   11021   11022   11024   11025   11013
   11014   11015   11016   11019   11020   11021   11025   11026   11027   11014
   11017   11018   11019   11022   11023   11028   11029   11030   11031   11015
   11016   11017   11018   11019   11020   11022   11024   11028   11016   11019
   11020   11021   11025   11032   11033   11020   11021   11025   11026   11027
   11032   11033   11034   11018   11019   11022   11023   11024   11028   11029
   11030   11031   11035   11036   11037   11022   11023   11022   11023   11024
   11028   11021   11025   11026   11027   11032   11033   11038   11025   11026
   11027   11032   11034   11038   11023   11024   11028   11029   11030   11031
   11028   11029   11030   11031   11035   11036   11037   11039   11040   11041
   11028   11026   11032   11033   11034   11038   11042   11043   11027   11032
   11033   11034   11038   11042   11043   11032   11034       0   11030   11031
   11035   11036   11037   11039   11040   11041   11044   11045   11046   11031
   11035   11036   11037   11035   11036   11037   11033   11034   11038   11042
   11043   11047   11048   11049   11050   11038   11038   11036   11037   11039
   11040   11041   11044   11045   11046   11051   11052   11053   11037   11039
   11040   11041   11039   11040   11041   11042   11043   11047   11048   11049
   11050   11054   11055   11056   11040   11041   11044   11045   11046   11051
   11052   11053   11057   11058   11059   11041   11044   11045   11046   11044
   11045   11046   11043   11047   11048   11049   11050   11054   11055   11060
   11047   11048   11049   11050   11054   11056   11060   11045   11046   11051
   11052   11053   11057   11058   11059   11061   11062   11063   11046   11051
   11052   11053   11051   11052   11053   11048   11049   11054   11055   11056
   11060   11054   11055   11050   11054   11055   11056   11060   11054   11056
   11052   11053   11057   11058   11059   11061   11062   11063   11064   11065
   11066   11053   11057   11058   11059   11057   11058   11059   11055   11056
   11060   11060   11060   11058   11059   11061   11062   11063   11064   11065
   11066   11067   11068   11069   11059   11061   11062   11063   11061   11062
   11063       0   11062   11063   11064   11065   11066   11063   11064   11065
   11066   11064   11065   11066   11067   11068   11069   11070   11071   11072
   11065   11066   11067   11068   11069   11070   11071   11072   11066   11067
   11068   11069   11067   11068   11069   11068   11069   11070   11071   11072
   11069   11070   11071   11072   11070   11071   11072   11071   11072   11072
       0   11074   11075   11076   11077   11078   11079   11080   11081   11082
   11083   11084   11085   11075   11076   11077   11078   11079   11080   11081
   11082   11083   11086   11087   11088   11076   11077   11078   11079   11080
   11083   11084   11085   11086   11088   11089   11077   11078   11079   11080
   11083   11084   11085   11089   11090   11091   11078   11081   11082   11083
   11086   11087   11092   11093   11094   11095   11079   11080   11081   11082
   11083   11084   11086   11088   11092   11080   11083   11084   11085   11089
   11096   11097   11084   11085   11089   11090   11091   11096   11097   11098
   11082   11083   11086   11087   11088   11092   11093   11094   11095   11099
   11100   11101   11086   11087   11086   11087   11088   11092   11085   11089
   11090   11091   11096   11097   11102   11089   11090   11091   11096   11098
   11102   11087   11088   11092   11093   11094   11095   11092   11093   11094
   11095   11099   11100   11101   11103   11104   11105   11092   11090   11096
   11097   11098   11102   11106   11107   11091   11096   11097   11098   11102
   11106   11107   11096   11098       0   11094   11095   11099   11100   11101
   11103   11104   11105   11108   11109   11110   11095   11099   11100   11101
   11099   11100   11101   11097   11098   11102   11106   11107   11111   11112
   11113   11114   11102   11102   11100   11101   11103   11104   11105   11108
   11109   11110   11115   11116   11117   11101   11103   11104   11105   11103
   11104   11105   11106   11107   11111   11112   11113   11114   11118   11119
   11120   11104   11105   11108   11109   11110   11115   11116   11117   11121
   11122   11123   11105   11108   11109   11110   11108   11109   11110   11107
   11111   11112   11113   11114   11118   11119   11124   11111   11112   11113
   11114   11118   11120   11124   11109   11110   11115   11116   11117   11121
   11122   11123   11125   11126   11127   11110   11115   11116   11117   11115
   11116   11117   11112   11113   11118   11119   11120   11124   11118   11119
   11114   11118   11119   11120   11124   11118   11120   11116   11117   11121
   11122   11123   11125   11126   11127   11128   11129   11130   11117   11121
   11122   11123   11121   11122   11123   11119   11120   11124   11124   11124
   11122   11123   11125   11126   11127   11128   11129   11130   11131   11132
   11133   11123   11125   11126   11127   11125   11126   11127       0   11126
   11127   11128   11129   11130   11127   11128   11129   11130   11128   11129
   11130   11131   11132   11133   11134   11135   11136   11129   11130   11131
   11132   11133   11134   11135   11136   11130   11131   11132   11133   11131
   11132   11133   11132   11133   11134   11135   11136   11133   11134   11135
   11136   11134   11135   11136   11135   11136   11136       0   11138   11139
   11140   11141   11142   11143   11144   11145   11146   11147   11148   11149
   11139   11140   11141   11142   11143   11144   11145   11146   11147   11150
   11151   11152   11140   11141   11142   11143   11144   11147   11148   11149
   11150   11152   11153   11141   11142   11143   11144   11147   11148   11149
   11153   11154   11155   11142   11145   11146   11147   11150   11151   11156
   11157   11158   11159   11143   11144   11145   11146   11147   11148   11150
   11152   11156   11144   11147   11148   11149   11153   11160   11161   11148
   11149   11153   11154   11155   11160   11161   11162   11146   11147   11150
   11151   11152   11156   11157   11158   11159   11163   11164   11165   11150
   11151   11150   11151   11152   11156   11149   11153   11154   11155   11160
   11161   11166   11153   11154   11155   11160   11162   11166   11151   11152
   11156   11157   11158   11159   11156   11157   11158   11159   11163   11164
   11165   11167   11168   11169   11156   11154   11160   11161   11162   11166
   11170   11171   11155   11160   11161   11162   11166   11170   11171   11160
   11162       0   11158   11159   11163   11164   11165   11167   11168   11169
   11172   11173   11174   11159   11163   11164   11165   11163   11164   11165
   11161   11162   11166   11170   11171   11175   11176   11177   11178   11166
   11166   11164   11165   11167   11168   11169   11172   11173   11174   11179
   11180   11181   11165   11167   11168   11169   11167   11168   11169   11170
   11171   11175   11176   11177   11178   11182   11183   11184   11168   11169
   11172   11173   11174   11179   11180   11181   11185   11186   11187   11169
   11172   11173   11174   11172   11173   11174   11171   11175   11176   11177
   11178   11182   11183   11188   11175   11176   11177   11178   11182   11184
   11188   11173   11174   11179   11180   11181   11185   11186   11187   11189
   11190   11191   11174   11179   11180   11181   11179   11180   11181   11176
   11177   11182   11183   11184   11188   11182   11183   11178   11182   11183
   11184   11188   11182   11184   11180   11181   11185   11186   11187   11189
   11190   11191   11192   11193   11194   11181   11185   11186   11187   11185
   11186   11187   11183   11184   11188   11188   11188   11186   11187   11189
   11190   11191   11192   11193   11194   11195   11196   11197   11187   11189
   11190   11191   11189   11190   11191       0   11190   11191   11192   11193
   11194   11191   11192   11193   11194   11192   11193   11194   11195   11196
   11197   11198   11199   11200   11193   11194   11195   11196   11197   11198
   11199   11200   11194   11195   11196   11197   11195   11196   11197   11196
   11197   11198   11199   11200   11197   11198   11199   11200   11198   11199
   11200   11199   11200   11200       0   11202   11203   11204   11205   11206
   11207   11208   11209   11210   11211   11212   11213   11203   11204   11205
   11206   11207   11208   11209   11210   11211   11214   11215   11216   11204
   11205   11206   11207   11208   11211   11212   11213   11214   11216   11217
   11205   11206   11207   11208   11211   11212   11213   11217   11218   11219
   11206   11209   11210   11211   11214   11215   11220   11221   11222   11223
   11207   11208   11209   11210   11211   11212   11214   11216   11220   11208
   11211   11212   11213   11217   11224   11225   11212   11213   11217   11218
   11219   11224   11225   11226   11210   11211   11214   11215   11216   11220
   11221   11222   11223   11227   11228   11229   11214   11215   11214   11215
   11216   11220   11213   11217   11218   11219   11224   11225   11230   11217
   11218   11219   11224   11226   11230   11215   11216   11220   11221   11222
   11223   11220   11221   11222   11223   11227   11228   11229   11231   11232
   11233   11220   11218   11224   11225   11226   11230   11234   11235   11219
   11224   11225   11226   11230   11234   11235   11224   11226       0   11222
   11223   11227   11228   11229   11231   11232   11233   11236   11237   11238
   11223   11227   11228   11229   11227   11228   11229   11225   11226   11230
   11234   11235   11239   11240   11241   11242   11230   11230   11228   11229
   11231   11232   11233   11236   11237   11238   11243   11244   11245   11229
   11231   11232   11233   11231   11232   11233   11234   11235   11239   11240
   11241   11242   11246   11247   11248   11232   11233   11236   11237   11238
   11243   11244   11245   11249   11250   11251   11233   11236   11237   11238
   11236   11237   11238   11235   11239   11240   11241   11242   11246   11247
   11252   11239   11240   11241   11242   11246   11248   11252   11237   11238
   11243   11244   11245   11249   11250   11251   11253   11254   11255   11238
   11243   11244   11245   11243   11244   11245   11240   11241   11246   11247
   11248   11252   11246   11247   11242   11246   11247   11248   11252   11246
   11248   11244   11245   11249   11250   11251   11253   11254   11255   11256
   11257   11258   11245   11249   11250   11251   11249   11250   11251   11247
   11248   11252   11252   11252   11250   11251   11253   11254   11255   11256
   11257   11258   11259   11260   11261   11251   11253   11254   11255   11253
   11254   11255       0   11254   11255   11256   11257   11258   11255   11256
   11257   11258   11256   11257   11258   11259   11260   11261   11262   11263
   11264   11257   11258   11259   11260   11261   11262   11263   11264   11258
   11259   11260   11261   11259   11260   11261   11260   11261   11262   11263
   11264   11261   11262   11263   11264   11262   11263   11264   11263   11264
   11264       0   11266   11267   11268   11269   11270   11271   11272   11273
   11274   11275   11276   11277   11267   11268   11269   11270   11271   11272
   11273   11274   11275   11278   11279   11280   11268   11269   11270   11271
   11272   11275   11276   11277   11278   11280   11281   11269   11270   11271
   11272   11275   11276   11277   11281   11282   11283   11270   11273   11274
   11275   11278   11279   11284   11285   11286   11287   11271   11272   11273
   11274   11275   11276   11278   11280   11284   11272   11275   11276   11277
   11281   11288   11289   11276   11277   11281   11282   11283   11288   11289
   11290   11274   11275   11278   11279   11280   11284   11285   11286   11287
   11291   11292   11293   11278   11279   11278   11279   11280   11284   11277
   11281   11282   11283   11288   11289   11294   11281   11282   11283   11288
   11290   11294   11279   11280   11284   11285   11286   11287   11284   11285
   11286   11287   11291   11292   11293   11295   11296   11297   11284   11282
   11288   11289   11290   11294   11298   11299   11283   11288   11289   11290
   11294   11298   11299   11288   11290       0   11286   11287   11291   11292
   11293   11295   11296   11297   11300   11301   11302   11287   11291   11292
   11293   11291   11292   11293   11289   11290   11294   11298   11299   11303
   11304   11305   11306   11294   11294   11292   11293   11295   11296   11297
   11300   11301   11302   11307   11308   11309   11293   11295   11296   11297
   11295   11296   11297   11298   11299   11303   11304   11305   11306   11310
   11311   11312   11296   11297   11300   11301   11302   11307   11308   11309
   11313   11314   11315   11297   11300   11301   11302   11300   11301   11302
   11299   11303   11304   11305   11306   11310   11311   11316   11303   11304
   11305   11306   11310   11312   11316   11301   11302   11307   11308   11309
   11313   11314   11315   11317   11318   11319   11302   11307   11308   11309
   11307   11308   11309   11304   11305   11310   11311   11312   11316   11310
   11311   11306   11310   11311   11312   11316   11310   11312   11308   11309
   11313   11314   11315   11317   11318   11319   11320   11321   11322   11309
   11313   11314   11315   11313   11314   11315   11311   11312   11316   11316
   11316   11314   11315   11317   11318   11319   11320   11321   11322   11323
   11324   11325   11315   11317   11318   11319   11317   11318   11319       0
   11318   11319   11320   11321   11322   11319   11320   11321   11322   11320
   11321   11322   11323   11324   11325   11326   11327   11328   11321   11322
   11323   11324   11325   11326   11327   11328   11322   11323   11324   11325
   11323   11324   11325   11324   11325   11326   11327   11328   11325   11326
   11327   11328   11326   11327   11328   11327   11328   11328       0   11330
   11331   11332   11333   11334   11335   11336   11337   11338   11339   11340
   11341   11331   11332   11333   11334   11335   11336   11337   11338   11339
   11342   11343   11344   11332   11333   11334   11335   11336   11339   11340
   11341   11342   11344   11345   11333   11334   11335   11336   11339   11340
   11341   11345   11346   11347   11334   11337   11338   11339   11342   11343
   11348   11349   11350   11351   11335   11336   11337   11338   11339   11340
   11342   11344   11348   11336   11339   11340   11341   11345   11352   11353
   11340   11341   11345   11346   11347   11352   11353   11354   11338   11339
   11342   11343   11344   11348   11349   11350   11351   11355   11356   11357
   11342   11343   11342   11343   11344   11348   11341   11345   11346   11347
   11352   11353   11358   11345   11346   11347   11352   11354   11358   11343
   11344   11348   11349   11350   11351   11348   11349   11350   11351   11355
   11356   11357   11359   11360   11361   11348   11346   11352   11353   11354
   11358   11362   11363   11347   11352   11353   11354   11358   11362   11363
   11352   11354       0   11350   11351   11355   11356   11357   11359   11360
   11361   11364   11365   11366   11351   11355   11356   11357   11355   11356
   11357   11353   11354   11358   11362   11363   11367   11368   11369   11370
   11358   11358   11356   11357   11359   11360   11361   11364   11365   11366
   11371   11372   11373   11357   11359   11360   11361   11359   11360   11361
   11362   11363   11367   11368   11369   11370   11374   11375   11376   11360
   11361   11364   11365   11366   11371   11372   11373   11377   11378   11379
   11361   11364   11365   11366   11364   11365   11366   11363   11367   11368
   11369   11370   11374   11375   11380   11367   11368   11369   11370   11374
   11376   11380   11365   11366   11371   11372   11373   11377   11378   11379
   11381   11382   11383   11366   11371   11372   11373   11371   11372   11373
   11368   11369   11374   11375   11376   11380   11374   11375   11370   11374
   11375   11376   11380   11374   11376   11372   11373   11377   11378   11379
   11381   11382   11383   11384   11385   11386   11373   11377   11378   11379
   11377   11378   11379   11375   11376   11380   11380   11380   11378   11379
   11381   11382   11383   11384   11385   11386   11387   11388   11389   11379
   11381   11382   11383   11381   11382   11383       0   11382   11383   11384
   11385   11386   11383   11384   11385   11386   11384   11385   11386   11387
   11388   11389   11390   11391   11392   11385   11386   11387   11388   11389
   11390   11391   11392   11386   11387   11388   11389   11387   11388   11389
   11388   11389   11390   11391   11392   11389   11390   11391   11392   11390
   11391   11392   11391   11392   11392       0   11394   11395   11396   11397
   11398   11399   11400   11401   11402   11403   11404   11405   11395   11396
   11397   11398   11399   11400   11401   11402   11403   11406   11407   11408
   11396   11397   11398   11399   11400   11403   11404   11405   11406   11408
   11409   11397   11398   11399   11400   11403   11404   11405   11409   11410
   11411   11398   11401   11402   11403   11406   11407   11412   11413   11414
   11415   11399   11400   11401   11402   11403   11404   11406   11408   11412
   11400   11403   11404   11405   11409   11416   11417   11404   11405   11409
   11410   11411   11416   11417   11418   11402   11403   11406   11407   11408
   11412   11413   11414   11415   11419   11420   11421   11406   11407   11406
   11407   11408   11412   11405   11409   11410   11411   11416   11417   11422
   11409   11410   11411   11416   11418   11422   11407   11408   11412   11413
   11414   11415   11412   11413   11414   11415   11419   11420   11421   11423
   11424   11425   11412   11410   11416   11417   11418   11422   11426   11427
   11411   11416   11417   11418   11422   11426   11427   11416   11418       0
   11414   11415   11419   11420   11421   11423   11424   11425   11428   11429
   11430   11415   11419   11420   11421   11419   11420   11421   11417   11418
   11422   11426   11427   11431   11432   11433   11434   11422   11422   11420
   11421   11423   11424   11425   11428   11429   11430   11435   11436   11437
   11421   11423   11424   11425   11423   11424   11425   11426   11427   11431
   11432   11433   11434   11438   11439   11440   11424   11425   11428   11429
   11430   11435   11436   11437   11441   11442   11443   11425   11428   11429
   11430   11428   11429   11430   11427   11431   11432   11433   11434   11438
   11439   11444   11431   11432   11433   11434   11438   11440   11444   11429
   11430   11435   11436   11437   11441   11442   11443   11445   11446   11447
   11430   11435   11436   11437   11435   11436   11437   11432   11433   11438
   11439   11440   11444   11438   11439   11434   11438   11439   11440   11444
   11438   11440   11436   11437   11441   11442   11443   11445   11446   11447
   11448   11449   11450   11437   11441   11442   11443   11441   11442   11443
   11439   11440   11444   11444   11444   11442   11443   11445   11446   11447
   11448   11449   11450   11451   11452   11453   11443   11445   11446   11447
   11445   11446   11447       0   11446   11447   11448   11449   11450   11447
   11448   11449   11450   11448   11449   11450   11451   11452   11453   11454
   11455   11456   11449   11450   11451   11452   11453   11454   11455   11456
   11450   11451   11452   11453   11451   11452   11453   11452   11453   11454
   11455   11456   11453   11454   11455   11456   11454   11455   11456   11455
   11456   11456       0   11458   11459   11460   11461   11462   11463   11464
   11465   11466   11467   11468   11469   11459   11460   11461   11462   11463
   11464   11465   11466   11467   11470   11471   11472   11460   11461   11462
   11463   11464   11467   11468   11469   11470   11472   11473   11461   11462
   11463   11464   11467   11468   11469   11473   11474   11475   11462   11465
   11466   11467   11470   11471   11476   11477   11478   11479   11463   11464
   11465   11466   11467   11468   11470   11472   11476   11464   11467   11468
   11469   11473   11480   11481   11468   11469   11473   11474   11475   11480
   11481   11482   11466   11467   11470   11471   11472   11476   11477   11478
   11479   11483   11484   11485   11470   11471   11470   11471   11472   11476
   11469   11473   11474   11475   11480   11481   11486   11473   11474   11475
   11480   11482   11486   11471   11472   11476   11477   11478   11479   11476
   11477   11478   11479   11483   11484   11485   11487   11488   11489   11476
   11474   11480   11481   11482   11486   11490   11491   11475   11480   11481
   11482   11486   11490   11491   11480   11482       0   11478   11479   11483
   11484   11485   11487   11488   11489   11492   11493   11494   11479   11483
   11484   11485   11483   11484   11485   11481   11482   11486   11490   11491
   11495   11496   11497   11498   11486   11486   11484   11485   11487   11488
   11489   11492   11493   11494   11499   11500   11501   11485   11487   11488
   11489   11487   11488   11489   11490   11491   11495   11496   11497   11498
   11502   11503   11504   11488   11489   11492   11493   11494   11499   11500
   11501   11505   11506   11507   11489   11492   11493   11494   11492   11493
   11494   11491   11495   11496   11497   11498   11502   11503   11508   11495
   11496   11497   11498   11502   11504   11508   11493   11494   11499   11500
   11501   11505   11506   11507   11509   11510   11511   11494   11499   11500
   11501   11499   11500   11501   11496   11497   11502   11503   11504   11508
   11502   11503   11498   11502   11503   11504   11508   11502   11504   11500
   11501   11505   11506   11507   11509   11510   11511   11512   11513   11514
   11501   11505   11506   11507   11505   11506   11507   11503   11504   11508
   11508   11508   11506   11507   11509   11510   11511   11512   11513   11514
   11515   11516   11517   11507   11509   11510   11511   11509   11510   11511
       0   11510   11511   11512   11513   11514   11511   11512   11513   11514
   11512   11513   11514   11515   11516   11517   11518   11519   11520   11513
   11514   11515   11516   11517   11518   11519   11520   11514   11515   11516
   11517   11515   11516   11517   11516   11517   11518   11519   11520   11517
   11518   11519   11520   11518   11519   11520   11519   11520   11520       0
   11522   11523   11524   11525   11526   11527   11528   11529   11530   11531
   11532   11533   11523   11524   11525   11526   11527   11528   11529   11530
   11531   11534   11535   11536   11524   11525   11526   11527   11528   11531
   11532   11533   11534   11536   11537   11525   11526   11527   11528   11531
   11532   11533   11537   11538   11539   11526   11529   11530   11531   11534
   11535   11540   11541   11542   11543   11527   11528   11529   11530   11531
   11532   11534   11536   11540   11528   11531   11532   11533   11537   11544
   11545   11532   11533   11537   11538   11539   11544   11545   11546   11530
   11531   11534   11535   11536   11540   11541   11542   11543   11547   11548
   11549   11534   11535   11534   11535   11536   11540   11533   11537   11538
   11539   11544   11545   11550   11537   11538   11539   11544   11546   11550
   11535   11536   11540   11541   11542   11543   11540   11541   11542   11543
   11547   11548   11549   11551   11552   11553   11540   11538   11544   11545
   11546   11550   11554   11555   11539   11544   11545   11546   11550   11554
   11555   11544   11546       0   11542   11543   11547   11548   11549   11551
   11552   11553   11556   11557   11558   11543   11547   11548   11549   11547
   11548   11549   11545   11546   11550   11554   11555   11559   11560   11561
   11562   11550   11550   11548   11549   11551   11552   11553   11556   11557
   11558   11563   11564   11565   11549   11551   11552   11553   11551   11552
   11553   11554   11555   11559   11560   11561   11562   11566   11567   11568
   11552   11553   11556   11557   11558   11563   11564   11565   11569   11570
   11571   11553   11556   11557   11558   11556   11557   11558   11555   11559
   11560   11561   11562   11566   11567   11572   11559   11560   11561   11562
   11566   11568   11572   11557   11558   11563   11564   11565   11569   11570
   11571   11573   11574   11575   11558   11563   11564   11565   11563   11564
   11565   11560   11561   11566   11567   11568   11572   11566   11567   11562
   11566   11567   11568   11572   11566   11568   11564   11565   11569   11570
   11571   11573   11574   11575   11576   11577   11578   11565   11569   11570
   11571   11569   11570   11571   11567   11568   11572   11572   11572   11570
   11571   11573   11574   11575   11576   11577   11578   11579   11580   11581
   11571   11573   11574   11575   11573   11574   11575       0   11574   11575
   11576   11577   11578   11575   11576   11577   11578   11576   11577   11578
   11579   11580   11581   11582   11583   11584   11577   11578   11579   11580
   11581   11582   11583   11584   11578   11579   11580   11581   11579   11580
   11581   11580   11581   11582   11583   11584   11581   11582   11583   11584
   11582   11583   11584   11583   11584   11584       0   11586   11587   11588
   11589   11590   11591   11592   11593   11594   11595   11596   11597   11587
   11588   11589   11590   11591   11592   11593   11594   11595   11598   11599
   11600   11588   11589   11590   11591   11592   11595   11596   11597   11598
   11600   11601   11589   11590   11591   11592   11595   11596   11597   11601
   11602   11603   11590   11593   11594   11595   11598   11599   11604   11605
   11606   11607   11591   11592   11593   11594   11595   11596   11598   11600
   11604   11592   11595   11596   11597   11601   11608   11609   11596   11597
   11601   11602   11603   11608   11609   11610   11594   11595   11598   11599
   11600   11604   11605   11606   11607   11611   11612   11613   11598   11599
   11598   11599   11600   11604   11597   11601   11602   11603   11608   11609
   11614   11601   11602   11603   11608   11610   11614   11599   11600   11604
   11605   11606   11607   11604   11605   11606   11607   11611   11612   11613
   11615   11616   11617   11604   11602   11608   11609   11610   11614   11618
   11619   11603   11608   11609   11610   11614   11618   11619   11608   11610
       0   11606   11607   11611   11612   11613   11615   11616   11617   11620
   11621   11622   11607   11611   11612   11613   11611   11612   11613   11609
   11610   11614   11618   11619   11623   11624   11625   11626   11614   11614
   11612   11613   11615   11616   11617   11620   11621   11622   11627   11628
   11629   11613   11615   11616   11617   11615   11616   11617   11618   11619
   11623   11624   11625   11626   11630   11631   11632   11616   11617   11620
   11621   11622   11627   11628   11629   11633   11634   11635   11617   11620
   11621   11622   11620   11621   11622   11619   11623   11624   11625   11626
   11630   11631   11636   11623   11624   11625   11626   11630   11632   11636
   11621   11622   11627   11628   11629   11633   11634   11635   11637   11638
   11639   11622   11627   11628   11629   11627   11628   11629   11624   11625
   11630   11631   11632   11636   11630   11631   11626   11630   11631   11632
   11636   11630   11632   11628   11629   11633   11634   11635   11637   11638
   11639   11640   11641   11642   11629   11633   11634   11635   11633   11634
   11635   11631   11632   11636   11636   11636   11634   11635   11637   11638
   11639   11640   11641   11642   11643   11644   11645   11635   11637   11638
   11639   11637   11638   11639       0   11638   11639   11640   11641   11642
   11639   11640   11641   11642   11640   11641   11642   11643   11644   11645
   11646   11647   11648   11641   11642   11643   11644   11645   11646   11647
   11648   11642   11643   11644   11645   11643   11644   11645   11644   11645
   11646   11647   11648   11645   11646   11647   11648   11646   11647   11648
   11647   11648   11648       0   11650   11651   11652   11653   11654   11655
   11656   11657   11658   11659   11660   11661   11651   11652   11653   11654
   11655   11656   11657   11658   11659   11662   11663   11664   11652   11653
   11654   11655   11656   11659   11660   11661   11662   11664   11665   11653
   11654   11655   11656   11659   11660   11661   11665   11666   11667   11654
   11657   11658   11659   11662   11663   11668   11669   11670   11671   11655
   11656   11657   11658   11659   11660   11662   11664   11668   11656   11659
   11660   11661   11665   11672   11673   11660   11661   11665   11666   11667
   11672   11673   11674   11658   11659   11662   11663   11664   11668   11669
   11670   11671   11675   11676   11677   11662   11663   11662   11663   11664
   11668   11661   11665   11666   11667   11672   11673   11678   11665   11666
   11667   11672   11674   11678   11663   11664   11668   11669   11670   11671
   11668   11669   11670   11671   11675   11676   11677   11679   11680   11681
   11668   11666   11672   11673   11674   11678   11682   11683   11667   11672
   11673   11674   11678   11682   11683   11672   11674       0   11670   11671
   11675   11676   11677   11679   11680   11681   11684   11685   11686   11671
   11675   11676   11677   11675   11676   11677   11673   11674   11678   11682
   11683   11687   11688   11689   11690   11678   11678   11676   11677   11679
   11680   11681   11684   11685   11686   11691   11692   11693   11677   11679
   11680   11681   11679   11680   11681   11682   11683   11687   11688   11689
   11690   11694   11695   11696   11680   11681   11684   11685   11686   11691
   11692   11693   11697   11698   11699   11681   11684   11685   11686   11684
   11685   11686   11683   11687   11688   11689   11690   11694   11695   11700
   11687   11688   11689   11690   11694   11696   11700   11685   11686   11691
   11692   11693   11697   11698   11699   11701   11702   11703   11686   11691
   11692   11693   11691   11692   11693   11688   11689   11694   11695   11696
   11700   11694   11695   11690   11694   11695   11696   11700   11694   11696
   11692   11693   11697   11698   11699   11701   11702   11703   11704   11705
   11706   11693   11697   11698   11699   11697   11698   11699   11695   11696
   11700   11700   11700   11698   11699   11701   11702   11703   11704   11705
   11706   11707   11708   11709   11699   11701   11702   11703   11701   11702
   11703       0   11702   11703   11704   11705   11706   11703   11704   11705
   11706   11704   11705   11706   11707   11708   11709   11710   11711   11712
   11705   11706   11707   11708   11709   11710   11711   11712   11706   11707
   11708   11709   11707   11708   11709   11708   11709   11710   11711   11712
   11709   11710   11711   11712   11710   11711   11712   11711   11712   11712
       0   11714   11715   11716   11717   11718   11719   11720   11721   11722
   11723   11724   11725   11715   11716   11717   11718   11719   11720   11721
   11722   11723   11726   11727   11728   11716   11717   11718   11719   11720
   11723   11724   11725   11726   11728   11729   11717   11718   11719   11720
   11723   11724   11725   11729   11730   11731   11718   11721   11722   11723
   11726   11727   11732   11733   11734   11735   11719   11720   11721   11722
   11723   11724   11726   11728   11732   11720   11723   11724   11725   11729
   11736   11737   11724   11725   11729   11730   11731   11736   11737   11738
   11722   11723   11726   11727   11728   11732   11733   11734   11735   11739
   11740   11741   11726   11727   11726   11727   11728   11732   11725   11729
   11730   11731   11736   11737   11742   11729   11730   11731   11736   11738
   11742   11727   11728   11732   11733   11734   11735   11732   11733   11734
   11735   11739   11740   11741   11743   11744   11745   11732   11730   11736
   11737   11738   11742   11746   11747   11731   11736   11737   11738   11742
   11746   11747   11736   11738       0   11734   11735   11739   11740   11741
   11743   11744   11745   11748   11749   11750   11735   11739   11740   11741
   11739   11740   11741   11737   11738   11742   11746   11747   11751   11752
   11753   11754   11742   11742   11740   11741   11743   11744   11745   11748
   11749   11750   11755   11756   11757   11741   11743   11744   11745   11743
   11744   11745   11746   11747   11751   11752   11753   11754   11758   11759
   11760   11744   11745   11748   11749   11750   11755   11756   11757   11761
   11762   11763   11745   11748   11749   11750   11748   11749   11750   11747
   11751   11752   11753   11754   11758   11759   11764   11751   11752   11753
   11754   11758   11760   11764   11749   11750   11755   11756   11757   11761
   11762   11763   11765   11766   11767   11750   11755   11756   11757   11755
   11756   11757   11752   11753   11758   11759   11760   11764   11758   11759
   11754   11758   11759   11760   11764   11758   11760   11756   11757   11761
   11762   11763   11765   11766   11767   11768   11769   11770   11757   11761
   11762   11763   11761   11762   11763   11759   11760   11764   11764   11764
   11762   11763   11765   11766   11767   11768   11769   11770   11771   11772
   11773   11763   11765   11766   11767   11765   11766   11767       0   11766
   11767   11768   11769   11770   11767   11768   11769   11770   11768   11769
   11770   11771   11772   11773   11774   11775   11776   11769   11770   11771
   11772   11773   11774   11775   11776   11770   11771   11772   11773   11771
   11772   11773   11772   11773   11774   11775   11776   11773   11774   11775
   11776   11774   11775   11776   11775   11776   11776       0   11778   11779
   11780   11781   11782   11783   11784   11785   11786   11787   11788   11789
   11779   11780   11781   11782   11783   11784   11785   11786   11787   11790
   11791   11792   11780   11781   11782   11783   11784   11787   11788   11789
   11790   11792   11793   11781   11782   11783   11784   11787   11788   11789
   11793   11794   11795   11782   11785   11786   11787   11790   11791   11796
   11797   11798   11799   11783   11784   11785   11786   11787   11788   11790
   11792   11796   11784   11787   11788   11789   11793   11800   11801   11788
   11789   11793   11794   11795   11800   11801   11802   11786   11787   11790
   11791   11792   11796   11797   11798   11799   11803   11804   11805   11790
   11791   11790   11791   11792   11796   11789   11793   11794   11795   11800
   11801   11806   11793   11794   11795   11800   11802   11806   11791   11792
   11796   11797   11798   11799   11796   11797   11798   11799   11803   11804
   11805   11807   11808   11809   11796   11794   11800   11801   11802   11806
   11810   11811   11795   11800   11801   11802   11806   11810   11811   11800
   11802       0   11798   11799   11803   11804   11805   11807   11808   11809
   11812   11813   11814   11799   11803   11804   11805   11803   11804   11805
   11801   11802   11806   11810   11811   11815   11816   11817   11818   11806
   11806   11804   11805   11807   11808   11809   11812   11813   11814   11819
   11820   11821   11805   11807   11808   11809   11807   11808   11809   11810
   11811   11815   11816   11817   11818   11822   11823   11824   11808   11809
   11812   11813   11814   11819   11820   11821   11825   11826   11827   11809
   11812   11813   11814   11812   11813   11814   11811   11815   11816   11817
   11818   11822   11823   11828   11815   11816   11817   11818   11822   11824
   11828   11813   11814   11819   11820   11821   11825   11826   11827   11829
   11830   11831   11814   11819   11820   11821   11819   11820   11821   11816
   11817   11822   11823   11824   11828   11822   11823   11818   11822   11823
   11824   11828   11822   11824   11820   11821   11825   11826   11827   11829
   11830   11831   11832   11833   11834   11821   11825   11826   11827   11825
   11826   11827   11823   11824   11828   11828   11828   11826   11827   11829
   11830   11831   11832   11833   11834   11835   11836   11837   11827   11829
   11830   11831   11829   11830   11831       0   11830   11831   11832   11833
   11834   11831   11832   11833   11834   11832   11833   11834   11835   11836
   11837   11838   11839   11840   11833   11834   11835   11836   11837   11838
   11839   11840   11834   11835   11836   11837   11835   11836   11837   11836
   11837   11838   11839   11840   11837   11838   11839   11840   11838   11839
   11840   11839   11840   11840       0   11842   11843   11844   11845   11846
   11847   11848   11849   11850   11851   11852   11853   11843   11844   11845
   11846   11847   11848   11849   11850   11851   11854   11855   11856   11844
   11845   11846   11847   11848   11851   11852   11853   11854   11856   11857
   11845   11846   11847   11848   11851   11852   11853   11857   11858   11859
   11846   11849   11850   11851   11854   11855   11860   11861   11862   11863
   11847   11848   11849   11850   11851   11852   11854   11856   11860   11848
   11851   11852   11853   11857   11864   11865   11852   11853   11857   11858
   11859   11864   11865   11866   11850   11851   11854   11855   11856   11860
   11861   11862   11863   11867   11868   11869   11854   11855   11854   11855
   11856   11860   11853   11857   11858   11859   11864   11865   11870   11857
   11858   11859   11864   11866   11870   11855   11856   11860   11861   11862
   11863   11860   11861   11862   11863   11867   11868   11869   11871   11872
   11873   11860   11858   11864   11865   11866   11870   11874   11875   11859
   11864   11865   11866   11870   11874   11875   11864   11866       0   11862
   11863   11867   11868   11869   11871   11872   11873   11876   11877   11878
   11863   11867   11868   11869   11867   11868   11869   11865   11866   11870
   11874   11875   11879   11880   11881   11882   11870   11870   11868   11869
   11871   11872   11873   11876   11877   11878   11883   11884   11885   11869
   11871   11872   11873   11871   11872   11873   11874   11875   11879   11880
   11881   11882   11886   11887   11888   11872   11873   11876   11877   11878
   11883   11884   11885   11889   11890   11891   11873   11876   11877   11878
   11876   11877   11878   11875   11879   11880   11881   11882   11886   11887
   11892   11879   11880   11881   11882   11886   11888   11892   11877   11878
   11883   11884   11885   11889   11890   11891   11893   11894   11895   11878
   11883   11884   11885   11883   11884   11885   11880   11881   11886   11887
   11888   11892   11886   11887   11882   11886   11887   11888   11892   11886
   11888   11884   11885   11889   11890   11891   11893   11894   11895   11896
   11897   11898   11885   11889   11890   11891   11889   11890   11891   11887
   11888   11892   11892   11892   11890   11891   11893   11894   11895   11896
   11897   11898   11899   11900   11901   11891   11893   11894   11895   11893
   11894   11895       0   11894   11895   11896   11897   11898   11895   11896
   11897   11898   11896   11897   11898   11899   11900   11901   11902   11903
   11904   11897   11898   11899   11900   11901   11902   11903   11904   11898
   11899   11900   11901   11899   11900   11901   11900   11901   11902   11903
   11904   11901   11902   11903   11904   11902   11903   11904   11903   11904
   11904       0   11906   11907   11908   11909   11910   11911   11912   11913
   11914   11915   11916   11917   11907   11908   11909   11910   11911   11912
   11913   11914   11915   11918   11919   11920   11908   11909   11910   11911
   11912   11915   11916   11917   11918   11920   11921   11909   11910   11911
   11912   11915   11916   11917   11921   11922   11923   11910   11913   11914
   11915   11918   11919   11924   11925   11926   11927   11911   11912   11913
   11914   11915   11916   11918   11920   11924   11912   11915   11916   11917
   11921   11928   11929   11916   11917   11921   11922   11923   11928   11929
   11930   11914   11915   11918   11919   11920   11924   11925   11926   11927
   11931   11932   11933   11918   11919   11918   11919   11920   11924   11917
   11921   11922   11923   11928   11929   11934   11921   11922   11923   11928
   11930   11934   11919   11920   11924   11925   11926   11927   11924   11925
   11926   11927   11931   11932   11933   11935   11936   11937   11924   11922
   11928   11929   11930   11934   11938   11939   11923   11928   11929   11930
   11934   11938   11939   11928   11930       0   11926   11927   11931   11932
   11933   11935   11936   11937   11940   11941   11942   11927   11931   11932
   11933   11931   11932   11933   11929   11930   11934   11938   11939   11943
   11944   11945   11946   11934   11934   11932   11933   11935   11936   11937
   11940   11941   11942   11947   11948   11949   11933   11935   11936   11937
   11935   11936   11937   11938   11939   11943   11944   11945   11946   11950
   11951   11952   11936   11937   11940   11941   11942   11947   11948   11949
   11953   11954   11955   11937   11940   11941   11942   11940   11941   11942
   11939   11943   11944   11945   11946   11950   11951   11956   11943   11944
   11945   11946   11950   11952   11956   11941   11942   11947   11948   11949
   11953   11954   11955   11957   11958   11959   11942   11947   11948   11949
   11947   11948   11949   11944   11945   11950   11951   11952   11956   11950
   11951   11946   11950   11951   11952   11956   11950   11952   11948   11949
   11953   11954   11955   11957   11958   11959   11960   11961   11962   11949
   11953   11954   11955   11953   11954   11955   11951   11952   11956   11956
   11956   11954   11955   11957   11958   11959   11960   11961   11962   11963
   11964   11965   11955   11957   11958   11959   11957   11958   11959       0
   11958   11959   11960   11961   11962   11959   11960   11961   11962   11960
   11961   11962   11963   11964   11965   11966   11967   11968   11961   11962
   11963   11964   11965   11966   11967   11968   11962   11963   11964   11965
   11963   11964   11965   11964   11965   11966   11967   11968   11965   11966
   11967   11968   11966   11967   11968   11967   11968   11968       0   11970
   11971   11972   11973   11974   11975   11976   11977   11978   11979   11980
   11981   11971   11972   11973   11974   11975   11976   11977   11978   11979
   11982   11983   11984   11972   11973   11974   11975   11976   11979   11980
   11981   11982   11984   11985   11973   11974   11975   11976   11979   11980
   11981   11985   11986   11987   11974   11977   11978   11979   11982   11983
   11988   11989   11990   11991   11975   11976   11977   11978   11979   11980
   11982   11984   11988   11976   11979   11980   11981   11985   11992   11993
   11980   11981   11985   11986   11987   11992   11993   11994   11978   11979
   11982   11983   11984   11988   11989   11990   11991   11995   11996   11997
   11982   11983   11982   11983   11984   11988   11981   11985   11986   11987
   11992   11993   11998   11985   11986   11987   11992   11994   11998   11983
   11984   11988   11989   11990   11991   11988   11989   11990   11991   11995
   11996   11997   11999   12000   12001   11988   11986   11992   11993   11994
   11998   12002   12003   11987   11992   11993   11994   11998   12002   12003
   11992   11994       0   11990   11991   11995   11996   11997   11999   12000
   12001   12004   12005   12006   11991   11995   11996   11997   11995   11996
   11997   11993   11994   11998   12002   12003   12007   12008   12009   12010
   11998   11998   11996   11997   11999   12000   12001   12004   12005   12006
   12011   12012   12013   11997   11999   12000   12001   11999   12000   12001
   12002   12003   12007   12008   12009   12010   12014   12015   12016   12000
   12001   12004   12005   12006   12011   12012   12013   12017   12018   12019
   12001   12004   12005   12006   12004   12005   12006   12003   12007   12008
   12009   12010   12014   12015   12020   12007   12008   12009   12010   12014
   12016   12020   12005   12006   12011   12012   12013   12017   12018   12019
   12021   12022   12023   12006   12011   12012   12013   12011   12012   12013
   12008   12009   12014   12015   12016   12020   12014   12015   12010   12014
   12015   12016   12020   12014   12016   12012   12013   12017   12018   12019
   12021   12022   12023   12024   12025   12026   12013   12017   12018   12019
   12017   12018   12019   12015   12016   12020   12020   12020   12018   12019
   12021   12022   12023   12024   12025   12026   12027   12028   12029   12019
   12021   12022   12023   12021   12022   12023       0   12022   12023   12024
   12025   12026   12023   12024   12025   12026   12024   12025   12026   12027
   12028   12029   12030   12031   12032   12025   12026   12027   12028   12029
   12030   12031   12032   12026   12027   12028   12029   12027   12028   12029
   12028   12029   12030   12031   12032   12029   12030   12031   12032   12030
   12031   12032   12031   12032   12032       0   12034   12035   12036   12037
   12038   12039   12040   12041   12042   12043   12044   12045   12035   12036
   12037   12038   12039   12040   12041   12042   12043   12046   12047   12048
   12036   12037   12038   12039   12040   12043   12044   12045   12046   12048
   12049   12037   12038   12039   12040   12043   12044   12045   12049   12050
   12051   12038   12041   12042   12043   12046   12047   12052   12053   12054
   12055   12039   12040   12041   12042   12043   12044   12046   12048   12052
   12040   12043   12044   12045   12049   12056   12057   12044   12045   12049
   12050   12051   12056   12057   12058   12042   12043   12046   12047   12048
   12052   12053   12054   12055   12059   12060   12061   12046   12047   12046
   12047   12048   12052   12045   12049   12050   12051   12056   12057   12062
   12049   12050   12051   12056   12058   12062   12047   12048   12052   12053
   12054   12055   12052   12053   12054   12055   12059   12060   12061   12063
   12064   12065   12052   12050   12056   12057   12058   12062   12066   12067
   12051   12056   12057   12058   12062   12066   12067   12056   12058       0
   12054   12055   12059   12060   12061   12063   12064   12065   12068   12069
   12070   12055   12059   12060   12061   12059   12060   12061   12057   12058
   12062   12066   12067   12071   12072   12073   12074   12062   12062   12060
   12061   12063   12064   12065   12068   12069   12070   12075   12076   12077
   12061   12063   12064   12065   12063   12064   12065   12066   12067   12071
   12072   12073   12074   12078   12079   12080   12064   12065   12068   12069
   12070   12075   12076   12077   12081   12082   12083   12065   12068   12069
   12070   12068   12069   12070   12067   12071   12072   12073   12074   12078
   12079   12084   12071   12072   12073   12074   12078   12080   12084   12069
   12070   12075   12076   12077   12081   12082   12083   12085   12086   12087
   12070   12075   12076   12077   12075   12076   12077   12072   12073   12078
   12079   12080   12084   12078   12079   12074   12078   12079   12080   12084
   12078   12080   12076   12077   12081   12082   12083   12085   12086   12087
   12088   12089   12090   12077   12081   12082   12083   12081   12082   12083
   12079   12080   12084   12084   12084   12082   12083   12085   12086   12087
   12088   12089   12090   12091   12092   12093   12083   12085   12086   12087
   12085   12086   12087       0   12086   12087   12088   12089   12090   12087
   12088   12089   12090   12088   12089   12090   12091   12092   12093   12094
   12095   12096   12089   12090   12091   12092   12093   12094   12095   12096
   12090   12091   12092   12093   12091   12092   12093   12092   12093   12094
   12095   12096   12093   12094   12095   12096   12094   12095   12096   12095
   12096   12096       0   12098   12099   12100   12101   12102   12103   12104
   12105   12106   12107   12108   12109   12099   12100   12101   12102   12103
   12104   12105   12106   12107   12110   12111   12112   12100   12101   12102
   12103   12104   12107   12108   12109   12110   12112   12113   12101   12102
   12103   12104   12107   12108   12109   12113   12114   12115   12102   12105
   12106   12107   12110   12111   12116   12117   12118   12119   12103   12104
   12105   12106   12107   12108   12110   12112   12116   12104   12107   12108
   12109   12113   12120   12121   12108   12109   12113   12114   12115   12120
   12121   12122   12106   12107   12110   12111   12112   12116   12117   12118
   12119   12123   12124   12125   12110   12111   12110   12111   12112   12116
   12109   12113   12114   12115   12120   12121   12126   12113   12114   12115
   12120   12122   12126   12111   12112   12116   12117   12118   12119   12116
   12117   12118   12119   12123   12124   12125   12127   12128   12129   12116
   12114   12120   12121   12122   12126   12130   12131   12115   12120   12121
   12122   12126   12130   12131   12120   12122       0   12118   12119   12123
   12124   12125   12127   12128   12129   12132   12133   12134   12119   12123
   12124   12125   12123   12124   12125   12121   12122   12126   12130   12131
   12135   12136   12137   12138   12126   12126   12124   12125   12127   12128
   12129   12132   12133   12134   12139   12140   12141   12125   12127   12128
   12129   12127   12128   12129   12130   12131   12135   12136   12137   12138
   12142   12143   12144   12128   12129   12132   12133   12134   12139   12140
   12141   12145   12146   12147   12129   12132   12133   12134   12132   12133
   12134   12131   12135   12136   12137   12138   12142   12143   12148   12135
   12136   12137   12138   12142   12144   12148   12133   12134   12139   12140
   12141   12145   12146   12147   12149   12150   12151   12134   12139   12140
   12141   12139   12140   12141   12136   12137   12142   12143   12144   12148
   12142   12143   12138   12142   12143   12144   12148   12142   12144   12140
   12141   12145   12146   12147   12149   12150   12151   12152   12153   12154
   12141   12145   12146   12147   12145   12146   12147   12143   12144   12148
   12148   12148   12146   12147   12149   12150   12151   12152   12153   12154
   12155   12156   12157   12147   12149   12150   12151   12149   12150   12151
       0   12150   12151   12152   12153   12154   12151   12152   12153   12154
   12152   12153   12154   12155   12156   12157   12158   12159   12160   12153
   12154   12155   12156   12157   12158   12159   12160   12154   12155   12156
   12157   12155   12156   12157   12156   12157   12158   12159   12160   12157
   12158   12159   12160   12158   12159   12160   12159   12160   12160       0
   12162   12163   12164   12165   12166   12167   12168   12169   12170   12171
   12172   12173   12163   12164   12165   12166   12167   12168   12169   12170
   12171   12174   12175   12176   12164   12165   12166   12167   12168   12171
   12172   12173   12174   12176   12177   12165   12166   12167   12168   12171
   12172   12173   12177   12178   12179   12166   12169   12170   12171   12174
   12175   12180   12181   12182   12183   12167   12168   12169   12170   12171
   12172   12174   12176   12180   12168   12171   12172   12173   12177   12184
   12185   12172   12173   12177   12178   12179   12184   12185   12186   12170
   12171   12174   12175   12176   12180   12181   12182   12183   12187   12188
   12189   12174   12175   12174   12175   12176   12180   12173   12177   12178
   12179   12184   12185   12190   12177   12178   12179   12184   12186   12190
   12175   12176   12180   12181   12182   12183   12180   12181   12182   12183
   12187   12188   12189   12191   12192   12193   12180   12178   12184   12185
   12186   12190   12194   12195   12179   12184   12185   12186   12190   12194
   12195   12184   12186       0   12182   12183   12187   12188   12189   12191
   12192   12193   12196   12197   12198   12183   12187   12188   12189   12187
   12188   12189   12185   12186   12190   12194   12195   12199   12200   12201
   12202   12190   12190   12188   12189   12191   12192   12193   12196   12197
   12198   12203   12204   12205   12189   12191   12192   12193   12191   12192
   12193   12194   12195   12199   12200   12201   12202   12206   12207   12208
   12192   12193   12196   12197   12198   12203   12204   12205   12209   12210
   12211   12193   12196   12197   12198   12196   12197   12198   12195   12199
   12200   12201   12202   12206   12207   12212   12199   12200   12201   12202
   12206   12208   12212   12197   12198   12203   12204   12205   12209   12210
   12211   12213   12214   12215   12198   12203   12204   12205   12203   12204
   12205   12200   12201   12206   12207   12208   12212   12206   12207   12202
   12206   12207   12208   12212   12206   12208   12204   12205   12209   12210
   12211   12213   12214   12215   12216   12217   12218   12205   12209   12210
   12211   12209   12210   12211   12207   12208   12212   12212   12212   12210
   12211   12213   12214   12215   12216   12217   12218   12219   12220   12221
   12211   12213   12214   12215   12213   12214   12215       0   12214   12215
   12216   12217   12218   12215   12216   12217   12218   12216   12217   12218
   12219   12220   12221   12222   12223   12224   12217   12218   12219   12220
   12221   12222   12223   12224   12218   12219   12220   12221   12219   12220
   12221   12220   12221   12222   12223   12224   12221   12222   12223   12224
   12222   12223   12224   12223   12224   12224       0   12226   12227   12228
   12229   12230   12231   12232   12233   12234   12235   12236   12237   12227
   12228   12229   12230   12231   12232   12233   12234   12235   12238   12239
   12240   12228   12229   12230   12231   12232   12235   12236   12237   12238
   12240   12241   12229   12230   12231   12232   12235   12236   12237   12241
   12242   12243   12230   12233   12234   12235   12238   12239   12244   12245
   12246   12247   12231   12232   12233   12234   12235   12236   12238   12240
   12244   12232   12235   12236   12237   12241   12248   12249   12236   12237
   12241   12242   12243   12248   12249   12250   12234   12235   12238   12239
   12240   12244   12245   12246   12247   12251   12252   12253   12238   12239
   12238   12239   12240   12244   12237   12241   12242   12243   12248   12249
   12254   12241   12242   12243   12248   12250   12254   12239   12240   12244
   12245   12246   12247   12244   12245   12246   12247   12251   12252   12253
   12255   12256   12257   12244   12242   12248   12249   12250   12254   12258
   12259   12243   12248   12249   12250   12254   12258   12259   12248   12250
       0   12246   12247   12251   12252   12253   12255   12256   12257   12260
   12261   12262   12247   12251   12252   12253   12251   12252   12253   12249
   12250   12254   12258   12259   12263   12264   12265   12266   12254   12254
   12252   12253   12255   12256   12257   12260   12261   12262   12267   12268
   12269   12253   12255   12256   12257   12255   12256   12257   12258   12259
   12263   12264   12265   12266   12270   12271   12272   12256   12257   12260
   12261   12262   12267   12268   12269   12273   12274   12275   12257   12260
   12261   12262   12260   12261   12262   12259   12263   12264   12265   12266
   12270   12271   12276   12263   12264   12265   12266   12270   12272   12276
   12261   12262   12267   12268   12269   12273   12274   12275   12277   12278
   12279   12262   12267   12268   12269   12267   12268   12269   12264   12265
   12270   12271   12272   12276   12270   12271   12266   12270   12271   12272
   12276   12270   12272   12268   12269   12273   12274   12275   12277   12278
   12279   12280   12281   12282   12269   12273   12274   12275   12273   12274
   12275   12271   12272   12276   12276   12276   12274   12275   12277   12278
   12279   12280   12281   12282   12283   12284   12285   12275   12277   12278
   12279   12277   12278   12279       0   12278   12279   12280   12281   12282
   12279   12280   12281   12282   12280   12281   12282   12283   12284   12285
   12286   12287   12288   12281   12282   12283   12284   12285   12286   12287
   12288   12282   12283   12284   12285   12283   12284   12285   12284   12285
   12286   12287   12288   12285   12286   12287   12288   12286   12287   12288
   12287   12288   12288       0   12290   12291   12292   12293   12294   12295
   12296   12297   12298   12299   12300   12301   12291   12292   12293   12294
   12295   12296   12297   12298   12299   12302   12303   12304   12292   12293
   12294   12295   12296   12299   12300   12301   12302   12304   12305   12293
   12294   12295   12296   12299   12300   12301   12305   12306   12307   12294
   12297   12298   12299   12302   12303   12308   12309   12310   12311   12295
   12296   12297   12298   12299   12300   12302   12304   12308   12296   12299
   12300   12301   12305   12312   12313   12300   12301   12305   12306   12307
   12312   12313   12314   12298   12299   12302   12303   12304   12308   12309
   12310   12311   12315   12316   12317   12302   12303   12302   12303   12304
   12308   12301   12305   12306   12307   12312   12313   12318   12305   12306
   12307   12312   12314   12318   12303   12304   12308   12309   12310   12311
   12308   12309   12310   12311   12315   12316   12317   12319   12320   12321
   12308   12306   12312   12313   12314   12318   12322   12323   12307   12312
   12313   12314   12318   12322   12323   12312   12314       0   12310   12311
   12315   12316   12317   12319   12320   12321   12324   12325   12326   12311
   12315   12316   12317   12315   12316   12317   12313   12314   12318   12322
   12323   12327   12328   12329   12330   12318   12318   12316   12317   12319
   12320   12321   12324   12325   12326   12331   12332   12333   12317   12319
   12320   12321   12319   12320   12321   12322   12323   12327   12328   12329
   12330   12334   12335   12336   12320   12321   12324   12325   12326   12331
   12332   12333   12337   12338   12339   12321   12324   12325   12326   12324
   12325   12326   12323   12327   12328   12329   12330   12334   12335   12340
   12327   12328   12329   12330   12334   12336   12340   12325   12326   12331
   12332   12333   12337   12338   12339   12341   12342   12343   12326   12331
   12332   12333   12331   12332   12333   12328   12329   12334   12335   12336
   12340   12334   12335   12330   12334   12335   12336   12340   12334   12336
   12332   12333   12337   12338   12339   12341   12342   12343   12344   12345
   12346   12333   12337   12338   12339   12337   12338   12339   12335   12336
   12340   12340   12340   12338   12339   12341   12342   12343   12344   12345
   12346   12347   12348   12349   12339   12341   12342   12343   12341   12342
   12343       0   12342   12343   12344   12345   12346   12343   12344   12345
   12346   12344   12345   12346   12347   12348   12349   12350   12351   12352
   12345   12346   12347   12348   12349   12350   12351   12352   12346   12347
   12348   12349   12347   12348   12349   12348   12349   12350   12351   12352
   12349   12350   12351   12352   12350   12351   12352   12351   12352   12352
       0   12354   12355   12356   12357   12358   12359   12360   12361   12362
   12363   12364   12365   12355   12356   12357   12358   12359   12360   12361
   12362   12363   12366   12367   12368   12356   12357   12358   12359   12360
   12363   12364   12365   12366   12368   12369   12357   12358   12359   12360
   12363   12364   12365   12369   12370   12371   12358   12361   12362   12363
   12366   12367   12372   12373   12374   12375   12359   12360   12361   12362
   12363   12364   12366   12368   12372   12360   12363   12364   12365   12369
   12376   12377   12364   12365   12369   12370   12371   12376   12377   12378
   12362   12363   12366   12367   12368   12372   12373   12374   12375   12379
   12380   12381   12366   12367   12366   12367   12368   12372   12365   12369
   12370   12371   12376   12377   12382   12369   12370   12371   12376   12378
   12382   12367   12368   12372   12373   12374   12375   12372   12373   12374
   12375   12379   12380   12381   12383   12384   12385   12372   12370   12376
   12377   12378   12382   12386   12387   12371   12376   12377   12378   12382
   12386   12387   12376   12378       0   12374   12375   12379   12380   12381
   12383   12384   12385   12388   12389   12390   12375   12379   12380   12381
   12379   12380   12381   12377   12378   12382   12386   12387   12391   12392
   12393   12394   12382   12382   12380   12381   12383   12384   12385   12388
   12389   12390   12395   12396   12397   12381   12383   12384   12385   12383
   12384   12385   12386   12387   12391   12392   12393   12394   12398   12399
   12400   12384   12385   12388   12389   12390   12395   12396   12397   12401
   12402   12403   12385   12388   12389   12390   12388   12389   12390   12387
   12391   12392   12393   12394   12398   12399   12404   12391   12392   12393
   12394   12398   12400   12404   12389   12390   12395   12396   12397   12401
   12402   12403   12405   12406   12407   12390   12395   12396   12397   12395
   12396   12397   12392   12393   12398   12399   12400   12404   12398   12399
   12394   12398   12399   12400   12404   12398   12400   12396   12397   12401
   12402   12403   12405   12406   12407   12408   12409   12410   12397   12401
   12402   12403   12401   12402   12403   12399   12400   12404   12404   12404
   12402   12403   12405   12406   12407   12408   12409   12410   12411   12412
   12413   12403   12405   12406   12407   12405   12406   12407       0   12406
   12407   12408   12409   12410   12407   12408   12409   12410   12408   12409
   12410   12411   12412   12413   12414   12415   12416   12409   12410   12411
   12412   12413   12414   12415   12416   12410   12411   12412   12413   12411
   12412   12413   12412   12413   12414   12415   12416   12413   12414   12415
   12416   12414   12415   12416   12415   12416   12416       0   12418   12419
   12420   12421   12422   12423   12424   12425   12426   12427   12428   12429
   12419   12420   12421   12422   12423   12424   12425   12426   12427   12430
   12431   12432   12420   12421   12422   12423   12424   12427   12428   12429
   12430   12432   12433   12421   12422   12423   12424   12427   12428   12429
   12433   12434   12435   12422   12425   12426   12427   12430   12431   12436
   12437   12438   12439   12423   12424   12425   12426   12427   12428   12430
   12432   12436   12424   12427   12428   12429   12433   12440   12441   12428
   12429   12433   12434   12435   12440   12441   12442   12426   12427   12430
   12431   12432   12436   12437   12438   12439   12443   12444   12445   12430
   12431   12430   12431   12432   12436   12429   12433   12434   12435   12440
   12441   12446   12433   12434   12435   12440   12442   12446   12431   12432
   12436   12437   12438   12439   12436   12437   12438   12439   12443   12444
   12445   12447   12448   12449   12436   12434   12440   12441   12442   12446
   12450   12451   12435   12440   12441   12442   12446   12450   12451   12440
   12442       0   12438   12439   12443   12444   12445   12447   12448   12449
   12452   12453   12454   12439   12443   12444   12445   12443   12444   12445
   12441   12442   12446   12450   12451   12455   12456   12457   12458   12446
   12446   12444   12445   12447   12448   12449   12452   12453   12454   12459
   12460   12461   12445   12447   12448   12449   12447   12448   12449   12450
   12451   12455   12456   12457   12458   12462   12463   12464   12448   12449
   12452   12453   12454   12459   12460   12461   12465   12466   12467   12449
   12452   12453   12454   12452   12453   12454   12451   12455   12456   12457
   12458   12462   12463   12468   12455   12456   12457   12458   12462   12464
   12468   12453   12454   12459   12460   12461   12465   12466   12467   12469
   12470   12471   12454   12459   12460   12461   12459   12460   12461   12456
   12457   12462   12463   12464   12468   12462   12463   12458   12462   12463
   12464   12468   12462   12464   12460   12461   12465   12466   12467   12469
   12470   12471   12472   12473   12474   12461   12465   12466   12467   12465
   12466   12467   12463   12464   12468   12468   12468   12466   12467   12469
   12470   12471   12472   12473   12474   12475   12476   12477   12467   12469
   12470   12471   12469   12470   12471       0   12470   12471   12472   12473
   12474   12471   12472   12473   12474   12472   12473   12474   12475   12476
   12477   12478   12479   12480   12473   12474   12475   12476   12477   12478
   12479   12480   12474   12475   12476   12477   12475   12476   12477   12476
   12477   12478   12479   12480   12477   12478   12479   12480   12478   12479
   12480   12479   12480   12480       0   12482   12483   12484   12485   12486
   12487   12488   12489   12490   12491   12492   12493   12483   12484   12485
   12486   12487   12488   12489   12490   12491   12494   12495   12496   12484
   12485   12486   12487   12488   12491   12492   12493   12494   12496   12497
   12485   12486   12487   12488   12491   12492   12493   12497   12498   12499
   12486   12489   12490   12491   12494   12495   12500   12501   12502   12503
   12487   12488   12489   12490   12491   12492   12494   12496   12500   12488
   12491   12492   12493   12497   12504   12505   12492   12493   12497   12498
   12499   12504   12505   12506   12490   12491   12494   12495   12496   12500
   12501   12502   12503   12507   12508   12509   12494   12495   12494   12495
   12496   12500   12493   12497   12498   12499   12504   12505   12510   12497
   12498   12499   12504   12506   12510   12495   12496   12500   12501   12502
   12503   12500   12501   12502   12503   12507   12508   12509   12511   12512
   12513   12500   12498   12504   12505   12506   12510   12514   12515   12499
   12504   12505   12506   12510   12514   12515   12504   12506       0   12502
   12503   12507   12508   12509   12511   12512   12513   12516   12517   12518
   12503   12507   12508   12509   12507   12508   12509   12505   12506   12510
   12514   12515   12519   12520   12521   12522   12510   12510   12508   12509
   12511   12512   12513   12516   12517   12518   12523   12524   12525   12509
   12511   12512   12513   12511   12512   12513   12514   12515   12519   12520
   12521   12522   12526   12527   12528   12512   12513   12516   12517   12518
   12523   12524   12525   12529   12530   12531   12513   12516   12517   12518
   12516   12517   12518   12515   12519   12520   12521   12522   12526   12527
   12532   12519   12520   12521   12522   12526   12528   12532   12517   12518
   12523   12524   12525   12529   12530   12531   12533   12534   12535   12518
   12523   12524   12525   12523   12524   12525   12520   12521   12526   12527
   12528   12532   12526   12527   12522   12526   12527   12528   12532   12526
   12528   12524   12525   12529   12530   12531   12533   12534   12535   12536
   12537   12538   12525   12529   12530   12531   12529   12530   12531   12527
   12528   12532   12532   12532   12530   12531   12533   12534   12535   12536
   12537   12538   12539   12540   12541   12531   12533   12534   12535   12533
   12534   12535       0   12534   12535   12536   12537   12538   12535   12536
   12537   12538   12536   12537   12538   12539   12540   12541   12542   12543
   12544   12537   12538   12539   12540   12541   12542   12543   12544   12538
   12539   12540   12541   12539   12540   12541   12540   12541   12542   12543
   12544   12541   12542   12543   12544   12542   12543   12544   12543   12544
   12544       0   12546   12547   12548   12549   12550   12551   12552   12553
   12554   12555   12556   12557   12547   12548   12549   12550   12551   12552
   12553   12554   12555   12558   12559   12560   12548   12549   12550   12551
   12552   12555   12556   12557   12558   12560   12561   12549   12550   12551
   12552   12555   12556   12557   12561   12562   12563   12550   12553   12554
   12555   12558   12559   12564   12565   12566   12567   12551   12552   12553
   12554   12555   12556   12558   12560   12564   12552   12555   12556   12557
   12561   12568   12569   12556   12557   12561   12562   12563   12568   12569
   12570   12554   12555   12558   12559   12560   12564   12565   12566   12567
   12571   12572   12573   12558   12559   12558   12559   12560   12564   12557
   12561   12562   12563   12568   12569   12574   12561   12562   12563   12568
   12570   12574   12559   12560   12564   12565   12566   12567   12564   12565
   12566   12567   12571   12572   12573   12575   12576   12577   12564   12562
   12568   12569   12570   12574   12578   12579   12563   12568   12569   12570
   12574   12578   12579   12568   12570       0   12566   12567   12571   12572
   12573   12575   12576   12577   12580   12581   12582   12567   12571   12572
   12573   12571   12572   12573   12569   12570   12574   12578   12579   12583
   12584   12585   12586   12574   12574   12572   12573   12575   12576   12577
   12580   12581   12582   12587   12588   12589   12573   12575   12576   12577
   12575   12576   12577   12578   12579   12583   12584   12585   12586   12590
   12591   12592   12576   12577   12580   12581   12582   12587   12588   12589
   12593   12594   12595   12577   12580   12581   12582   12580   12581   12582
   12579   12583   12584   12585   12586   12590   12591   12596   12583   12584
   12585   12586   12590   12592   12596   12581   12582   12587   12588   12589
   12593   12594   12595   12597   12598   12599   12582   12587   12588   12589
   12587   12588   12589   12584   12585   12590   12591   12592   12596   12590
   12591   12586   12590   12591   12592   12596   12590   12592   12588   12589
   12593   12594   12595   12597   12598   12599   12600   12601   12602   12589
   12593   12594   12595   12593   12594   12595   12591   12592   12596   12596
   12596   12594   12595   12597   12598   12599   12600   12601   12602   12603
   12604   12605   12595   12597   12598   12599   12597   12598   12599       0
   12598   12599   12600   12601   12602   12599   12600   12601   12602   12600
   12601   12602   12603   12604   12605   12606   12607   12608   12601   12602
   12603   12604   12605   12606   12607   12608   12602   12603   12604   12605
   12603   12604   12605   12604   12605   12606   12607   12608   12605   12606
   12607   12608   12606   12607   12608   12607   12608   12608       0   12610
   12611   12612   12613   12614   12615   12616   12617   12618   12619   12620
   12621   12611   12612   12613   12614   12615   12616   12617   12618   12619
   12622   12623   12624   12612   12613   12614   12615   12616   12619   12620
   12621   12622   12624   12625   12613   12614   12615   12616   12619   12620
   12621   12625   12626   12627   12614   12617   12618   12619   12622   12623
   12628   12629   12630   12631   12615   12616   12617   12618   12619   12620
   12622   12624   12628   12616   12619   12620   12621   12625   12632   12633
   12620   12621   12625   12626   12627   12632   12633   12634   12618   12619
   12622   12623   12624   12628   12629   12630   12631   12635   12636   12637
   12622   12623   12622   12623   12624   12628   12621   12625   12626   12627
   12632   12633   12638   12625   12626   12627   12632   12634   12638   12623
   12624   12628   12629   12630   12631   12628   12629   12630   12631   12635
   12636   12637   12639   12640   12641   12628   12626   12632   12633   12634
   12638   12642   12643   12627   12632   12633   12634   12638   12642   12643
   12632   12634       0   12630   12631   12635   12636   12637   12639   12640
   12641   12644   12645   12646   12631   12635   12636   12637   12635   12636
   12637   12633   12634   12638   12642   12643   12647   12648   12649   12650
   12638   12638   12636   12637   12639   12640   12641   12644   12645   12646
   12651   12652   12653   12637   12639   12640   12641   12639   12640   12641
   12642   12643   12647   12648   12649   12650   12654   12655   12656   12640
   12641   12644   12645   12646   12651   12652   12653   12657   12658   12659
   12641   12644   12645   12646   12644   12645   12646   12643   12647   12648
   12649   12650   12654   12655   12660   12647   12648   12649   12650   12654
   12656   12660   12645   12646   12651   12652   12653   12657   12658   12659
   12661   12662   12663   12646   12651   12652   12653   12651   12652   12653
   12648   12649   12654   12655   12656   12660   12654   12655   12650   12654
   12655   12656   12660   12654   12656   12652   12653   12657   12658   12659
   12661   12662   12663   12664   12665   12666   12653   12657   12658   12659
   12657   12658   12659   12655   12656   12660   12660   12660   12658   12659
   12661   12662   12663   12664   12665   12666   12667   12668   12669   12659
   12661   12662   12663   12661   12662   12663       0   12662   12663   12664
   12665   12666   12663   12664   12665   12666   12664   12665   12666   12667
   12668   12669   12670   12671   12672   12665   12666   12667   12668   12669
   12670   12671   12672   12666   12667   12668   12669   12667   12668   12669
   12668   12669   12670   12671   12672   12669   12670   12671   12672   12670
   12671   12672   12671   12672   12672       0   12674   12675   12676   12677
   12678   12679   12680   12681   12682   12683   12684   12685   12675   12676
   12677   12678   12679   12680   12681   12682   12683   12686   12687   12688
   12676   12677   12678   12679   12680   12683   12684   12685   12686   12688
   12689   12677   12678   12679   12680   12683   12684   12685   12689   12690
   12691   12678   12681   12682   12683   12686   12687   12692   12693   12694
   12695   12679   12680   12681   12682   12683   12684   12686   12688   12692
   12680   12683   12684   12685   12689   12696   12697   12684   12685   12689
   12690   12691   12696   12697   12698   12682   12683   12686   12687   12688
   12692   12693   12694   12695   12699   12700   12701   12686   12687   12686
   12687   12688   12692   12685   12689   12690   12691   12696   12697   12702
   12689   12690   12691   12696   12698   12702   12687   12688   12692   12693
   12694   12695   12692   12693   12694   12695   12699   12700   12701   12703
   12704   12705   12692   12690   12696   12697   12698   12702   12706   12707
   12691   12696   12697   12698   12702   12706   12707   12696   12698       0
   12694   12695   12699   12700   12701   12703   12704   12705   12708   12709
   12710   12695   12699   12700   12701   12699   12700   12701   12697   12698
   12702   12706   12707   12711   12712   12713   12714   12702   12702   12700
   12701   12703   12704   12705   12708   12709   12710   12715   12716   12717
   12701   12703   12704   12705   12703   12704   12705   12706   12707   12711
   12712   12713   12714   12718   12719   12720   12704   12705   12708   12709
   12710   12715   12716   12717   12721   12722   12723   12705   12708   12709
   12710   12708   12709   12710   12707   12711   12712   12713   12714   12718
   12719   12724   12711   12712   12713   12714   12718   12720   12724   12709
   12710   12715   12716   12717   12721   12722   12723   12725   12726   12727
   12710   12715   12716   12717   12715   12716   12717   12712   12713   12718
   12719   12720   12724   12718   12719   12714   12718   12719   12720   12724
   12718   12720   12716   12717   12721   12722   12723   12725   12726   12727
   12728   12729   12730   12717   12721   12722   12723   12721   12722   12723
   12719   12720   12724   12724   12724   12722   12723   12725   12726   12727
   12728   12729   12730   12731   12732   12733   12723   12725   12726   12727
   12725   12726   12727       0   12726   12727   12728   12729   12730   12727
   12728   12729   12730   12728   12729   12730   12731   12732   12733   12734
   12735   12736   12729   12730   12731   12732   12733   12734   12735   12736
   12730   12731   12732   12733   12731   12732   12733   12732   12733   12734
   12735   12736   12733   12734   12735   12736   12734   12735   12736   12735
   12736   12736       0   12738   12739   12740   12741   12742   12743   12744
   12745   12746   12747   12748   12749   12739   12740   12741   12742   12743
   12744   12745   12746   12747   12750   12751   12752   12740   12741   12742
   12743   12744   12747   12748   12749   12750   12752   12753   12741   12742
   12743   12744   12747   12748   12749   12753   12754   12755   12742   12745
   12746   12747   12750   12751   12756   12757   12758   12759   12743   12744
   12745   12746   12747   12748   12750   12752   12756   12744   12747   12748
   12749   12753   12760   12761   12748   12749   12753   12754   12755   12760
   12761   12762   12746   12747   12750   12751   12752   12756   12757   12758
   12759   12763   12764   12765   12750   12751   12750   12751   12752   12756
   12749   12753   12754   12755   12760   12761   12766   12753   12754   12755
   12760   12762   12766   12751   12752   12756   12757   12758   12759   12756
   12757   12758   12759   12763   12764   12765   12767   12768   12769   12756
   12754   12760   12761   12762   12766   12770   12771   12755   12760   12761
   12762   12766   12770   12771   12760   12762       0   12758   12759   12763
   12764   12765   12767   12768   12769   12772   12773   12774   12759   12763
   12764   12765   12763   12764   12765   12761   12762   12766   12770   12771
   12775   12776   12777   12778   12766   12766   12764   12765   12767   12768
   12769   12772   12773   12774   12779   12780   12781   12765   12767   12768
   12769   12767   12768   12769   12770   12771   12775   12776   12777   12778
   12782   12783   12784   12768   12769   12772   12773   12774   12779   12780
   12781   12785   12786   12787   12769   12772   12773   12774   12772   12773
   12774   12771   12775   12776   12777   12778   12782   12783   12788   12775
   12776   12777   12778   12782   12784   12788   12773   12774   12779   12780
   12781   12785   12786   12787   12789   12790   12791   12774   12779   12780
   12781   12779   12780   12781   12776   12777   12782   12783   12784   12788
   12782   12783   12778   12782   12783   12784   12788   12782   12784   12780
   12781   12785   12786   12787   12789   12790   12791   12792   12793   12794
   12781   12785   12786   12787   12785   12786   12787   12783   12784   12788
   12788   12788   12786   12787   12789   12790   12791   12792   12793   12794
   12795   12796   12797   12787   12789   12790   12791   12789   12790   12791
       0   12790   12791   12792   12793   12794   12791   12792   12793   12794
   12792   12793   12794   12795   12796   12797   12798   12799   12800   12793
   12794   12795   12796   12797   12798   12799   12800   12794   12795   12796
   12797   12795   12796   12797   12796   12797   12798   12799   12800   12797
   12798   12799   12800   12798   12799   12800   12799   12800   12800       0
   12802   12803   12804   12805   12806   12807   12808   12809   12810   12811
   12812   12813   12803   12804   12805   12806   12807   12808   12809   12810
   12811   12814   12815   12816   12804   12805   12806   12807   12808   12811
   12812   12813   12814   12816   12817   12805   12806   12807   12808   12811
   12812   12813   12817   12818   12819   12806   12809   12810   12811   12814
   12815   12820   12821   12822   12823   12807   12808   12809   12810   12811
   12812   12814   12816   12820   12808   12811   12812   12813   12817   12824
   12825   12812   12813   12817   12818   12819   12824   12825   12826   12810
   12811   12814   12815   12816   12820   12821   12822   12823   12827   12828
   12829   12814   12815   12814   12815   12816   12820   12813   12817   12818
   12819   12824   12825   12830   12817   12818   12819   12824   12826   12830
   12815   12816   12820   12821   12822   12823   12820   12821   12822   12823
   12827   12828   12829   12831   12832   12833   12820   12818   12824   12825
   12826   12830   12834   12835   12819   12824   12825   12826   12830   12834
   12835   12824   12826       0   12822   12823   12827   12828   12829   12831
   12832   12833   12836   12837   12838   12823   12827   12828   12829   12827
   12828   12829   12825   12826   12830   12834   12835   12839   12840   12841
   12842   12830   12830   12828   12829   12831   12832   12833   12836   12837
   12838   12843   12844   12845   12829   12831   12832   12833   12831   12832
   12833   12834   12835   12839   12840   12841   12842   12846   12847   12848
   12832   12833   12836   12837   12838   12843   12844   12845   12849   12850
   12851   12833   12836   12837   12838   12836   12837   12838   12835   12839
   12840   12841   12842   12846   12847   12852   12839   12840   12841   12842
   12846   12848   12852   12837   12838   12843   12844   12845   12849   12850
   12851   12853   12854   12855   12838   12843   12844   12845   12843   12844
   12845   12840   12841   12846   12847   12848   12852   12846   12847   12842
   12846   12847   12848   12852   12846   12848   12844   12845   12849   12850
   12851   12853   12854   12855   12856   12857   12858   12845   12849   12850
   12851   12849   12850   12851   12847   12848   12852   12852   12852   12850
   12851   12853   12854   12855   12856   12857   12858   12859   12860   12861
   12851   12853   12854   12855   12853   12854   12855       0   12854   12855
   12856   12857   12858   12855   12856   12857   12858   12856   12857   12858
   12859   12860   12861   12862   12863   12864   12857   12858   12859   12860
   12861   12862   12863   12864   12858   12859   12860   12861   12859   12860
   12861   12860   12861   12862   12863   12864   12861   12862   12863   12864
   12862   12863   12864   12863   12864   12864       0   12866   12867   12868
   12869   12870   12871   12872   12873   12874   12875   12876   12877   12867
   12868   12869   12870   12871   12872   12873   12874   12875   12878   12879
   12880   12868   12869   12870   12871   12872   12875   12876   12877   12878
   12880   12881   12869   12870   12871   12872   12875   12876   12877   12881
   12882   12883   12870   12873   12874   12875   12878   12879   12884   12885
   12886   12887   12871   12872   12873   12874   12875   12876   12878   12880
   12884   12872   12875   12876   12877   12881   12888   12889   12876   12877
   12881   12882   12883   12888   12889   12890   12874   12875   12878   12879
   12880   12884   12885   12886   12887   12891   12892   12893   12878   12879
   12878   12879   12880   12884   12877   12881   12882   12883   12888   12889
   12894   12881   12882   12883   12888   12890   12894   12879   12880   12884
   12885   12886   12887   12884   12885   12886   12887   12891   12892   12893
   12895   12896   12897   12884   12882   12888   12889   12890   12894   12898
   12899   12883   12888   12889   12890   12894   12898   12899   12888   12890
       0   12886   12887   12891   12892   12893   12895   12896   12897   12900
   12901   12902   12887   12891   12892   12893   12891   12892   12893   12889
   12890   12894   12898   12899   12903   12904   12905   12906   12894   12894
   12892   12893   12895   12896   12897   12900   12901   12902   12907   12908
   12909   12893   12895   12896   12897   12895   12896   12897   12898   12899
   12903   12904   12905   12906   12910   12911   12912   12896   12897   12900
   12901   12902   12907   12908   12909   12913   12914   12915   12897   12900
   12901   12902   12900   12901   12902   12899   12903   12904   12905   12906
   12910   12911   12916   12903   12904   12905   12906   12910   12912   12916
   12901   12902   12907   12908   12909   12913   12914   12915   12917   12918
   12919   12902   12907   12908   12909   12907   12908   12909   12904   12905
   12910   12911   12912   12916   12910   12911   12906   12910   12911   12912
   12916   12910   12912   12908   12909   12913   12914   12915   12917   12918
   12919   12920   12921   12922   12909   12913   12914   12915   12913   12914
   12915   12911   12912   12916   12916   12916   12914   12915   12917   12918
   12919   12920   12921   12922   12923   12924   12925   12915   12917   12918
   12919   12917   12918   12919       0   12918   12919   12920   12921   12922
   12919   12920   12921   12922   12920   12921   12922   12923   12924   12925
   12926   12927   12928   12921   12922   12923   12924   12925   12926   12927
   12928   12922   12923   12924   12925   12923   12924   12925   12924   12925
   12926   12927   12928   12925   12926   12927   12928   12926   12927   12928
   12927   12928   12928       0   12930   12931   12932   12933   12934   12935
   12936   12937   12938   12939   12940   12941   12931   12932   12933   12934
   12935   12936   12937   12938   12939   12942   12943   12944   12932   12933
   12934   12935   12936   12939   12940   12941   12942   12944   12945   12933
   12934   12935   12936   12939   12940   12941   12945   12946   12947   12934
   12937   12938   12939   12942   12943   12948   12949   12950   12951   12935
   12936   12937   12938   12939   12940   12942   12944   12948   12936   12939
   12940   12941   12945   12952   12953   12940   12941   12945   12946   12947
   12952   12953   12954   12938   12939   12942   12943   12944   12948   12949
   12950   12951   12955   12956   12957   12942   12943   12942   12943   12944
   12948   12941   12945   12946   12947   12952   12953   12958   12945   12946
   12947   12952   12954   12958   12943   12944   12948   12949   12950   12951
   12948   12949   12950   12951   12955   12956   12957   12959   12960   12961
   12948   12946   12952   12953   12954   12958   12962   12963   12947   12952
   12953   12954   12958   12962   12963   12952   12954       0   12950   12951
   12955   12956   12957   12959   12960   12961   12964   12965   12966   12951
   12955   12956   12957   12955   12956   12957   12953   12954   12958   12962
   12963   12967   12968   12969   12970   12958   12958   12956   12957   12959
   12960   12961   12964   12965   12966   12971   12972   12973   12957   12959
   12960   12961   12959   12960   12961   12962   12963   12967   12968   12969
   12970   12974   12975   12976   12960   12961   12964   12965   12966   12971
   12972   12973   12977   12978   12979   12961   12964   12965   12966   12964
   12965   12966   12963   12967   12968   12969   12970   12974   12975   12980
   12967   12968   12969   12970   12974   12976   12980   12965   12966   12971
   12972   12973   12977   12978   12979   12981   12982   12983   12966   12971
   12972   12973   12971   12972   12973   12968   12969   12974   12975   12976
   12980   12974   12975   12970   12974   12975   12976   12980   12974   12976
   12972   12973   12977   12978   12979   12981   12982   12983   12984   12985
   12986   12973   12977   12978   12979   12977   12978   12979   12975   12976
   12980   12980   12980   12978   12979   12981   12982   12983   12984   12985
   12986   12987   12988   12989   12979   12981   12982   12983   12981   12982
   12983       0   12982   12983   12984   12985   12986   12983   12984   12985
   12986   12984   12985   12986   12987   12988   12989   12990   12991   12992
   12985   12986   12987   12988   12989   12990   12991   12992   12986   12987
   12988   12989   12987   12988   12989   12988   12989   12990   12991   12992
   12989   12990   12991   12992   12990   12991   12992   12991   12992   12992
       0   12994   12995   12996   12997   12998   12999   13000   13001   13002
   13003   13004   13005   12995   12996   12997   12998   12999   13000   13001
   13002   13003   13006   13007   13008   12996   12997   12998   12999   13000
   13003   13004   13005   13006   13008   13009   12997   12998   12999   13000
   13003   13004   13005   13009   13010   13011   12998   13001   13002   13003
   13006   13007   13012   13013   13014   13015   12999   13000   13001   13002
   13003   13004   13006   13008   13012   13000   13003   13004   13005   13009
   13016   13017   13004   13005   13009   13010   13011   13016   13017   13018
   13002   13003   13006   13007   13008   13012   13013   13014   13015   13019
   13020   13021   13006   13007   13006   13007   13008   13012   13005   13009
   13010   13011   13016   13017   13022   13009   13010   13011   13016   13018
   13022   13007   13008   13012   13013   13014   13015   13012   13013   13014
   13015   13019   13020   13021   13023   13024   13025   13012   13010   13016
   13017   13018   13022   13026   13027   13011   13016   13017   13018   13022
   13026   13027   13016   13018       0   13014   13015   13019   13020   13021
   13023   13024   13025   13028   13029   13030   13015   13019   13020   13021
   13019   13020   13021   13017   13018   13022   13026   13027   13031   13032
   13033   13034   13022   13022   13020   13021   13023   13024   13025   13028
   13029   13030   13035   13036   13037   13021   13023   13024   13025   13023
   13024   13025   13026   13027   13031   13032   13033   13034   13038   13039
   13040   13024   13025   13028   13029   13030   13035   13036   13037   13041
   13042   13043   13025   13028   13029   13030   13028   13029   13030   13027
   13031   13032   13033   13034   13038   13039   13044   13031   13032   13033
   13034   13038   13040   13044   13029   13030   13035   13036   13037   13041
   13042   13043   13045   13046   13047   13030   13035   13036   13037   13035
   13036   13037   13032   13033   13038   13039   13040   13044   13038   13039
   13034   13038   13039   13040   13044   13038   13040   13036   13037   13041
   13042   13043   13045   13046   13047   13048   13049   13050   13037   13041
   13042   13043   13041   13042   13043   13039   13040   13044   13044   13044
   13042   13043   13045   13046   13047   13048   13049   13050   13051   13052
   13053   13043   13045   13046   13047   13045   13046   13047       0   13046
   13047   13048   13049   13050   13047   13048   13049   13050   13048   13049
   13050   13051   13052   13053   13054   13055   13056   13049   13050   13051
   13052   13053   13054   13055   13056   13050   13051   13052   13053   13051
   13052   13053   13052   13053   13054   13055   13056   13053   13054   13055
   13056   13054   13055   13056   13055   13056   13056       0   13058   13059
   13060   13061   13062   13063   13064   13065   13066   13067   13068   13069
   13059   13060   13061   13062   13063   13064   13065   13066   13067   13070
   13071   13072   13060   13061   13062   13063   13064   13067   13068   13069
   13070   13072   13073   13061   13062   13063   13064   13067   13068   13069
   13073   13074   13075   13062   13065   13066   13067   13070   13071   13076
   13077   13078   13079   13063   13064   13065   13066   13067   13068   13070
   13072   13076   13064   13067   13068   13069   13073   13080   13081   13068
   13069   13073   13074   13075   13080   13081   13082   13066   13067   13070
   13071   13072   13076   13077   13078   13079   13083   13084   13085   13070
   13071   13070   13071   13072   13076   13069   13073   13074   13075   13080
   13081   13086   13073   13074   13075   13080   13082   13086   13071   13072
   13076   13077   13078   13079   13076   13077   13078   13079   13083   13084
   13085   13087   13088   13089   13076   13074   13080   13081   13082   13086
   13090   13091   13075   13080   13081   13082   13086   13090   13091   13080
   13082       0   13078   13079   13083   13084   13085   13087   13088   13089
   13092   13093   13094   13079   13083   13084   13085   13083   13084   13085
   13081   13082   13086   13090   13091   13095   13096   13097   13098   13086
   13086   13084   13085   13087   13088   13089   13092   13093   13094   13099
   13100   13101   13085   13087   13088   13089   13087   13088   13089   13090
   13091   13095   13096   13097   13098   13102   13103   13104   13088   13089
   13092   13093   13094   13099   13100   13101   13105   13106   13107   13089
   13092   13093   13094   13092   13093   13094   13091   13095   13096   13097
   13098   13102   13103   13108   13095   13096   13097   13098   13102   13104
   13108   13093   13094   13099   13100   13101   13105   13106   13107   13109
   13110   13111   13094   13099   13100   13101   13099   13100   13101   13096
   13097   13102   13103   13104   13108   13102   13103   13098   13102   13103
   13104   13108   13102   13104   13100   13101   13105   13106   13107   13109
   13110   13111   13112   13113   13114   13101   13105   13106   13107   13105
   13106   13107   13103   13104   13108   13108   13108   13106   13107   13109
   13110   13111   13112   13113   13114   13115   13116   13117   13107   13109
   13110   13111   13109   13110   13111       0   13110   13111   13112   13113
   13114   13111   13112   13113   13114   13112   13113   13114   13115   13116
   13117   13118   13119   13120   13113   13114   13115   13116   13117   13118
   13119   13120   13114   13115   13116   13117   13115   13116   13117   13116
   13117   13118   13119   13120   13117   13118   13119   13120   13118   13119
   13120   13119   13120   13120       0   13122   13123   13124   13125   13126
   13127   13128   13129   13130   13131   13132   13133   13123   13124   13125
   13126   13127   13128   13129   13130   13131   13134   13135   13136   13124
   13125   13126   13127   13128   13131   13132   13133   13134   13136   13137
   13125   13126   13127   13128   13131   13132   13133   13137   13138   13139
   13126   13129   13130   13131   13134   13135   13140   13141   13142   13143
   13127   13128   13129   13130   13131   13132   13134   13136   13140   13128
   13131   13132   13133   13137   13144   13145   13132   13133   13137   13138
   13139   13144   13145   13146   13130   13131   13134   13135   13136   13140
   13141   13142   13143   13147   13148   13149   13134   13135   13134   13135
   13136   13140   13133   13137   13138   13139   13144   13145   13150   13137
   13138   13139   13144   13146   13150   13135   13136   13140   13141   13142
   13143   13140   13141   13142   13143   13147   13148   13149   13151   13152
   13153   13140   13138   13144   13145   13146   13150   13154   13155   13139
   13144   13145   13146   13150   13154   13155   13144   13146       0   13142
   13143   13147   13148   13149   13151   13152   13153   13156   13157   13158
   13143   13147   13148   13149   13147   13148   13149   13145   13146   13150
   13154   13155   13159   13160   13161   13162   13150   13150   13148   13149
   13151   13152   13153   13156   13157   13158   13163   13164   13165   13149
   13151   13152   13153   13151   13152   13153   13154   13155   13159   13160
   13161   13162   13166   13167   13168   13152   13153   13156   13157   13158
   13163   13164   13165   13169   13170   13171   13153   13156   13157   13158
   13156   13157   13158   13155   13159   13160   13161   13162   13166   13167
   13172   13159   13160   13161   13162   13166   13168   13172   13157   13158
   13163   13164   13165   13169   13170   13171   13173   13174   13175   13158
   13163   13164   13165   13163   13164   13165   13160   13161   13166   13167
   13168   13172   13166   13167   13162   13166   13167   13168   13172   13166
   13168   13164   13165   13169   13170   13171   13173   13174   13175   13176
   13177   13178   13165   13169   13170   13171   13169   13170   13171   13167
   13168   13172   13172   13172   13170   13171   13173   13174   13175   13176
   13177   13178   13179   13180   13181   13171   13173   13174   13175   13173
   13174   13175       0   13174   13175   13176   13177   13178   13175   13176
   13177   13178   13176   13177   13178   13179   13180   13181   13182   13183
   13184   13177   13178   13179   13180   13181   13182   13183   13184   13178
   13179   13180   13181   13179   13180   13181   13180   13181   13182   13183
   13184   13181   13182   13183   13184   13182   13183   13184   13183   13184
   13184       0   13186   13187   13188   13189   13190   13191   13192   13193
   13194   13195   13196   13197   13187   13188   13189   13190   13191   13192
   13193   13194   13195   13198   13199   13200   13188   13189   13190   13191
   13192   13195   13196   13197   13198   13200   13201   13189   13190   13191
   13192   13195   13196   13197   13201   13202   13203   13190   13193   13194
   13195   13198   13199   13204   13205   13206   13207   13191   13192   13193
   13194   13195   13196   13198   13200   13204   13192   13195   13196   13197
   13201   13208   13209   13196   13197   13201   13202   13203   13208   13209
   13210   13194   13195   13198   13199   13200   13204   13205   13206   13207
   13211   13212   13213   13198   13199   13198   13199   13200   13204   13197
   13201   13202   13203   13208   13209   13214   13201   13202   13203   13208
   13210   13214   13199   13200   13204   13205   13206   13207   13204   13205
   13206   13207   13211   13212   13213   13215   13216   13217   13204   13202
   13208   13209   13210   13214   13218   13219   13203   13208   13209   13210
   13214   13218   13219   13208   13210       0   13206   13207   13211   13212
   13213   13215   13216   13217   13220   13221   13222   13207   13211   13212
   13213   13211   13212   13213   13209   13210   13214   13218   13219   13223
   13224   13225   13226   13214   13214   13212   13213   13215   13216   13217
   13220   13221   13222   13227   13228   13229   13213   13215   13216   13217
   13215   13216   13217   13218   13219   13223   13224   13225   13226   13230
   13231   13232   13216   13217   13220   13221   13222   13227   13228   13229
   13233   13234   13235   13217   13220   13221   13222   13220   13221   13222
   13219   13223   13224   13225   13226   13230   13231   13236   13223   13224
   13225   13226   13230   13232   13236   13221   13222   13227   13228   13229
   13233   13234   13235   13237   13238   13239   13222   13227   13228   13229
   13227   13228   13229   13224   13225   13230   13231   13232   13236   13230
   13231   13226   13230   13231   13232   13236   13230   13232   13228   13229
   13233   13234   13235   13237   13238   13239   13240   13241   13242   13229
   13233   13234   13235   13233   13234   13235   13231   13232   13236   13236
   13236   13234   13235   13237   13238   13239   13240   13241   13242   13243
   13244   13245   13235   13237   13238   13239   13237   13238   13239       0
   13238   13239   13240   13241   13242   13239   13240   13241   13242   13240
   13241   13242   13243   13244   13245   13246   13247   13248   13241   13242
   13243   13244   13245   13246   13247   13248   13242   13243   13244   13245
   13243   13244   13245   13244   13245   13246   13247   13248   13245   13246
   13247   13248   13246   13247   13248   13247   13248   13248       0   13250
   13251   13252   13253   13254   13255   13256   13257   13258   13259   13260
   13261   13251   13252   13253   13254   13255   13256   13257   13258   13259
   13262   13263   13264   13252   13253   13254   13255   13256   13259   13260
   13261   13262   13264   13265   13253   13254   13255   13256   13259   13260
   13261   13265   13266   13267   13254   13257   13258   13259   13262   13263
   13268   13269   13270   13271   13255   13256   13257   13258   13259   13260
   13262   13264   13268   13256   13259   13260   13261   13265   13272   13273
   13260   13261   13265   13266   13267   13272   13273   13274   13258   13259
   13262   13263   13264   13268   13269   13270   13271   13275   13276   13277
   13262   13263   13262   13263   13264   13268   13261   13265   13266   13267
   13272   13273   13278   13265   13266   13267   13272   13274   13278   13263
   13264   13268   13269   13270   13271   13268   13269   13270   13271   13275
   13276   13277   13279   13280   13281   13268   13266   13272   13273   13274
   13278   13282   13283   13267   13272   13273   13274   13278   13282   13283
   13272   13274       0   13270   13271   13275   13276   13277   13279   13280
   13281   13284   13285   13286   13271   13275   13276   13277   13275   13276
   13277   13273   13274   13278   13282   13283   13287   13288   13289   13290
   13278   13278   13276   13277   13279   13280   13281   13284   13285   13286
   13291   13292   13293   13277   13279   13280   13281   13279   13280   13281
   13282   13283   13287   13288   13289   13290   13294   13295   13296   13280
   13281   13284   13285   13286   13291   13292   13293   13297   13298   13299
   13281   13284   13285   13286   13284   13285   13286   13283   13287   13288
   13289   13290   13294   13295   13300   13287   13288   13289   13290   13294
   13296   13300   13285   13286   13291   13292   13293   13297   13298   13299
   13301   13302   13303   13286   13291   13292   13293   13291   13292   13293
   13288   13289   13294   13295   13296   13300   13294   13295   13290   13294
   13295   13296   13300   13294   13296   13292   13293   13297   13298   13299
   13301   13302   13303   13304   13305   13306   13293   13297   13298   13299
   13297   13298   13299   13295   13296   13300   13300   13300   13298   13299
   13301   13302   13303   13304   13305   13306   13307   13308   13309   13299
   13301   13302   13303   13301   13302   13303       0   13302   13303   13304
   13305   13306   13303   13304   13305   13306   13304   13305   13306   13307
   13308   13309   13310   13311   13312   13305   13306   13307   13308   13309
   13310   13311   13312   13306   13307   13308   13309   13307   13308   13309
   13308   13309   13310   13311   13312   13309   13310   13311   13312   13310
   13311   13312   13311   13312   13312       0   13314   13315   13316   13317
   13318   13319   13320   13321   13322   13323   13324   13325   13315   13316
   13317   13318   13319   13320   13321   13322   13323   13326   13327   13328
   13316   13317   13318   13319   13320   13323   13324   13325   13326   13328
   13329   13317   13318   13319   13320   13323   13324   13325   13329   13330
   13331   13318   13321   13322   13323   13326   13327   13332   13333   13334
   13335   13319   13320   13321   13322   13323   13324   13326   13328   13332
   13320   13323   13324   13325   13329   13336   13337   13324   13325   13329
   13330   13331   13336   13337   13338   13322   13323   13326   13327   13328
   13332   13333   13334   13335   13339   13340   13341   13326   13327   13326
   13327   13328   13332   13325   13329   13330   13331   13336   13337   13342
   13329   13330   13331   13336   13338   13342   13327   13328   13332   13333
   13334   13335   13332   13333   13334   13335   13339   13340   13341   13343
   13344   13345   13332   13330   13336   13337   13338   13342   13346   13347
   13331   13336   13337   13338   13342   13346   13347   13336   13338       0
   13334   13335   13339   13340   13341   13343   13344   13345   13348   13349
   13350   13335   13339   13340   13341   13339   13340   13341   13337   13338
   13342   13346   13347   13351   13352   13353   13354   13342   13342   13340
   13341   13343   13344   13345   13348   13349   13350   13355   13356   13357
   13341   13343   13344   13345   13343   13344   13345   13346   13347   13351
   13352   13353   13354   13358   13359   13360   13344   13345   13348   13349
   13350   13355   13356   13357   13361   13362   13363   13345   13348   13349
   13350   13348   13349   13350   13347   13351   13352   13353   13354   13358
   13359   13364   13351   13352   13353   13354   13358   13360   13364   13349
   13350   13355   13356   13357   13361   13362   13363   13365   13366   13367
   13350   13355   13356   13357   13355   13356   13357   13352   13353   13358
   13359   13360   13364   13358   13359   13354   13358   13359   13360   13364
   13358   13360   13356   13357   13361   13362   13363   13365   13366   13367
   13368   13369   13370   13357   13361   13362   13363   13361   13362   13363
   13359   13360   13364   13364   13364   13362   13363   13365   13366   13367
   13368   13369   13370   13371   13372   13373   13363   13365   13366   13367
   13365   13366   13367       0   13366   13367   13368   13369   13370   13367
   13368   13369   13370   13368   13369   13370   13371   13372   13373   13374
   13375   13376   13369   13370   13371   13372   13373   13374   13375   13376
   13370   13371   13372   13373   13371   13372   13373   13372   13373   13374
   13375   13376   13373   13374   13375   13376   13374   13375   13376   13375
   13376   13376       0   13378   13379   13380   13381   13382   13383   13384
   13385   13386   13387   13388   13389   13379   13380   13381   13382   13383
   13384   13385   13386   13387   13390   13391   13392   13380   13381   13382
   13383   13384   13387   13388   13389   13390   13392   13393   13381   13382
   13383   13384   13387   13388   13389   13393   13394   13395   13382   13385
   13386   13387   13390   13391   13396   13397   13398   13399   13383   13384
   13385   13386   13387   13388   13390   13392   13396   13384   13387   13388
   13389   13393   13400   13401   13388   13389   13393   13394   13395   13400
   13401   13402   13386   13387   13390   13391   13392   13396   13397   13398
   13399   13403   13404   13405   13390   13391   13390   13391   13392   13396
   13389   13393   13394   13395   13400   13401   13406   13393   13394   13395
   13400   13402   13406   13391   13392   13396   13397   13398   13399   13396
   13397   13398   13399   13403   13404   13405   13407   13408   13409   13396
   13394   13400   13401   13402   13406   13410   13411   13395   13400   13401
   13402   13406   13410   13411   13400   13402       0   13398   13399   13403
   13404   13405   13407   13408   13409   13412   13413   13414   13399   13403
   13404   13405   13403   13404   13405   13401   13402   13406   13410   13411
   13415   13416   13417   13418   13406   13406   13404   13405   13407   13408
   13409   13412   13413   13414   13419   13420   13421   13405   13407   13408
   13409   13407   13408   13409   13410   13411   13415   13416   13417   13418
   13422   13423   13424   13408   13409   13412   13413   13414   13419   13420
   13421   13425   13426   13427   13409   13412   13413   13414   13412   13413
   13414   13411   13415   13416   13417   13418   13422   13423   13428   13415
   13416   13417   13418   13422   13424   13428   13413   13414   13419   13420
   13421   13425   13426   13427   13429   13430   13431   13414   13419   13420
   13421   13419   13420   13421   13416   13417   13422   13423   13424   13428
   13422   13423   13418   13422   13423   13424   13428   13422   13424   13420
   13421   13425   13426   13427   13429   13430   13431   13432   13433   13434
   13421   13425   13426   13427   13425   13426   13427   13423   13424   13428
   13428   13428   13426   13427   13429   13430   13431   13432   13433   13434
   13435   13436   13437   13427   13429   13430   13431   13429   13430   13431
       0   13430   13431   13432   13433   13434   13431   13432   13433   13434
   13432   13433   13434   13435   13436   13437   13438   13439   13440   13433
   13434   13435   13436   13437   13438   13439   13440   13434   13435   13436
   13437   13435   13436   13437   13436   13437   13438   13439   13440   13437
   13438   13439   13440   13438   13439   13440   13439   13440   13440       0
   13442   13443   13444   13445   13446   13447   13448   13449   13450   13451
   13452   13453   13443   13444   13445   13446   13447   13448   13449   13450
   13451   13454   13455   13456   13444   13445   13446   13447   13448   13451
   13452   13453   13454   13456   13457   13445   13446   13447   13448   13451
   13452   13453   13457   13458   13459   13446   13449   13450   13451   13454
   13455   13460   13461   13462   13463   13447   13448   13449   13450   13451
   13452   13454   13456   13460   13448   13451   13452   13453   13457   13464
   13465   13452   13453   13457   13458   13459   13464   13465   13466   13450
   13451   13454   13455   13456   13460   13461   13462   13463   13467   13468
   13469   13454   13455   13454   13455   13456   13460   13453   13457   13458
   13459   13464   13465   13470   13457   13458   13459   13464   13466   13470
   13455   13456   13460   13461   13462   13463   13460   13461   13462   13463
   13467   13468   13469   13471   13472   13473   13460   13458   13464   13465
   13466   13470   13474   13475   13459   13464   13465   13466   13470   13474
   13475   13464   13466       0   13462   13463   13467   13468   13469   13471
   13472   13473   13476   13477   13478   13463   13467   13468   13469   13467
   13468   13469   13465   13466   13470   13474   13475   13479   13480   13481
   13482   13470   13470   13468   13469   13471   13472   13473   13476   13477
   13478   13483   13484   13485   13469   13471   13472   13473   13471   13472
   13473   13474   13475   13479   13480   13481   13482   13486   13487   13488
   13472   13473   13476   13477   13478   13483   13484   13485   13489   13490
   13491   13473   13476   13477   13478   13476   13477   13478   13475   13479
   13480   13481   13482   13486   13487   13492   13479   13480   13481   13482
   13486   13488   13492   13477   13478   13483   13484   13485   13489   13490
   13491   13493   13494   13495   13478   13483   13484   13485   13483   13484
   13485   13480   13481   13486   13487   13488   13492   13486   13487   13482
   13486   13487   13488   13492   13486   13488   13484   13485   13489   13490
   13491   13493   13494   13495   13496   13497   13498   13485   13489   13490
   13491   13489   13490   13491   13487   13488   13492   13492   13492   13490
   13491   13493   13494   13495   13496   13497   13498   13499   13500   13501
   13491   13493   13494   13495   13493   13494   13495       0   13494   13495
   13496   13497   13498   13495   13496   13497   13498   13496   13497   13498
   13499   13500   13501   13502   13503   13504   13497   13498   13499   13500
   13501   13502   13503   13504   13498   13499   13500   13501   13499   13500
   13501   13500   13501   13502   13503   13504   13501   13502   13503   13504
   13502   13503   13504   13503   13504   13504       0   13506   13507   13508
   13509   13510   13511   13512   13513   13514   13515   13516   13517   13507
   13508   13509   13510   13511   13512   13513   13514   13515   13518   13519
   13520   13508   13509   13510   13511   13512   13515   13516   13517   13518
   13520   13521   13509   13510   13511   13512   13515   13516   13517   13521
   13522   13523   13510   13513   13514   13515   13518   13519   13524   13525
   13526   13527   13511   13512   13513   13514   13515   13516   13518   13520
   13524   13512   13515   13516   13517   13521   13528   13529   13516   13517
   13521   13522   13523   13528   13529   13530   13514   13515   13518   13519
   13520   13524   13525   13526   13527   13531   13532   13533   13518   13519
   13518   13519   13520   13524   13517   13521   13522   13523   13528   13529
   13534   13521   13522   13523   13528   13530   13534   13519   13520   13524
   13525   13526   13527   13524   13525   13526   13527   13531   13532   13533
   13535   13536   13537   13524   13522   13528   13529   13530   13534   13538
   13539   13523   13528   13529   13530   13534   13538   13539   13528   13530
       0   13526   13527   13531   13532   13533   13535   13536   13537   13540
   13541   13542   13527   13531   13532   13533   13531   13532   13533   13529
   13530   13534   13538   13539   13543   13544   13545   13546   13534   13534
   13532   13533   13535   13536   13537   13540   13541   13542   13547   13548
   13549   13533   13535   13536   13537   13535   13536   13537   13538   13539
   13543   13544   13545   13546   13550   13551   13552   13536   13537   13540
   13541   13542   13547   13548   13549   13553   13554   13555   13537   13540
   13541   13542   13540   13541   13542   13539   13543   13544   13545   13546
   13550   13551   13556   13543   13544   13545   13546   13550   13552   13556
   13541   13542   13547   13548   13549   13553   13554   13555   13557   13558
   13559   13542   13547   13548   13549   13547   13548   13549   13544   13545
   13550   13551   13552   13556   13550   13551   13546   13550   13551   13552
   13556   13550   13552   13548   13549   13553   13554   13555   13557   13558
   13559   13560   13561   13562   13549   13553   13554   13555   13553   13554
   13555   13551   13552   13556   13556   13556   13554   13555   13557   13558
   13559   13560   13561   13562   13563   13564   13565   13555   13557   13558
   13559   13557   13558   13559       0   13558   13559   13560   13561   13562
   13559   13560   13561   13562   13560   13561   13562   13563   13564   13565
   13566   13567   13568   13561   13562   13563   13564   13565   13566   13567
   13568   13562   13563   13564   13565   13563   13564   13565   13564   13565
   13566   13567   13568   13565   13566   13567   13568   13566   13567   13568
   13567   13568   13568       0   13570   13571   13572   13573   13574   13575
   13576   13577   13578   13579   13580   13581   13571   13572   13573   13574
   13575   13576   13577   13578   13579   13582   13583   13584   13572   13573
   13574   13575   13576   13579   13580   13581   13582   13584   13585   13573
   13574   13575   13576   13579   13580   13581   13585   13586   13587   13574
   13577   13578   13579   13582   13583   13588   13589   13590   13591   13575
   13576   13577   13578   13579   13580   13582   13584   13588   13576   13579
   13580   13581   13585   13592   13593   13580   13581   13585   13586   13587
   13592   13593   13594   13578   13579   13582   13583   13584   13588   13589
   13590   13591   13595   13596   13597   13582   13583   13582   13583   13584
   13588   13581   13585   13586   13587   13592   13593   13598   13585   13586
   13587   13592   13594   13598   13583   13584   13588   13589   13590   13591
   13588   13589   13590   13591   13595   13596   13597   13599   13600   13601
   13588   13586   13592   13593   13594   13598   13602   13603   13587   13592
   13593   13594   13598   13602   13603   13592   13594       0   13590   13591
   13595   13596   13597   13599   13600   13601   13604   13605   13606   13591
   13595   13596   13597   13595   13596   13597   13593   13594   13598   13602
   13603   13607   13608   13609   13610   13598   13598   13596   13597   13599
   13600   13601   13604   13605   13606   13611   13612   13613   13597   13599
   13600   13601   13599   13600   13601   13602   13603   13607   13608   13609
   13610   13614   13615   13616   13600   13601   13604   13605   13606   13611
   13612   13613   13617   13618   13619   13601   13604   13605   13606   13604
   13605   13606   13603   13607   13608   13609   13610   13614   13615   13620
   13607   13608   13609   13610   13614   13616   13620   13605   13606   13611
   13612   13613   13617   13618   13619   13621   13622   13623   13606   13611
   13612   13613   13611   13612   13613   13608   13609   13614   13615   13616
   13620   13614   13615   13610   13614   13615   13616   13620   13614   13616
   13612   13613   13617   13618   13619   13621   13622   13623   13624   13625
   13626   13613   13617   13618   13619   13617   13618   13619   13615   13616
   13620   13620   13620   13618   13619   13621   13622   13623   13624   13625
   13626   13627   13628   13629   13619   13621   13622   13623   13621   13622
   13623       0   13622   13623   13624   13625   13626   13623   13624   13625
   13626   13624   13625   13626   13627   13628   13629   13630   13631   13632
   13625   13626   13627   13628   13629   13630   13631   13632   13626   13627
   13628   13629   13627   13628   13629   13628   13629   13630   13631   13632
   13629   13630   13631   13632   13630   13631   13632   13631   13632   13632
       0   13634   13635   13636   13637   13638   13639   13640   13641   13642
   13643   13644   13645   13635   13636   13637   13638   13639   13640   13641
   13642   13643   13646   13647   13648   13636   13637   13638   13639   13640
   13643   13644   13645   13646   13648   13649   13637   13638   13639   13640
   13643   13644   13645   13649   13650   13651   13638   13641   13642   13643
   13646   13647   13652   13653   13654   13655   13639   13640   13641   13642
   13643   13644   13646   13648   13652   13640   13643   13644   13645   13649
   13656   13657   13644   13645   13649   13650   13651   13656   13657   13658
   13642   13643   13646   13647   13648   13652   13653   13654   13655   13659
   13660   13661   13646   13647   13646   13647   13648   13652   13645   13649
   13650   13651   13656   13657   13662   13649   13650   13651   13656   13658
   13662   13647   13648   13652   13653   13654   13655   13652   13653   13654
   13655   13659   13660   13661   13663   13664   13665   13652   13650   13656
   13657   13658   13662   13666   13667   13651   13656   13657   13658   13662
   13666   13667   13656   13658       0   13654   13655   13659   13660   13661
   13663   13664   13665   13668   13669   13670   13655   13659   13660   13661
   13659   13660   13661   13657   13658   13662   13666   13667   13671   13672
   13673   13674   13662   13662   13660   13661   13663   13664   13665   13668
   13669   13670   13675   13676   13677   13661   13663   13664   13665   13663
   13664   13665   13666   13667   13671   13672   13673   13674   13678   13679
   13680   13664   13665   13668   13669   13670   13675   13676   13677   13681
   13682   13683   13665   13668   13669   13670   13668   13669   13670   13667
   13671   13672   13673   13674   13678   13679   13684   13671   13672   13673
   13674   13678   13680   13684   13669   13670   13675   13676   13677   13681
   13682   13683   13685   13686   13687   13670   13675   13676   13677   13675
   13676   13677   13672   13673   13678   13679   13680   13684   13678   13679
   13674   13678   13679   13680   13684   13678   13680   13676   13677   13681
   13682   13683   13685   13686   13687   13688   13689   13690   13677   13681
   13682   13683   13681   13682   13683   13679   13680   13684   13684   13684
   13682   13683   13685   13686   13687   13688   13689   13690   13691   13692
   13693   13683   13685   13686   13687   13685   13686   13687       0   13686
   13687   13688   13689   13690   13687   13688   13689   13690   13688   13689
   13690   13691   13692   13693   13694   13695   13696   13689   13690   13691
   13692   13693   13694   13695   13696   13690   13691   13692   13693   13691
   13692   13693   13692   13693   13694   13695   13696   13693   13694   13695
   13696   13694   13695   13696   13695   13696   13696       0   13698   13699
   13700   13701   13702   13703   13704   13705   13706   13707   13708   13709
   13699   13700   13701   13702   13703   13704   13705   13706   13707   13710
   13711   13712   13700   13701   13702   13703   13704   13707   13708   13709
   13710   13712   13713   13701   13702   13703   13704   13707   13708   13709
   13713   13714   13715   13702   13705   13706   13707   13710   13711   13716
   13717   13718   13719   13703   13704   13705   13706   13707   13708   13710
   13712   13716   13704   13707   13708   13709   13713   13720   13721   13708
   13709   13713   13714   13715   13720   13721   13722   13706   13707   13710
   13711   13712   13716   13717   13718   13719   13723   13724   13725   13710
   13711   13710   13711   13712   13716   13709   13713   13714   13715   13720
   13721   13726   13713   13714   13715   13720   13722   13726   13711   13712
   13716   13717   13718   13719   13716   13717   13718   13719   13723   13724
   13725   13727   13728   13729   13716   13714   13720   13721   13722   13726
   13730   13731   13715   13720   13721   13722   13726   13730   13731   13720
   13722       0   13718   13719   13723   13724   13725   13727   13728   13729
   13732   13733   13734   13719   13723   13724   13725   13723   13724   13725
   13721   13722   13726   13730   13731   13735   13736   13737   13738   13726
   13726   13724   13725   13727   13728   13729   13732   13733   13734   13739
   13740   13741   13725   13727   13728   13729   13727   13728   13729   13730
   13731   13735   13736   13737   13738   13742   13743   13744   13728   13729
   13732   13733   13734   13739   13740   13741   13745   13746   13747   13729
   13732   13733   13734   13732   13733   13734   13731   13735   13736   13737
   13738   13742   13743   13748   13735   13736   13737   13738   13742   13744
   13748   13733   13734   13739   13740   13741   13745   13746   13747   13749
   13750   13751   13734   13739   13740   13741   13739   13740   13741   13736
   13737   13742   13743   13744   13748   13742   13743   13738   13742   13743
   13744   13748   13742   13744   13740   13741   13745   13746   13747   13749
   13750   13751   13752   13753   13754   13741   13745   13746   13747   13745
   13746   13747   13743   13744   13748   13748   13748   13746   13747   13749
   13750   13751   13752   13753   13754   13755   13756   13757   13747   13749
   13750   13751   13749   13750   13751       0   13750   13751   13752   13753
   13754   13751   13752   13753   13754   13752   13753   13754   13755   13756
   13757   13758   13759   13760   13753   13754   13755   13756   13757   13758
   13759   13760   13754   13755   13756   13757   13755   13756   13757   13756
   13757   13758   13759   13760   13757   13758   13759   13760   13758   13759
   13760   13759   13760   13760       0   13762   13763   13764   13765   13766
   13767   13768   13769   13770   13771   13772   13773   13763   13764   13765
   13766   13767   13768   13769   13770   13771   13774   13775   13776   13764
   13765   13766   13767   13768   13771   13772   13773   13774   13776   13777
   13765   13766   13767   13768   13771   13772   13773   13777   13778   13779
   13766   13769   13770   13771   13774   13775   13780   13781   13782   13783
   13767   13768   13769   13770   13771   13772   13774   13776   13780   13768
   13771   13772   13773   13777   13784   13785   13772   13773   13777   13778
   13779   13784   13785   13786   13770   13771   13774   13775   13776   13780
   13781   13782   13783   13787   13788   13789   13774   13775   13774   13775
   13776   13780   13773   13777   13778   13779   13784   13785   13790   13777
   13778   13779   13784   13786   13790   13775   13776   13780   13781   13782
   13783   13780   13781   13782   13783   13787   13788   13789   13791   13792
   13793   13780   13778   13784   13785   13786   13790   13794   13795   13779
   13784   13785   13786   13790   13794   13795   13784   13786       0   13782
   13783   13787   13788   13789   13791   13792   13793   13796   13797   13798
   13783   13787   13788   13789   13787   13788   13789   13785   13786   13790
   13794   13795   13799   13800   13801   13802   13790   13790   13788   13789
   13791   13792   13793   13796   13797   13798   13803   13804   13805   13789
   13791   13792   13793   13791   13792   13793   13794   13795   13799   13800
   13801   13802   13806   13807   13808   13792   13793   13796   13797   13798
   13803   13804   13805   13809   13810   13811   13793   13796   13797   13798
   13796   13797   13798   13795   13799   13800   13801   13802   13806   13807
   13812   13799   13800   13801   13802   13806   13808   13812   13797   13798
   13803   13804   13805   13809   13810   13811   13813   13814   13815   13798
   13803   13804   13805   13803   13804   13805   13800   13801   13806   13807
   13808   13812   13806   13807   13802   13806   13807   13808   13812   13806
   13808   13804   13805   13809   13810   13811   13813   13814   13815   13816
   13817   13818   13805   13809   13810   13811   13809   13810   13811   13807
   13808   13812   13812   13812   13810   13811   13813   13814   13815   13816
   13817   13818   13819   13820   13821   13811   13813   13814   13815   13813
   13814   13815       0   13814   13815   13816   13817   13818   13815   13816
   13817   13818   13816   13817   13818   13819   13820   13821   13822   13823
   13824   13817   13818   13819   13820   13821   13822   13823   13824   13818
   13819   13820   13821   13819   13820   13821   13820   13821   13822   13823
   13824   13821   13822   13823   13824   13822   13823   13824   13823   13824
   13824       0   13826   13827   13828   13829   13830   13831   13832   13833
   13834   13835   13836   13837   13827   13828   13829   13830   13831   13832
   13833   13834   13835   13838   13839   13840   13828   13829   13830   13831
   13832   13835   13836   13837   13838   13840   13841   13829   13830   13831
   13832   13835   13836   13837   13841   13842   13843   13830   13833   13834
   13835   13838   13839   13844   13845   13846   13847   13831   13832   13833
   13834   13835   13836   13838   13840   13844   13832   13835   13836   13837
   13841   13848   13849   13836   13837   13841   13842   13843   13848   13849
   13850   13834   13835   13838   13839   13840   13844   13845   13846   13847
   13851   13852   13853   13838   13839   13838   13839   13840   13844   13837
   13841   13842   13843   13848   13849   13854   13841   13842   13843   13848
   13850   13854   13839   13840   13844   13845   13846   13847   13844   13845
   13846   13847   13851   13852   13853   13855   13856   13857   13844   13842
   13848   13849   13850   13854   13858   13859   13843   13848   13849   13850
   13854   13858   13859   13848   13850       0   13846   13847   13851   13852
   13853   13855   13856   13857   13860   13861   13862   13847   13851   13852
   13853   13851   13852   13853   13849   13850   13854   13858   13859   13863
   13864   13865   13866   13854   13854   13852   13853   13855   13856   13857
   13860   13861   13862   13867   13868   13869   13853   13855   13856   13857
   13855   13856   13857   13858   13859   13863   13864   13865   13866   13870
   13871   13872   13856   13857   13860   13861   13862   13867   13868   13869
   13873   13874   13875   13857   13860   13861   13862   13860   13861   13862
   13859   13863   13864   13865   13866   13870   13871   13876   13863   13864
   13865   13866   13870   13872   13876   13861   13862   13867   13868   13869
   13873   13874   13875   13877   13878   13879   13862   13867   13868   13869
   13867   13868   13869   13864   13865   13870   13871   13872   13876   13870
   13871   13866   13870   13871   13872   13876   13870   13872   13868   13869
   13873   13874   13875   13877   13878   13879   13880   13881   13882   13869
   13873   13874   13875   13873   13874   13875   13871   13872   13876   13876
   13876   13874   13875   13877   13878   13879   13880   13881   13882   13883
   13884   13885   13875   13877   13878   13879   13877   13878   13879       0
   13878   13879   13880   13881   13882   13879   13880   13881   13882   13880
   13881   13882   13883   13884   13885   13886   13887   13888   13881   13882
   13883   13884   13885   13886   13887   13888   13882   13883   13884   13885
   13883   13884   13885   13884   13885   13886   13887   13888   13885   13886
   13887   13888   13886   13887   13888   13887   13888   13888       0   13890
   13891   13892   13893   13894   13895   13896   13897   13898   13899   13900
   13901   13891   13892   13893   13894   13895   13896   13897   13898   13899
   13902   13903   13904   13892   13893   13894   13895   13896   13899   13900
   13901   13902   13904   13905   13893   13894   13895   13896   13899   13900
   13901   13905   13906   13907   13894   13897   13898   13899   13902   13903
   13908   13909   13910   13911   13895   13896   13897   13898   13899   13900
   13902   13904   13908   13896   13899   13900   13901   13905   13912   13913
   13900   13901   13905   13906   13907   13912   13913   13914   13898   13899
   13902   13903   13904   13908   13909   13910   13911   13915   13916   13917
   13902   13903   13902   13903   13904   13908   13901   13905   13906   13907
   13912   13913   13918   13905   13906   13907   13912   13914   13918   13903
   13904   13908   13909   13910   13911   13908   13909   13910   13911   13915
   13916   13917   13919   13920   13921   13908   13906   13912   13913   13914
   13918   13922   13923   13907   13912   13913   13914   13918   13922   13923
   13912   13914       0   13910   13911   13915   13916   13917   13919   13920
   13921   13924   13925   13926   13911   13915   13916   13917   13915   13916
   13917   13913   13914   13918   13922   13923   13927   13928   13929   13930
   13918   13918   13916   13917   13919   13920   13921   13924   13925   13926
   13931   13932   13933   13917   13919   13920   13921   13919   13920   13921
   13922   13923   13927   13928   13929   13930   13934   13935   13936   13920
   13921   13924   13925   13926   13931   13932   13933   13937   13938   13939
   13921   13924   13925   13926   13924   13925   13926   13923   13927   13928
   13929   13930   13934   13935   13940   13927   13928   13929   13930   13934
   13936   13940   13925   13926   13931   13932   13933   13937   13938   13939
   13941   13942   13943   13926   13931   13932   13933   13931   13932   13933
   13928   13929   13934   13935   13936   13940   13934   13935   13930   13934
   13935   13936   13940   13934   13936   13932   13933   13937   13938   13939
   13941   13942   13943   13944   13945   13946   13933   13937   13938   13939
   13937   13938   13939   13935   13936   13940   13940   13940   13938   13939
   13941   13942   13943   13944   13945   13946   13947   13948   13949   13939
   13941   13942   13943   13941   13942   13943       0   13942   13943   13944
   13945   13946   13943   13944   13945   13946   13944   13945   13946   13947
   13948   13949   13950   13951   13952   13945   13946   13947   13948   13949
   13950   13951   13952   13946   13947   13948   13949   13947   13948   13949
   13948   13949   13950   13951   13952   13949   13950   13951   13952   13950
   13951   13952   13951   13952   13952       0   13954   13955   13956   13957
   13958   13959   13960   13961   13962   13963   13964   13965   13955   13956
   13957   13958   13959   13960   13961   13962   13963   13966   13967   13968
   13956   13957   13958   13959   13960   13963   13964   13965   13966   13968
   13969   13957   13958   13959   13960   13963   13964   13965   13969   13970
   13971   13958   13961   13962   13963   13966   13967   13972   13973   13974
   13975   13959   13960   13961   13962   13963   13964   13966   13968   13972
   13960   13963   13964   13965   13969   13976   13977   13964   13965   13969
   13970   13971   13976   13977   13978   13962   13963   13966   13967   13968
   13972   13973   13974   13975   13979   13980   13981   13966   13967   13966
   13967   13968   13972   13965   13969   13970   13971   13976   13977   13982
   13969   13970   13971   13976   13978   13982   13967   13968   13972   13973
   13974   13975   13972   13973   13974   13975   13979   13980   13981   13983
   13984   13985   13972   13970   13976   13977   13978   13982   13986   13987
   13971   13976   13977   13978   13982   13986   13987   13976   13978       0
   13974   13975   13979   13980   13981   13983   13984   13985   13988   13989
   13990   13975   13979   13980   13981   13979   13980   13981   13977   13978
   13982   13986   13987   13991   13992   13993   13994   13982   13982   13980
   13981   13983   13984   13985   13988   13989   13990   13995   13996   13997
   13981   13983   13984   13985   13983   13984   13985   13986   13987   13991
   13992   13993   13994   13998   13999   14000   13984   13985   13988   13989
   13990   13995   13996   13997   14001   14002   14003   13985   13988   13989
   13990   13988   13989   13990   13987   13991   13992   13993   13994   13998
   13999   14004   13991   13992   13993   13994   13998   14000   14004   13989
   13990   13995   13996   13997   14001   14002   14003   14005   14006   14007
   13990   13995   13996   13997   13995   13996   13997   13992   13993   13998
   13999   14000   14004   13998   13999   13994   13998   13999   14000   14004
   13998   14000   13996   13997   14001   14002   14003   14005   14006   14007
   14008   14009   14010   13997   14001   14002   14003   14001   14002   14003
   13999   14000   14004   14004   14004   14002   14003   14005   14006   14007
   14008   14009   14010   14011   14012   14013   14003   14005   14006   14007
   14005   14006   14007       0   14006   14007   14008   14009   14010   14007
   14008   14009   14010   14008   14009   14010   14011   14012   14013   14014
   14015   14016   14009   14010   14011   14012   14013   14014   14015   14016
   14010   14011   14012   14013   14011   14012   14013   14012   14013   14014
   14015   14016   14013   14014   14015   14016   14014   14015   14016   14015
   14016   14016       0   14018   14019   14020   14021   14022   14023   14024
   14025   14026   14027   14028   14029   14019   14020   14021   14022   14023
   14024   14025   14026   14027   14030   14031   14032   14020   14021   14022
   14023   14024   14027   14028   14029   14030   14032   14033   14021   14022
   14023   14024   14027   14028   14029   14033   14034   14035   14022   14025
   14026   14027   14030   14031   14036   14037   14038   14039   14023   14024
   14025   14026   14027   14028   14030   14032   14036   14024   14027   14028
   14029   14033   14040   14041   14028   14029   14033   14034   14035   14040
   14041   14042   14026   14027   14030   14031   14032   14036   14037   14038
   14039   14043   14044   14045   14030   14031   14030   14031   14032   14036
   14029   14033   14034   14035   14040   14041   14046   14033   14034   14035
   14040   14042   14046   14031   14032   14036   14037   14038   14039   14036
   14037   14038   14039   14043   14044   14045   14047   14048   14049   14036
   14034   14040   14041   14042   14046   14050   14051   14035   14040   14041
   14042   14046   14050   14051   14040   14042       0   14038   14039   14043
   14044   14045   14047   14048   14049   14052   14053   14054   14039   14043
   14044   14045   14043   14044   14045   14041   14042   14046   14050   14051
   14055   14056   14057   14058   14046   14046   14044   14045   14047   14048
   14049   14052   14053   14054   14059   14060   14061   14045   14047   14048
   14049   14047   14048   14049   14050   14051   14055   14056   14057   14058
   14062   14063   14064   14048   14049   14052   14053   14054   14059   14060
   14061   14065   14066   14067   14049   14052   14053   14054   14052   14053
   14054   14051   14055   14056   14057   14058   14062   14063   14068   14055
   14056   14057   14058   14062   14064   14068   14053   14054   14059   14060
   14061   14065   14066   14067   14069   14070   14071   14054   14059   14060
   14061   14059   14060   14061   14056   14057   14062   14063   14064   14068
   14062   14063   14058   14062   14063   14064   14068   14062   14064   14060
   14061   14065   14066   14067   14069   14070   14071   14072   14073   14074
   14061   14065   14066   14067   14065   14066   14067   14063   14064   14068
   14068   14068   14066   14067   14069   14070   14071   14072   14073   14074
   14075   14076   14077   14067   14069   14070   14071   14069   14070   14071
       0   14070   14071   14072   14073   14074   14071   14072   14073   14074
   14072   14073   14074   14075   14076   14077   14078   14079   14080   14073
   14074   14075   14076   14077   14078   14079   14080   14074   14075   14076
   14077   14075   14076   14077   14076   14077   14078   14079   14080   14077
   14078   14079   14080   14078   14079   14080   14079   14080   14080       0
   14082   14083   14084   14085   14086   14087   14088   14089   14090   14091
   14092   14093   14083   14084   14085   14086   14087   14088   14089   14090
   14091   14094   14095   14096   14084   14085   14086   14087   14088   14091
   14092   14093   14094   14096   14097   14085   14086   14087   14088   14091
   14092   14093   14097   14098   14099   14086   14089   14090   14091   14094
   14095   14100   14101   14102   14103   14087   14088   14089   14090   14091
   14092   14094   14096   14100   14088   14091   14092   14093   14097   14104
   14105   14092   14093   14097   14098   14099   14104   14105   14106   14090
   14091   14094   14095   14096   14100   14101   14102   14103   14107   14108
   14109   14094   14095   14094   14095   14096   14100   14093   14097   14098
   14099   14104   14105   14110   14097   14098   14099   14104   14106   14110
   14095   14096   14100   14101   14102   14103   14100   14101   14102   14103
   14107   14108   14109   14111   14112   14113   14100   14098   14104   14105
   14106   14110   14114   14115   14099   14104   14105   14106   14110   14114
   14115   14104   14106       0   14102   14103   14107   14108   14109   14111
   14112   14113   14116   14117   14118   14103   14107   14108   14109   14107
   14108   14109   14105   14106   14110   14114   14115   14119   14120   14121
   14122   14110   14110   14108   14109   14111   14112   14113   14116   14117
   14118   14123   14124   14125   14109   14111   14112   14113   14111   14112
   14113   14114   14115   14119   14120   14121   14122   14126   14127   14128
   14112   14113   14116   14117   14118   14123   14124   14125   14129   14130
   14131   14113   14116   14117   14118   14116   14117   14118   14115   14119
   14120   14121   14122   14126   14127   14132   14119   14120   14121   14122
   14126   14128   14132   14117   14118   14123   14124   14125   14129   14130
   14131   14133   14134   14135   14118   14123   14124   14125   14123   14124
   14125   14120   14121   14126   14127   14128   14132   14126   14127   14122
   14126   14127   14128   14132   14126   14128   14124   14125   14129   14130
   14131   14133   14134   14135   14136   14137   14138   14125   14129   14130
   14131   14129   14130   14131   14127   14128   14132   14132   14132   14130
   14131   14133   14134   14135   14136   14137   14138   14139   14140   14141
   14131   14133   14134   14135   14133   14134   14135       0   14134   14135
   14136   14137   14138   14135   14136   14137   14138   14136   14137   14138
   14139   14140   14141   14142   14143   14144   14137   14138   14139   14140
   14141   14142   14143   14144   14138   14139   14140   14141   14139   14140
   14141   14140   14141   14142   14143   14144   14141   14142   14143   14144
   14142   14143   14144   14143   14144   14144       0   14146   14147   14148
   14149   14150   14151   14152   14153   14154   14155   14156   14157   14147
   14148   14149   14150   14151   14152   14153   14154   14155   14158   14159
   14160   14148   14149   14150   14151   14152   14155   14156   14157   14158
   14160   14161   14149   14150   14151   14152   14155   14156   14157   14161
   14162   14163   14150   14153   14154   14155   14158   14159   14164   14165
   14166   14167   14151   14152   14153   14154   14155   14156   14158   14160
   14164   14152   14155   14156   14157   14161   14168   14169   14156   14157
   14161   14162   14163   14168   14169   14170   14154   14155   14158   14159
   14160   14164   14165   14166   14167   14171   14172   14173   14158   14159
   14158   14159   14160   14164   14157   14161   14162   14163   14168   14169
   14174   14161   14162   14163   14168   14170   14174   14159   14160   14164
   14165   14166   14167   14164   14165   14166   14167   14171   14172   14173
   14175   14176   14177   14164   14162   14168   14169   14170   14174   14178
   14179   14163   14168   14169   14170   14174   14178   14179   14168   14170
       0   14166   14167   14171   14172   14173   14175   14176   14177   14180
   14181   14182   14167   14171   14172   14173   14171   14172   14173   14169
   14170   14174   14178   14179   14183   14184   14185   14186   14174   14174
   14172   14173   14175   14176   14177   14180   14181   14182   14187   14188
   14189   14173   14175   14176   14177   14175   14176   14177   14178   14179
   14183   14184   14185   14186   14190   14191   14192   14176   14177   14180
   14181   14182   14187   14188   14189   14193   14194   14195   14177   14180
   14181   14182   14180   14181   14182   14179   14183   14184   14185   14186
   14190   14191   14196   14183   14184   14185   14186   14190   14192   14196
   14181   14182   14187   14188   14189   14193   14194   14195   14197   14198
   14199   14182   14187   14188   14189   14187   14188   14189   14184   14185
   14190   14191   14192   14196   14190   14191   14186   14190   14191   14192
   14196   14190   14192   14188   14189   14193   14194   14195   14197   14198
   14199   14200   14201   14202   14189   14193   14194   14195   14193   14194
   14195   14191   14192   14196   14196   14196   14194   14195   14197   14198
   14199   14200   14201   14202   14203   14204   14205   14195   14197   14198
   14199   14197   14198   14199       0   14198   14199   14200   14201   14202
   14199   14200   14201   14202   14200   14201   14202   14203   14204   14205
   14206   14207   14208   14201   14202   14203   14204   14205   14206   14207
   14208   14202   14203   14204   14205   14203   14204   14205   14204   14205
   14206   14207   14208   14205   14206   14207   14208   14206   14207   14208
   14207   14208   14208       0   14210   14211   14212   14213   14214   14215
   14216   14217   14218   14219   14220   14221   14211   14212   14213   14214
   14215   14216   14217   14218   14219   14222   14223   14224   14212   14213
   14214   14215   14216   14219   14220   14221   14222   14224   14225   14213
   14214   14215   14216   14219   14220   14221   14225   14226   14227   14214
   14217   14218   14219   14222   14223   14228   14229   14230   14231   14215
   14216   14217   14218   14219   14220   14222   14224   14228   14216   14219
   14220   14221   14225   14232   14233   14220   14221   14225   14226   14227
   14232   14233   14234   14218   14219   14222   14223   14224   14228   14229
   14230   14231   14235   14236   14237   14222   14223   14222   14223   14224
   14228   14221   14225   14226   14227   14232   14233   14238   14225   14226
   14227   14232   14234   14238   14223   14224   14228   14229   14230   14231
   14228   14229   14230   14231   14235   14236   14237   14239   14240   14241
   14228   14226   14232   14233   14234   14238   14242   14243   14227   14232
   14233   14234   14238   14242   14243   14232   14234       0   14230   14231
   14235   14236   14237   14239   14240   14241   14244   14245   14246   14231
   14235   14236   14237   14235   14236   14237   14233   14234   14238   14242
   14243   14247   14248   14249   14250   14238   14238   14236   14237   14239
   14240   14241   14244   14245   14246   14251   14252   14253   14237   14239
   14240   14241   14239   14240   14241   14242   14243   14247   14248   14249
   14250   14254   14255   14256   14240   14241   14244   14245   14246   14251
   14252   14253   14257   14258   14259   14241   14244   14245   14246   14244
   14245   14246   14243   14247   14248   14249   14250   14254   14255   14260
   14247   14248   14249   14250   14254   14256   14260   14245   14246   14251
   14252   14253   14257   14258   14259   14261   14262   14263   14246   14251
   14252   14253   14251   14252   14253   14248   14249   14254   14255   14256
   14260   14254   14255   14250   14254   14255   14256   14260   14254   14256
   14252   14253   14257   14258   14259   14261   14262   14263   14264   14265
   14266   14253   14257   14258   14259   14257   14258   14259   14255   14256
   14260   14260   14260   14258   14259   14261   14262   14263   14264   14265
   14266   14267   14268   14269   14259   14261   14262   14263   14261   14262
   14263       0   14262   14263   14264   14265   14266   14263   14264   14265
   14266   14264   14265   14266   14267   14268   14269   14270   14271   14272
   14265   14266   14267   14268   14269   14270   14271   14272   14266   14267
   14268   14269   14267   14268   14269   14268   14269   14270   14271   14272
   14269   14270   14271   14272   14270   14271   14272   14271   14272   14272
       0   14274   14275   14276   14277   14278   14279   14280   14281   14282
   14283   14284   14285   14275   14276   14277   14278   14279   14280   14281
   14282   14283   14286   14287   14288   14276   14277   14278   14279   14280
   14283   14284   14285   14286   14288   14289   14277   14278   14279   14280
   14283   14284   14285   14289   14290   14291   14278   14281   14282   14283
   14286   14287   14292   14293   14294   14295   14279   14280   14281   14282
   14283   14284   14286   14288   14292   14280   14283   14284   14285   14289
   14296   14297   14284   14285   14289   14290   14291   14296   14297   14298
   14282   14283   14286   14287   14288   14292   14293   14294   14295   14299
   14300   14301   14286   14287   14286   14287   14288   14292   14285   14289
   14290   14291   14296   14297   14302   14289   14290   14291   14296   14298
   14302   14287   14288   14292   14293   14294   14295   14292   14293   14294
   14295   14299   14300   14301   14303   14304   14305   14292   14290   14296
   14297   14298   14302   14306   14307   14291   14296   14297   14298   14302
   14306   14307   14296   14298       0   14294   14295   14299   14300   14301
   14303   14304   14305   14308   14309   14310   14295   14299   14300   14301
   14299   14300   14301   14297   14298   14302   14306   14307   14311   14312
   14313   14314   14302   14302   14300   14301   14303   14304   14305   14308
   14309   14310   14315   14316   14317   14301   14303   14304   14305   14303
   14304   14305   14306   14307   14311   14312   14313   14314   14318   14319
   14320   14304   14305   14308   14309   14310   14315   14316   14317   14321
   14322   14323   14305   14308   14309   14310   14308   14309   14310   14307
   14311   14312   14313   14314   14318   14319   14324   14311   14312   14313
   14314   14318   14320   14324   14309   14310   14315   14316   14317   14321
   14322   14323   14325   14326   14327   14310   14315   14316   14317   14315
   14316   14317   14312   14313   14318   14319   14320   14324   14318   14319
   14314   14318   14319   14320   14324   14318   14320   14316   14317   14321
   14322   14323   14325   14326   14327   14328   14329   14330   14317   14321
   14322   14323   14321   14322   14323   14319   14320   14324   14324   14324
   14322   14323   14325   14326   14327   14328   14329   14330   14331   14332
   14333   14323   14325   14326   14327   14325   14326   14327       0   14326
   14327   14328   14329   14330   14327   14328   14329   14330   14328   14329
   14330   14331   14332   14333   14334   14335   14336   14329   14330   14331
   14332   14333   14334   14335   14336   14330   14331   14332   14333   14331
   14332   14333   14332   14333   14334   14335   14336   14333   14334   14335
   14336   14334   14335   14336   14335   14336   14336       0   14338   14339
   14340   14341   14342   14343   14344   14345   14346   14347   14348   14349
   14339   14340   14341   14342   14343   14344   14345   14346   14347   14350
   14351   14352   14340   14341   14342   14343   14344   14347   14348   14349
   14350   14352   14353   14341   14342   14343   14344   14347   14348   14349
   14353   14354   14355   14342   14345   14346   14347   14350   14351   14356
   14357   14358   14359   14343   14344   14345   14346   14347   14348   14350
   14352   14356   14344   14347   14348   14349   14353   14360   14361   14348
   14349   14353   14354   14355   14360   14361   14362   14346   14347   14350
   14351   14352   14356   14357   14358   14359   14363   14364   14365   14350
   14351   14350   14351   14352   14356   14349   14353   14354   14355   14360
   14361   14366   14353   14354   14355   14360   14362   14366   14351   14352
   14356   14357   14358   14359   14356   14357   14358   14359   14363   14364
   14365   14367   14368   14369   14356   14354   14360   14361   14362   14366
   14370   14371   14355   14360   14361   14362   14366   14370   14371   14360
   14362       0   14358   14359   14363   14364   14365   14367   14368   14369
   14372   14373   14374   14359   14363   14364   14365   14363   14364   14365
   14361   14362   14366   14370   14371   14375   14376   14377   14378   14366
   14366   14364   14365   14367   14368   14369   14372   14373   14374   14379
   14380   14381   14365   14367   14368   14369   14367   14368   14369   14370
   14371   14375   14376   14377   14378   14382   14383   14384   14368   14369
   14372   14373   14374   14379   14380   14381   14385   14386   14387   14369
   14372   14373   14374   14372   14373   14374   14371   14375   14376   14377
   14378   14382   14383   14388   14375   14376   14377   14378   14382   14384
   14388   14373   14374   14379   14380   14381   14385   14386   14387   14389
   14390   14391   14374   14379   14380   14381   14379   14380   14381   14376
   14377   14382   14383   14384   14388   14382   14383   14378   14382   14383
   14384   14388   14382   14384   14380   14381   14385   14386   14387   14389
   14390   14391   14392   14393   14394   14381   14385   14386   14387   14385
   14386   14387   14383   14384   14388   14388   14388   14386   14387   14389
   14390   14391   14392   14393   14394   14395   14396   14397   14387   14389
   14390   14391   14389   14390   14391       0   14390   14391   14392   14393
   14394   14391   14392   14393   14394   14392   14393   14394   14395   14396
   14397   14398   14399   14400   14393   14394   14395   14396   14397   14398
   14399   14400   14394   14395   14396   14397   14395   14396   14397   14396
   14397   14398   14399   14400   14397   14398   14399   14400   14398   14399
   14400   14399   14400   14400       0   14402   14403   14404   14405   14406
   14407   14408   14409   14410   14411   14412   14413   14403   14404   14405
   14406   14407   14408   14409   14410   14411   14414   14415   14416   14404
   14405   14406   14407   14408   14411   14412   14413   14414   14416   14417
   14405   14406   14407   14408   14411   14412   14413   14417   14418   14419
   14406   14409   14410   14411   14414   14415   14420   14421   14422   14423
   14407   14408   14409   14410   14411   14412   14414   14416   14420   14408
   14411   14412   14413   14417   14424   14425   14412   14413   14417   14418
   14419   14424   14425   14426   14410   14411   14414   14415   14416   14420
   14421   14422   14423   14427   14428   14429   14414   14415   14414   14415
   14416   14420   14413   14417   14418   14419   14424   14425   14430   14417
   14418   14419   14424   14426   14430   14415   14416   14420   14421   14422
   14423   14420   14421   14422   14423   14427   14428   14429   14431   14432
   14433   14420   14418   14424   14425   14426   14430   14434   14435   14419
   14424   14425   14426   14430   14434   14435   14424   14426       0   14422
   14423   14427   14428   14429   14431   14432   14433   14436   14437   14438
   14423   14427   14428   14429   14427   14428   14429   14425   14426   14430
   14434   14435   14439   14440   14441   14442   14430   14430   14428   14429
   14431   14432   14433   14436   14437   14438   14443   14444   14445   14429
   14431   14432   14433   14431   14432   14433   14434   14435   14439   14440
   14441   14442   14446   14447   14448   14432   14433   14436   14437   14438
   14443   14444   14445   14449   14450   14451   14433   14436   14437   14438
   14436   14437   14438   14435   14439   14440   14441   14442   14446   14447
   14452   14439   14440   14441   14442   14446   14448   14452   14437   14438
   14443   14444   14445   14449   14450   14451   14453   14454   14455   14438
   14443   14444   14445   14443   14444   14445   14440   14441   14446   14447
   14448   14452   14446   14447   14442   14446   14447   14448   14452   14446
   14448   14444   14445   14449   14450   14451   14453   14454   14455   14456
   14457   14458   14445   14449   14450   14451   14449   14450   14451   14447
   14448   14452   14452   14452   14450   14451   14453   14454   14455   14456
   14457   14458   14459   14460   14461   14451   14453   14454   14455   14453
   14454   14455       0   14454   14455   14456   14457   14458   14455   14456
   14457   14458   14456   14457   14458   14459   14460   14461   14462   14463
   14464   14457   14458   14459   14460   14461   14462   14463   14464   14458
   14459   14460   14461   14459   14460   14461   14460   14461   14462   14463
   14464   14461   14462   14463   14464   14462   14463   14464   14463   14464
   14464       0   14466   14467   14468   14469   14470   14471   14472   14473
   14474   14475   14476   14477   14467   14468   14469   14470   14471   14472
   14473   14474   14475   14478   14479   14480   14468   14469   14470   14471
   14472   14475   14476   14477   14478   14480   14481   14469   14470   14471
   14472   14475   14476   14477   14481   14482   14483   14470   14473   14474
   14475   14478   14479   14484   14485   14486   14487   14471   14472   14473
   14474   14475   14476   14478   14480   14484   14472   14475   14476   14477
   14481   14488   14489   14476   14477   14481   14482   14483   14488   14489
   14490   14474   14475   14478   14479   14480   14484   14485   14486   14487
   14491   14492   14493   14478   14479   14478   14479   14480   14484   14477
   14481   14482   14483   14488   14489   14494   14481   14482   14483   14488
   14490   14494   14479   14480   14484   14485   14486   14487   14484   14485
   14486   14487   14491   14492   14493   14495   14496   14497   14484   14482
   14488   14489   14490   14494   14498   14499   14483   14488   14489   14490
   14494   14498   14499   14488   14490       0   14486   14487   14491   14492
   14493   14495   14496   14497   14500   14501   14502   14487   14491   14492
   14493   14491   14492   14493   14489   14490   14494   14498   14499   14503
   14504   14505   14506   14494   14494   14492   14493   14495   14496   14497
   14500   14501   14502   14507   14508   14509   14493   14495   14496   14497
   14495   14496   14497   14498   14499   14503   14504   14505   14506   14510
   14511   14512   14496   14497   14500   14501   14502   14507   14508   14509
   14513   14514   14515   14497   14500   14501   14502   14500   14501   14502
   14499   14503   14504   14505   14506   14510   14511   14516   14503   14504
   14505   14506   14510   14512   14516   14501   14502   14507   14508   14509
   14513   14514   14515   14517   14518   14519   14502   14507   14508   14509
   14507   14508   14509   14504   14505   14510   14511   14512   14516   14510
   14511   14506   14510   14511   14512   14516   14510   14512   14508   14509
   14513   14514   14515   14517   14518   14519   14520   14521   14522   14509
   14513   14514   14515   14513   14514   14515   14511   14512   14516   14516
   14516   14514   14515   14517   14518   14519   14520   14521   14522   14523
   14524   14525   14515   14517   14518   14519   14517   14518   14519       0
   14518   14519   14520   14521   14522   14519   14520   14521   14522   14520
   14521   14522   14523   14524   14525   14526   14527   14528   14521   14522
   14523   14524   14525   14526   14527   14528   14522   14523   14524   14525
   14523   14524   14525   14524   14525   14526   14527   14528   14525   14526
   14527   14528   14526   14527   14528   14527   14528   14528       0   14530
   14531   14532   14533   14534   14535   14536   14537   14538   14539   14540
   14541   14531   14532   14533   14534   14535   14536   14537   14538   14539
   14542   14543   14544   14532   14533   14534   14535   14536   14539   14540
   14541   14542   14544   14545   14533   14534   14535   14536   14539   14540
   14541   14545   14546   14547   14534   14537   14538   14539   14542   14543
   14548   14549   14550   14551   14535   14536   14537   14538   14539   14540
   14542   14544   14548   14536   14539   14540   14541   14545   14552   14553
   14540   14541   14545   14546   14547   14552   14553   14554   14538   14539
   14542   14543   14544   14548   14549   14550   14551   14555   14556   14557
   14542   14543   14542   14543   14544   14548   14541   14545   14546   14547
   14552   14553   14558   14545   14546   14547   14552   14554   14558   14543
   14544   14548   14549   14550   14551   14548   14549   14550   14551   14555
   14556   14557   14559   14560   14561   14548   14546   14552   14553   14554
   14558   14562   14563   14547   14552   14553   14554   14558   14562   14563
   14552   14554       0   14550   14551   14555   14556   14557   14559   14560
   14561   14564   14565   14566   14551   14555   14556   14557   14555   14556
   14557   14553   14554   14558   14562   14563   14567   14568   14569   14570
   14558   14558   14556   14557   14559   14560   14561   14564   14565   14566
   14571   14572   14573   14557   14559   14560   14561   14559   14560   14561
   14562   14563   14567   14568   14569   14570   14574   14575   14576   14560
   14561   14564   14565   14566   14571   14572   14573   14577   14578   14579
   14561   14564   14565   14566   14564   14565   14566   14563   14567   14568
   14569   14570   14574   14575   14580   14567   14568   14569   14570   14574
   14576   14580   14565   14566   14571   14572   14573   14577   14578   14579
   14581   14582   14583   14566   14571   14572   14573   14571   14572   14573
   14568   14569   14574   14575   14576   14580   14574   14575   14570   14574
   14575   14576   14580   14574   14576   14572   14573   14577   14578   14579
   14581   14582   14583   14584   14585   14586   14573   14577   14578   14579
   14577   14578   14579   14575   14576   14580   14580   14580   14578   14579
   14581   14582   14583   14584   14585   14586   14587   14588   14589   14579
   14581   14582   14583   14581   14582   14583       0   14582   14583   14584
   14585   14586   14583   14584   14585   14586   14584   14585   14586   14587
   14588   14589   14590   14591   14592   14585   14586   14587   14588   14589
   14590   14591   14592   14586   14587   14588   14589   14587   14588   14589
   14588   14589   14590   14591   14592   14589   14590   14591   14592   14590
   14591   14592   14591   14592   14592       0   14594   14595   14596   14597
   14598   14599   14600   14601   14602   14603   14604   14605   14595   14596
   14597   14598   14599   14600   14601   14602   14603   14606   14607   14608
   14596   14597   14598   14599   14600   14603   14604   14605   14606   14608
   14609   14597   14598   14599   14600   14603   14604   14605   14609   14610
   14611   14598   14601   14602   14603   14606   14607   14612   14613   14614
   14615   14599   14600   14601   14602   14603   14604   14606   14608   14612
   14600   14603   14604   14605   14609   14616   14617   14604   14605   14609
   14610   14611   14616   14617   14618   14602   14603   14606   14607   14608
   14612   14613   14614   14615   14619   14620   14621   14606   14607   14606
   14607   14608   14612   14605   14609   14610   14611   14616   14617   14622
   14609   14610   14611   14616   14618   14622   14607   14608   14612   14613
   14614   14615   14612   14613   14614   14615   14619   14620   14621   14623
   14624   14625   14612   14610   14616   14617   14618   14622   14626   14627
   14611   14616   14617   14618   14622   14626   14627   14616   14618       0
   14614   14615   14619   14620   14621   14623   14624   14625   14628   14629
   14630   14615   14619   14620   14621   14619   14620   14621   14617   14618
   14622   14626   14627   14631   14632   14633   14634   14622   14622   14620
   14621   14623   14624   14625   14628   14629   14630   14635   14636   14637
   14621   14623   14624   14625   14623   14624   14625   14626   14627   14631
   14632   14633   14634   14638   14639   14640   14624   14625   14628   14629
   14630   14635   14636   14637   14641   14642   14643   14625   14628   14629
   14630   14628   14629   14630   14627   14631   14632   14633   14634   14638
   14639   14644   14631   14632   14633   14634   14638   14640   14644   14629
   14630   14635   14636   14637   14641   14642   14643   14645   14646   14647
   14630   14635   14636   14637   14635   14636   14637   14632   14633   14638
   14639   14640   14644   14638   14639   14634   14638   14639   14640   14644
   14638   14640   14636   14637   14641   14642   14643   14645   14646   14647
   14648   14649   14650   14637   14641   14642   14643   14641   14642   14643
   14639   14640   14644   14644   14644   14642   14643   14645   14646   14647
   14648   14649   14650   14651   14652   14653   14643   14645   14646   14647
   14645   14646   14647       0   14646   14647   14648   14649   14650   14647
   14648   14649   14650   14648   14649   14650   14651   14652   14653   14654
   14655   14656   14649   14650   14651   14652   14653   14654   14655   14656
   14650   14651   14652   14653   14651   14652   14653   14652   14653   14654
   14655   14656   14653   14654   14655   14656   14654   14655   14656   14655
   14656   14656       0   14658   14659   14660   14661   14662   14663   14664
   14665   14666   14667   14668   14669   14659   14660   14661   14662   14663
   14664   14665   14666   14667   14670   14671   14672   14660   14661   14662
   14663   14664   14667   14668   14669   14670   14672   14673   14661   14662
   14663   14664   14667   14668   14669   14673   14674   14675   14662   14665
   14666   14667   14670   14671   14676   14677   14678   14679   14663   14664
   14665   14666   14667   14668   14670   14672   14676   14664   14667   14668
   14669   14673   14680   14681   14668   14669   14673   14674   14675   14680
   14681   14682   14666   14667   14670   14671   14672   14676   14677   14678
   14679   14683   14684   14685   14670   14671   14670   14671   14672   14676
   14669   14673   14674   14675   14680   14681   14686   14673   14674   14675
   14680   14682   14686   14671   14672   14676   14677   14678   14679   14676
   14677   14678   14679   14683   14684   14685   14687   14688   14689   14676
   14674   14680   14681   14682   14686   14690   14691   14675   14680   14681
   14682   14686   14690   14691   14680   14682       0   14678   14679   14683
   14684   14685   14687   14688   14689   14692   14693   14694   14679   14683
   14684   14685   14683   14684   14685   14681   14682   14686   14690   14691
   14695   14696   14697   14698   14686   14686   14684   14685   14687   14688
   14689   14692   14693   14694   14699   14700   14701   14685   14687   14688
   14689   14687   14688   14689   14690   14691   14695   14696   14697   14698
   14702   14703   14704   14688   14689   14692   14693   14694   14699   14700
   14701   14705   14706   14707   14689   14692   14693   14694   14692   14693
   14694   14691   14695   14696   14697   14698   14702   14703   14708   14695
   14696   14697   14698   14702   14704   14708   14693   14694   14699   14700
   14701   14705   14706   14707   14709   14710   14711   14694   14699   14700
   14701   14699   14700   14701   14696   14697   14702   14703   14704   14708
   14702   14703   14698   14702   14703   14704   14708   14702   14704   14700
   14701   14705   14706   14707   14709   14710   14711   14712   14713   14714
   14701   14705   14706   14707   14705   14706   14707   14703   14704   14708
   14708   14708   14706   14707   14709   14710   14711   14712   14713   14714
   14715   14716   14717   14707   14709   14710   14711   14709   14710   14711
       0   14710   14711   14712   14713   14714   14711   14712   14713   14714
   14712   14713   14714   14715   14716   14717   14718   14719   14720   14713
   14714   14715   14716   14717   14718   14719   14720   14714   14715   14716
   14717   14715   14716   14717   14716   14717   14718   14719   14720   14717
   14718   14719   14720   14718   14719   14720   14719   14720   14720       0
   14722   14723   14724   14725   14726   14727   14728   14729   14730   14731
   14732   14733   14723   14724   14725   14726   14727   14728   14729   14730
   14731   14734   14735   14736   14724   14725   14726   14727   14728   14731
   14732   14733   14734   14736   14737   14725   14726   14727   14728   14731
   14732   14733   14737   14738   14739   14726   14729   14730   14731   14734
   14735   14740   14741   14742   14743   14727   14728   14729   14730   14731
   14732   14734   14736   14740   14728   14731   14732   14733   14737   14744
   14745   14732   14733   14737   14738   14739   14744   14745   14746   14730
   14731   14734   14735   14736   14740   14741   14742   14743   14747   14748
   14749   14734   14735   14734   14735   14736   14740   14733   14737   14738
   14739   14744   14745   14750   14737   14738   14739   14744   14746   14750
   14735   14736   14740   14741   14742   14743   14740   14741   14742   14743
   14747   14748   14749   14751   14752   14753   14740   14738   14744   14745
   14746   14750   14754   14755   14739   14744   14745   14746   14750   14754
   14755   14744   14746       0   14742   14743   14747   14748   14749   14751
   14752   14753   14756   14757   14758   14743   14747   14748   14749   14747
   14748   14749   14745   14746   14750   14754   14755   14759   14760   14761
   14762   14750   14750   14748   14749   14751   14752   14753   14756   14757
   14758   14763   14764   14765   14749   14751   14752   14753   14751   14752
   14753   14754   14755   14759   14760   14761   14762   14766   14767   14768
   14752   14753   14756   14757   14758   14763   14764   14765   14769   14770
   14771   14753   14756   14757   14758   14756   14757   14758   14755   14759
   14760   14761   14762   14766   14767   14772   14759   14760   14761   14762
   14766   14768   14772   14757   14758   14763   14764   14765   14769   14770
   14771   14773   14774   14775   14758   14763   14764   14765   14763   14764
   14765   14760   14761   14766   14767   14768   14772   14766   14767   14762
   14766   14767   14768   14772   14766   14768   14764   14765   14769   14770
   14771   14773   14774   14775   14776   14777   14778   14765   14769   14770
   14771   14769   14770   14771   14767   14768   14772   14772   14772   14770
   14771   14773   14774   14775   14776   14777   14778   14779   14780   14781
   14771   14773   14774   14775   14773   14774   14775       0   14774   14775
   14776   14777   14778   14775   14776   14777   14778   14776   14777   14778
   14779   14780   14781   14782   14783   14784   14777   14778   14779   14780
   14781   14782   14783   14784   14778   14779   14780   14781   14779   14780
   14781   14780   14781   14782   14783   14784   14781   14782   14783   14784
   14782   14783   14784   14783   14784   14784       0   14786   14787   14788
   14789   14790   14791   14792   14793   14794   14795   14796   14797   14787
   14788   14789   14790   14791   14792   14793   14794   14795   14798   14799
   14800   14788   14789   14790   14791   14792   14795   14796   14797   14798
   14800   14801   14789   14790   14791   14792   14795   14796   14797   14801
   14802   14803   14790   14793   14794   14795   14798   14799   14804   14805
   14806   14807   14791   14792   14793   14794   14795   14796   14798   14800
   14804   14792   14795   14796   14797   14801   14808   14809   14796   14797
   14801   14802   14803   14808   14809   14810   14794   14795   14798   14799
   14800   14804   14805   14806   14807   14811   14812   14813   14798   14799
   14798   14799   14800   14804   14797   14801   14802   14803   14808   14809
   14814   14801   14802   14803   14808   14810   14814   14799   14800   14804
   14805   14806   14807   14804   14805   14806   14807   14811   14812   14813
   14815   14816   14817   14804   14802   14808   14809   14810   14814   14818
   14819   14803   14808   14809   14810   14814   14818   14819   14808   14810
       0   14806   14807   14811   14812   14813   14815   14816   14817   14820
   14821   14822   14807   14811   14812   14813   14811   14812   14813   14809
   14810   14814   14818   14819   14823   14824   14825   14826   14814   14814
   14812   14813   14815   14816   14817   14820   14821   14822   14827   14828
   14829   14813   14815   14816   14817   14815   14816   14817   14818   14819
   14823   14824   14825   14826   14830   14831   14832   14816   14817   14820
   14821   14822   14827   14828   14829   14833   14834   14835   14817   14820
   14821   14822   14820   14821   14822   14819   14823   14824   14825   14826
   14830   14831   14836   14823   14824   14825   14826   14830   14832   14836
   14821   14822   14827   14828   14829   14833   14834   14835   14837   14838
   14839   14822   14827   14828   14829   14827   14828   14829   14824   14825
   14830   14831   14832   14836   14830   14831   14826   14830   14831   14832
   14836   14830   14832   14828   14829   14833   14834   14835   14837   14838
   14839   14840   14841   14842   14829   14833   14834   14835   14833   14834
   14835   14831   14832   14836   14836   14836   14834   14835   14837   14838
   14839   14840   14841   14842   14843   14844   14845   14835   14837   14838
   14839   14837   14838   14839       0   14838   14839   14840   14841   14842
   14839   14840   14841   14842   14840   14841   14842   14843   14844   14845
   14846   14847   14848   14841   14842   14843   14844   14845   14846   14847
   14848   14842   14843   14844   14845   14843   14844   14845   14844   14845
   14846   14847   14848   14845   14846   14847   14848   14846   14847   14848
   14847   14848   14848       0   14850   14851   14852   14853   14854   14855
   14856   14857   14858   14859   14860   14861   14851   14852   14853   14854
   14855   14856   14857   14858   14859   14862   14863   14864   14852   14853
   14854   14855   14856   14859   14860   14861   14862   14864   14865   14853
   14854   14855   14856   14859   14860   14861   14865   14866   14867   14854
   14857   14858   14859   14862   14863   14868   14869   14870   14871   14855
   14856   14857   14858   14859   14860   14862   14864   14868   14856   14859
   14860   14861   14865   14872   14873   14860   14861   14865   14866   14867
   14872   14873   14874   14858   14859   14862   14863   14864   14868   14869
   14870   14871   14875   14876   14877   14862   14863   14862   14863   14864
   14868   14861   14865   14866   14867   14872   14873   14878   14865   14866
   14867   14872   14874   14878   14863   14864   14868   14869   14870   14871
   14868   14869   14870   14871   14875   14876   14877   14879   14880   14881
   14868   14866   14872   14873   14874   14878   14882   14883   14867   14872
   14873   14874   14878   14882   14883   14872   14874       0   14870   14871
   14875   14876   14877   14879   14880   14881   14884   14885   14886   14871
   14875   14876   14877   14875   14876   14877   14873   14874   14878   14882
   14883   14887   14888   14889   14890   14878   14878   14876   14877   14879
   14880   14881   14884   14885   14886   14891   14892   14893   14877   14879
   14880   14881   14879   14880   14881   14882   14883   14887   14888   14889
   14890   14894   14895   14896   14880   14881   14884   14885   14886   14891
   14892   14893   14897   14898   14899   14881   14884   14885   14886   14884
   14885   14886   14883   14887   14888   14889   14890   14894   14895   14900
   14887   14888   14889   14890   14894   14896   14900   14885   14886   14891
   14892   14893   14897   14898   14899   14901   14902   14903   14886   14891
   14892   14893   14891   14892   14893   14888   14889   14894   14895   14896
   14900   14894   14895   14890   14894   14895   14896   14900   14894   14896
   14892   14893   14897   14898   14899   14901   14902   14903   14904   14905
   14906   14893   14897   14898   14899   14897   14898   14899   14895   14896
   14900   14900   14900   14898   14899   14901   14902   14903   14904   14905
   14906   14907   14908   14909   14899   14901   14902   14903   14901   14902
   14903       0   14902   14903   14904   14905   14906   14903   14904   14905
   14906   14904   14905   14906   14907   14908   14909   14910   14911   14912
   14905   14906   14907   14908   14909   14910   14911   14912   14906   14907
   14908   14909   14907   14908   14909   14908   14909   14910   14911   14912
   14909   14910   14911   14912   14910   14911   14912   14911   14912   14912
       0   14914   14915   14916   14917   14918   14919   14920   14921   14922
   14923   14924   14925   14915   14916   14917   14918   14919   14920   14921
   14922   14923   14926   14927   14928   14916   14917   14918   14919   14920
   14923   14924   14925   14926   14928   14929   14917   14918   14919   14920
   14923   14924   14925   14929   14930   14931   14918   14921   14922   14923
   14926   14927   14932   14933   14934   14935   14919   14920   14921   14922
   14923   14924   14926   14928   14932   14920   14923   14924   14925   14929
   14936   14937   14924   14925   14929   14930   14931   14936   14937   14938
   14922   14923   14926   14927   14928   14932   14933   14934   14935   14939
   14940   14941   14926   14927   14926   14927   14928   14932   14925   14929
   14930   14931   14936   14937   14942   14929   14930   14931   14936   14938
   14942   14927   14928   14932   14933   14934   14935   14932   14933   14934
   14935   14939   14940   14941   14943   14944   14945   14932   14930   14936
   14937   14938   14942   14946   14947   14931   14936   14937   14938   14942
   14946   14947   14936   14938       0   14934   14935   14939   14940   14941
   14943   14944   14945   14948   14949   14950   14935   14939   14940   14941
   14939   14940   14941   14937   14938   14942   14946   14947   14951   14952
   14953   14954   14942   14942   14940   14941   14943   14944   14945   14948
   14949   14950   14955   14956   14957   14941   14943   14944   14945   14943
   14944   14945   14946   14947   14951   14952   14953   14954   14958   14959
   14960   14944   14945   14948   14949   14950   14955   14956   14957   14961
   14962   14963   14945   14948   14949   14950   14948   14949   14950   14947
   14951   14952   14953   14954   14958   14959   14964   14951   14952   14953
   14954   14958   14960   14964   14949   14950   14955   14956   14957   14961
   14962   14963   14965   14966   14967   14950   14955   14956   14957   14955
   14956   14957   14952   14953   14958   14959   14960   14964   14958   14959
   14954   14958   14959   14960   14964   14958   14960   14956   14957   14961
   14962   14963   14965   14966   14967   14968   14969   14970   14957   14961
   14962   14963   14961   14962   14963   14959   14960   14964   14964   14964
   14962   14963   14965   14966   14967   14968   14969   14970   14971   14972
   14973   14963   14965   14966   14967   14965   14966   14967       0   14966
   14967   14968   14969   14970   14967   14968   14969   14970   14968   14969
   14970   14971   14972   14973   14974   14975   14976   14969   14970   14971
   14972   14973   14974   14975   14976   14970   14971   14972   14973   14971
   14972   14973   14972   14973   14974   14975   14976   14973   14974   14975
   14976   14974   14975   14976   14975   14976   14976       0   14978   14979
   14980   14981   14982   14983   14984   14985   14986   14987   14988   14989
   14979   14980   14981   14982   14983   14984   14985   14986   14987   14990
   14991   14992   14980   14981   14982   14983   14984   14987   14988   14989
   14990   14992   14993   14981   14982   14983   14984   14987   14988   14989
   14993   14994   14995   14982   14985   14986   14987   14990   14991   14996
   14997   14998   14999   14983   14984   14985   14986   14987   14988   14990
   14992   14996   14984   14987   14988   14989   14993   15000   15001   14988
   14989   14993   14994   14995   15000   15001   15002   14986   14987   14990
   14991   14992   14996   14997   14998   14999   15003   15004   15005   14990
   14991   14990   14991   14992   14996   14989   14993   14994   14995   15000
   15001   15006   14993   14994   14995   15000   15002   15006   14991   14992
   14996   14997   14998   14999   14996   14997   14998   14999   15003   15004
   15005   15007   15008   15009   14996   14994   15000   15001   15002   15006
   15010   15011   14995   15000   15001   15002   15006   15010   15011   15000
   15002       0   14998   14999   15003   15004   15005   15007   15008   15009
   15012   15013   15014   14999   15003   15004   15005   15003   15004   15005
   15001   15002   15006   15010   15011   15015   15016   15017   15018   15006
   15006   15004   15005   15007   15008   15009   15012   15013   15014   15019
   15020   15021   15005   15007   15008   15009   15007   15008   15009   15010
   15011   15015   15016   15017   15018   15022   15023   15024   15008   15009
   15012   15013   15014   15019   15020   15021   15025   15026   15027   15009
   15012   15013   15014   15012   15013   15014   15011   15015   15016   15017
   15018   15022   15023   15028   15015   15016   15017   15018   15022   15024
   15028   15013   15014   15019   15020   15021   15025   15026   15027   15029
   15030   15031   15014   15019   15020   15021   15019   15020   15021   15016
   15017   15022   15023   15024   15028   15022   15023   15018   15022   15023
   15024   15028   15022   15024   15020   15021   15025   15026   15027   15029
   15030   15031   15032   15033   15034   15021   15025   15026   15027   15025
   15026   15027   15023   15024   15028   15028   15028   15026   15027   15029
   15030   15031   15032   15033   15034   15035   15036   15037   15027   15029
   15030   15031   15029   15030   15031       0   15030   15031   15032   15033
   15034   15031   15032   15033   15034   15032   15033   15034   15035   15036
   15037   15038   15039   15040   15033   15034   15035   15036   15037   15038
   15039   15040   15034   15035   15036   15037   15035   15036   15037   15036
   15037   15038   15039   15040   15037   15038   15039   15040   15038   15039
   15040   15039   15040   15040       0   15042   15043   15044   15045   15046
   15047   15048   15049   15050   15051   15052   15053   15043   15044   15045
   15046   15047   15048   15049   15050   15051   15054   15055   15056   15044
   15045   15046   15047   15048   15051   15052   15053   15054   15056   15057
   15045   15046   15047   15048   15051   15052   15053   15057   15058   15059
   15046   15049   15050   15051   15054   15055   15060   15061   15062   15063
   15047   15048   15049   15050   15051   15052   15054   15056   15060   15048
   15051   15052   15053   15057   15064   15065   15052   15053   15057   15058
   15059   15064   15065   15066   15050   15051   15054   15055   15056   15060
   15061   15062   15063   15067   15068   15069   15054   15055   15054   15055
   15056   15060   15053   15057   15058   15059   15064   15065   15070   15057
   15058   15059   15064   15066   15070   15055   15056   15060   15061   15062
   15063   15060   15061   15062   15063   15067   15068   15069   15071   15072
   15073   15060   15058   15064   15065   15066   15070   15074   15075   15059
   15064   15065   15066   15070   15074   15075   15064   15066       0   15062
   15063   15067   15068   15069   15071   15072   15073   15076   15077   15078
   15063   15067   15068   15069   15067   15068   15069   15065   15066   15070
   15074   15075   15079   15080   15081   15082   15070   15070   15068   15069
   15071   15072   15073   15076   15077   15078   15083   15084   15085   15069
   15071   15072   15073   15071   15072   15073   15074   15075   15079   15080
   15081   15082   15086   15087   15088   15072   15073   15076   15077   15078
   15083   15084   15085   15089   15090   15091   15073   15076   15077   15078
   15076   15077   15078   15075   15079   15080   15081   15082   15086   15087
   15092   15079   15080   15081   15082   15086   15088   15092   15077   15078
   15083   15084   15085   15089   15090   15091   15093   15094   15095   15078
   15083   15084   15085   15083   15084   15085   15080   15081   15086   15087
   15088   15092   15086   15087   15082   15086   15087   15088   15092   15086
   15088   15084   15085   15089   15090   15091   15093   15094   15095   15096
   15097   15098   15085   15089   15090   15091   15089   15090   15091   15087
   15088   15092   15092   15092   15090   15091   15093   15094   15095   15096
   15097   15098   15099   15100   15101   15091   15093   15094   15095   15093
   15094   15095       0   15094   15095   15096   15097   15098   15095   15096
   15097   15098   15096   15097   15098   15099   15100   15101   15102   15103
   15104   15097   15098   15099   15100   15101   15102   15103   15104   15098
   15099   15100   15101   15099   15100   15101   15100   15101   15102   15103
   15104   15101   15102   15103   15104   15102   15103   15104   15103   15104
   15104       0   15106   15107   15108   15109   15110   15111   15112   15113
   15114   15115   15116   15117   15107   15108   15109   15110   15111   15112
   15113   15114   15115   15118   15119   15120   15108   15109   15110   15111
   15112   15115   15116   15117   15118   15120   15121   15109   15110   15111
   15112   15115   15116   15117   15121   15122   15123   15110   15113   15114
   15115   15118   15119   15124   15125   15126   15127   15111   15112   15113
   15114   15115   15116   15118   15120   15124   15112   15115   15116   15117
   15121   15128   15129   15116   15117   15121   15122   15123   15128   15129
   15130   15114   15115   15118   15119   15120   15124   15125   15126   15127
   15131   15132   15133   15118   15119   15118   15119   15120   15124   15117
   15121   15122   15123   15128   15129   15134   15121   15122   15123   15128
   15130   15134   15119   15120   15124   15125   15126   15127   15124   15125
   15126   15127   15131   15132   15133   15135   15136   15137   15124   15122
   15128   15129   15130   15134   15138   15139   15123   15128   15129   15130
   15134   15138   15139   15128   15130       0   15126   15127   15131   15132
   15133   15135   15136   15137   15140   15141   15142   15127   15131   15132
   15133   15131   15132   15133   15129   15130   15134   15138   15139   15143
   15144   15145   15146   15134   15134   15132   15133   15135   15136   15137
   15140   15141   15142   15147   15148   15149   15133   15135   15136   15137
   15135   15136   15137   15138   15139   15143   15144   15145   15146   15150
   15151   15152   15136   15137   15140   15141   15142   15147   15148   15149
   15153   15154   15155   15137   15140   15141   15142   15140   15141   15142
   15139   15143   15144   15145   15146   15150   15151   15156   15143   15144
   15145   15146   15150   15152   15156   15141   15142   15147   15148   15149
   15153   15154   15155   15157   15158   15159   15142   15147   15148   15149
   15147   15148   15149   15144   15145   15150   15151   15152   15156   15150
   15151   15146   15150   15151   15152   15156   15150   15152   15148   15149
   15153   15154   15155   15157   15158   15159   15160   15161   15162   15149
   15153   15154   15155   15153   15154   15155   15151   15152   15156   15156
   15156   15154   15155   15157   15158   15159   15160   15161   15162   15163
   15164   15165   15155   15157   15158   15159   15157   15158   15159       0
   15158   15159   15160   15161   15162   15159   15160   15161   15162   15160
   15161   15162   15163   15164   15165   15166   15167   15168   15161   15162
   15163   15164   15165   15166   15167   15168   15162   15163   15164   15165
   15163   15164   15165   15164   15165   15166   15167   15168   15165   15166
   15167   15168   15166   15167   15168   15167   15168   15168       0   15170
   15171   15172   15173   15174   15175   15176   15177   15178   15179   15180
   15181   15171   15172   15173   15174   15175   15176   15177   15178   15179
   15182   15183   15184   15172   15173   15174   15175   15176   15179   15180
   15181   15182   15184   15185   15173   15174   15175   15176   15179   15180
   15181   15185   15186   15187   15174   15177   15178   15179   15182   15183
   15188   15189   15190   15191   15175   15176   15177   15178   15179   15180
   15182   15184   15188   15176   15179   15180   15181   15185   15192   15193
   15180   15181   15185   15186   15187   15192   15193   15194   15178   15179
   15182   15183   15184   15188   15189   15190   15191   15195   15196   15197
   15182   15183   15182   15183   15184   15188   15181   15185   15186   15187
   15192   15193   15198   15185   15186   15187   15192   15194   15198   15183
   15184   15188   15189   15190   15191   15188   15189   15190   15191   15195
   15196   15197   15199   15200   15201   15188   15186   15192   15193   15194
   15198   15202   15203   15187   15192   15193   15194   15198   15202   15203
   15192   15194       0   15190   15191   15195   15196   15197   15199   15200
   15201   15204   15205   15206   15191   15195   15196   15197   15195   15196
   15197   15193   15194   15198   15202   15203   15207   15208   15209   15210
   15198   15198   15196   15197   15199   15200   15201   15204   15205   15206
   15211   15212   15213   15197   15199   15200   15201   15199   15200   15201
   15202   15203   15207   15208   15209   15210   15214   15215   15216   15200
   15201   15204   15205   15206   15211   15212   15213   15217   15218   15219
   15201   15204   15205   15206   15204   15205   15206   15203   15207   15208
   15209   15210   15214   15215   15220   15207   15208   15209   15210   15214
   15216   15220   15205   15206   15211   15212   15213   15217   15218   15219
   15221   15222   15223   15206   15211   15212   15213   15211   15212   15213
   15208   15209   15214   15215   15216   15220   15214   15215   15210   15214
   15215   15216   15220   15214   15216   15212   15213   15217   15218   15219
   15221   15222   15223   15224   15225   15226   15213   15217   15218   15219
   15217   15218   15219   15215   15216   15220   15220   15220   15218   15219
   15221   15222   15223   15224   15225   15226   15227   15228   15229   15219
   15221   15222   15223   15221   15222   15223       0   15222   15223   15224
   15225   15226   15223   15224   15225   15226   15224   15225   15226   15227
   15228   15229   15230   15231   15232   15225   15226   15227   15228   15229
   15230   15231   15232   15226   15227   15228   15229   15227   15228   15229
   15228   15229   15230   15231   15232   15229   15230   15231   15232   15230
   15231   15232   15231   15232   15232       0   15234   15235   15236   15237
   15238   15239   15240   15241   15242   15243   15244   15245   15235   15236
   15237   15238   15239   15240   15241   15242   15243   15246   15247   15248
   15236   15237   15238   15239   15240   15243   15244   15245   15246   15248
   15249   15237   15238   15239   15240   15243   15244   15245   15249   15250
   15251   15238   15241   15242   15243   15246   15247   15252   15253   15254
   15255   15239   15240   15241   15242   15243   15244   15246   15248   15252
   15240   15243   15244   15245   15249   15256   15257   15244   15245   15249
   15250   15251   15256   15257   15258   15242   15243   15246   15247   15248
   15252   15253   15254   15255   15259   15260   15261   15246   15247   15246
   15247   15248   15252   15245   15249   15250   15251   15256   15257   15262
   15249   15250   15251   15256   15258   15262   15247   15248   15252   15253
   15254   15255   15252   15253   15254   15255   15259   15260   15261   15263
   15264   15265   15252   15250   15256   15257   15258   15262   15266   15267
   15251   15256   15257   15258   15262   15266   15267   15256   15258       0
   15254   15255   15259   15260   15261   15263   15264   15265   15268   15269
   15270   15255   15259   15260   15261   15259   15260   15261   15257   15258
   15262   15266   15267   15271   15272   15273   15274   15262   15262   15260
   15261   15263   15264   15265   15268   15269   15270   15275   15276   15277
   15261   15263   15264   15265   15263   15264   15265   15266   15267   15271
   15272   15273   15274   15278   15279   15280   15264   15265   15268   15269
   15270   15275   15276   15277   15281   15282   15283   15265   15268   15269
   15270   15268   15269   15270   15267   15271   15272   15273   15274   15278
   15279   15284   15271   15272   15273   15274   15278   15280   15284   15269
   15270   15275   15276   15277   15281   15282   15283   15285   15286   15287
   15270   15275   15276   15277   15275   15276   15277   15272   15273   15278
   15279   15280   15284   15278   15279   15274   15278   15279   15280   15284
   15278   15280   15276   15277   15281   15282   15283   15285   15286   15287
   15288   15289   15290   15277   15281   15282   15283   15281   15282   15283
   15279   15280   15284   15284   15284   15282   15283   15285   15286   15287
   15288   15289   15290   15291   15292   15293   15283   15285   15286   15287
   15285   15286   15287       0   15286   15287   15288   15289   15290   15287
   15288   15289   15290   15288   15289   15290   15291   15292   15293   15294
   15295   15296   15289   15290   15291   15292   15293   15294   15295   15296
   15290   15291   15292   15293   15291   15292   15293   15292   15293   15294
   15295   15296   15293   15294   15295   15296   15294   15295   15296   15295
   15296   15296       0   15298   15299   15300   15301   15302   15303   15304
   15305   15306   15307   15308   15309   15299   15300   15301   15302   15303
   15304   15305   15306   15307   15310   15311   15312   15300   15301   15302
   15303   15304   15307   15308   15309   15310   15312   15313   15301   15302
   15303   15304   15307   15308   15309   15313   15314   15315   15302   15305
   15306   15307   15310   15311   15316   15317   15318   15319   15303   15304
   15305   15306   15307   15308   15310   15312   15316   15304   15307   15308
   15309   15313   15320   15321   15308   15309   15313   15314   15315   15320
   15321   15322   15306   15307   15310   15311   15312   15316   15317   15318
   15319   15323   15324   15325   15310   15311   15310   15311   15312   15316
   15309   15313   15314   15315   15320   15321   15326   15313   15314   15315
   15320   15322   15326   15311   15312   15316   15317   15318   15319   15316
   15317   15318   15319   15323   15324   15325   15327   15328   15329   15316
   15314   15320   15321   15322   15326   15330   15331   15315   15320   15321
   15322   15326   15330   15331   15320   15322       0   15318   15319   15323
   15324   15325   15327   15328   15329   15332   15333   15334   15319   15323
   15324   15325   15323   15324   15325   15321   15322   15326   15330   15331
   15335   15336   15337   15338   15326   15326   15324   15325   15327   15328
   15329   15332   15333   15334   15339   15340   15341   15325   15327   15328
   15329   15327   15328   15329   15330   15331   15335   15336   15337   15338
   15342   15343   15344   15328   15329   15332   15333   15334   15339   15340
   15341   15345   15346   15347   15329   15332   15333   15334   15332   15333
   15334   15331   15335   15336   15337   15338   15342   15343   15348   15335
   15336   15337   15338   15342   15344   15348   15333   15334   15339   15340
   15341   15345   15346   15347   15349   15350   15351   15334   15339   15340
   15341   15339   15340   15341   15336   15337   15342   15343   15344   15348
   15342   15343   15338   15342   15343   15344   15348   15342   15344   15340
   15341   15345   15346   15347   15349   15350   15351   15352   15353   15354
   15341   15345   15346   15347   15345   15346   15347   15343   15344   15348
   15348   15348   15346   15347   15349   15350   15351   15352   15353   15354
   15355   15356   15357   15347   15349   15350   15351   15349   15350   15351
       0   15350   15351   15352   15353   15354   15351   15352   15353   15354
   15352   15353   15354   15355   15356   15357   15358   15359   15360   15353
   15354   15355   15356   15357   15358   15359   15360   15354   15355   15356
   15357   15355   15356   15357   15356   15357   15358   15359   15360   15357
   15358   15359   15360   15358   15359   15360   15359   15360   15360       0
   15362   15363   15364   15365   15366   15367   15368   15369   15370   15371
   15372   15373   15363   15364   15365   15366   15367   15368   15369   15370
   15371   15374   15375   15376   15364   15365   15366   15367   15368   15371
   15372   15373   15374   15376   15377   15365   15366   15367   15368   15371
   15372   15373   15377   15378   15379   15366   15369   15370   15371   15374
   15375   15380   15381   15382   15383   15367   15368   15369   15370   15371
   15372   15374   15376   15380   15368   15371   15372   15373   15377   15384
   15385   15372   15373   15377   15378   15379   15384   15385   15386   15370
   15371   15374   15375   15376   15380   15381   15382   15383   15387   15388
   15389   15374   15375   15374   15375   15376   15380   15373   15377   15378
   15379   15384   15385   15390   15377   15378   15379   15384   15386   15390
   15375   15376   15380   15381   15382   15383   15380   15381   15382   15383
   15387   15388   15389   15391   15392   15393   15380   15378   15384   15385
   15386   15390   15394   15395   15379   15384   15385   15386   15390   15394
   15395   15384   15386       0   15382   15383   15387   15388   15389   15391
   15392   15393   15396   15397   15398   15383   15387   15388   15389   15387
   15388   15389   15385   15386   15390   15394   15395   15399   15400   15401
   15402   15390   15390   15388   15389   15391   15392   15393   15396   15397
   15398   15403   15404   15405   15389   15391   15392   15393   15391   15392
   15393   15394   15395   15399   15400   15401   15402   15406   15407   15408
   15392   15393   15396   15397   15398   15403   15404   15405   15409   15410
   15411   15393   15396   15397   15398   15396   15397   15398   15395   15399
   15400   15401   15402   15406   15407   15412   15399   15400   15401   15402
   15406   15408   15412   15397   15398   15403   15404   15405   15409   15410
   15411   15413   15414   15415   15398   15403   15404   15405   15403   15404
   15405   15400   15401   15406   15407   15408   15412   15406   15407   15402
   15406   15407   15408   15412   15406   15408   15404   15405   15409   15410
   15411   15413   15414   15415   15416   15417   15418   15405   15409   15410
   15411   15409   15410   15411   15407   15408   15412   15412   15412   15410
   15411   15413   15414   15415   15416   15417   15418   15419   15420   15421
   15411   15413   15414   15415   15413   15414   15415       0   15414   15415
   15416   15417   15418   15415   15416   15417   15418   15416   15417   15418
   15419   15420   15421   15422   15423   15424   15417   15418   15419   15420
   15421   15422   15423   15424   15418   15419   15420   15421   15419   15420
   15421   15420   15421   15422   15423   15424   15421   15422   15423   15424
   15422   15423   15424   15423   15424   15424       0   15426   15427   15428
   15429   15430   15431   15432   15433   15434   15435   15436   15437   15427
   15428   15429   15430   15431   15432   15433   15434   15435   15438   15439
   15440   15428   15429   15430   15431   15432   15435   15436   15437   15438
   15440   15441   15429   15430   15431   15432   15435   15436   15437   15441
   15442   15443   15430   15433   15434   15435   15438   15439   15444   15445
   15446   15447   15431   15432   15433   15434   15435   15436   15438   15440
   15444   15432   15435   15436   15437   15441   15448   15449   15436   15437
   15441   15442   15443   15448   15449   15450   15434   15435   15438   15439
   15440   15444   15445   15446   15447   15451   15452   15453   15438   15439
   15438   15439   15440   15444   15437   15441   15442   15443   15448   15449
   15454   15441   15442   15443   15448   15450   15454   15439   15440   15444
   15445   15446   15447   15444   15445   15446   15447   15451   15452   15453
   15455   15456   15457   15444   15442   15448   15449   15450   15454   15458
   15459   15443   15448   15449   15450   15454   15458   15459   15448   15450
       0   15446   15447   15451   15452   15453   15455   15456   15457   15460
   15461   15462   15447   15451   15452   15453   15451   15452   15453   15449
   15450   15454   15458   15459   15463   15464   15465   15466   15454   15454
   15452   15453   15455   15456   15457   15460   15461   15462   15467   15468
   15469   15453   15455   15456   15457   15455   15456   15457   15458   15459
   15463   15464   15465   15466   15470   15471   15472   15456   15457   15460
   15461   15462   15467   15468   15469   15473   15474   15475   15457   15460
   15461   15462   15460   15461   15462   15459   15463   15464   15465   15466
   15470   15471   15476   15463   15464   15465   15466   15470   15472   15476
   15461   15462   15467   15468   15469   15473   15474   15475   15477   15478
   15479   15462   15467   15468   15469   15467   15468   15469   15464   15465
   15470   15471   15472   15476   15470   15471   15466   15470   15471   15472
   15476   15470   15472   15468   15469   15473   15474   15475   15477   15478
   15479   15480   15481   15482   15469   15473   15474   15475   15473   15474
   15475   15471   15472   15476   15476   15476   15474   15475   15477   15478
   15479   15480   15481   15482   15483   15484   15485   15475   15477   15478
   15479   15477   15478   15479       0   15478   15479   15480   15481   15482
   15479   15480   15481   15482   15480   15481   15482   15483   15484   15485
   15486   15487   15488   15481   15482   15483   15484   15485   15486   15487
   15488   15482   15483   15484   15485   15483   15484   15485   15484   15485
   15486   15487   15488   15485   15486   15487   15488   15486   15487   15488
   15487   15488   15488       0   15490   15491   15492   15493   15494   15495
   15496   15497   15498   15499   15500   15501   15491   15492   15493   15494
   15495   15496   15497   15498   15499   15502   15503   15504   15492   15493
   15494   15495   15496   15499   15500   15501   15502   15504   15505   15493
   15494   15495   15496   15499   15500   15501   15505   15506   15507   15494
   15497   15498   15499   15502   15503   15508   15509   15510   15511   15495
   15496   15497   15498   15499   15500   15502   15504   15508   15496   15499
   15500   15501   15505   15512   15513   15500   15501   15505   15506   15507
   15512   15513   15514   15498   15499   15502   15503   15504   15508   15509
   15510   15511   15515   15516   15517   15502   15503   15502   15503   15504
   15508   15501   15505   15506   15507   15512   15513   15518   15505   15506
   15507   15512   15514   15518   15503   15504   15508   15509   15510   15511
   15508   15509   15510   15511   15515   15516   15517   15519   15520   15521
   15508   15506   15512   15513   15514   15518   15522   15523   15507   15512
   15513   15514   15518   15522   15523   15512   15514       0   15510   15511
   15515   15516   15517   15519   15520   15521   15524   15525   15526   15511
   15515   15516   15517   15515   15516   15517   15513   15514   15518   15522
   15523   15527   15528   15529   15530   15518   15518   15516   15517   15519
   15520   15521   15524   15525   15526   15531   15532   15533   15517   15519
   15520   15521   15519   15520   15521   15522   15523   15527   15528   15529
   15530   15534   15535   15536   15520   15521   15524   15525   15526   15531
   15532   15533   15537   15538   15539   15521   15524   15525   15526   15524
   15525   15526   15523   15527   15528   15529   15530   15534   15535   15540
   15527   15528   15529   15530   15534   15536   15540   15525   15526   15531
   15532   15533   15537   15538   15539   15541   15542   15543   15526   15531
   15532   15533   15531   15532   15533   15528   15529   15534   15535   15536
   15540   15534   15535   15530   15534   15535   15536   15540   15534   15536
   15532   15533   15537   15538   15539   15541   15542   15543   15544   15545
   15546   15533   15537   15538   15539   15537   15538   15539   15535   15536
   15540   15540   15540   15538   15539   15541   15542   15543   15544   15545
   15546   15547   15548   15549   15539   15541   15542   15543   15541   15542
   15543       0   15542   15543   15544   15545   15546   15543   15544   15545
   15546   15544   15545   15546   15547   15548   15549   15550   15551   15552
   15545   15546   15547   15548   15549   15550   15551   15552   15546   15547
   15548   15549   15547   15548   15549   15548   15549   15550   15551   15552
   15549   15550   15551   15552   15550   15551   15552   15551   15552   15552
       0   15554   15555   15556   15557   15558   15559   15560   15561   15562
   15563   15564   15565   15555   15556   15557   15558   15559   15560   15561
   15562   15563   15566   15567   15568   15556   15557   15558   15559   15560
   15563   15564   15565   15566   15568   15569   15557   15558   15559   15560
   15563   15564   15565   15569   15570   15571   15558   15561   15562   15563
   15566   15567   15572   15573   15574   15575   15559   15560   15561   15562
   15563   15564   15566   15568   15572   15560   15563   15564   15565   15569
   15576   15577   15564   15565   15569   15570   15571   15576   15577   15578
   15562   15563   15566   15567   15568   15572   15573   15574   15575   15579
   15580   15581   15566   15567   15566   15567   15568   15572   15565   15569
   15570   15571   15576   15577   15582   15569   15570   15571   15576   15578
   15582   15567   15568   15572   15573   15574   15575   15572   15573   15574
   15575   15579   15580   15581   15583   15584   15585   15572   15570   15576
   15577   15578   15582   15586   15587   15571   15576   15577   15578   15582
   15586   15587   15576   15578       0   15574   15575   15579   15580   15581
   15583   15584   15585   15588   15589   15590   15575   15579   15580   15581
   15579   15580   15581   15577   15578   15582   15586   15587   15591   15592
   15593   15594   15582   15582   15580   15581   15583   15584   15585   15588
   15589   15590   15595   15596   15597   15581   15583   15584   15585   15583
   15584   15585   15586   15587   15591   15592   15593   15594   15598   15599
   15600   15584   15585   15588   15589   15590   15595   15596   15597   15601
   15602   15603   15585   15588   15589   15590   15588   15589   15590   15587
   15591   15592   15593   15594   15598   15599   15604   15591   15592   15593
   15594   15598   15600   15604   15589   15590   15595   15596   15597   15601
   15602   15603   15605   15606   15607   15590   15595   15596   15597   15595
   15596   15597   15592   15593   15598   15599   15600   15604   15598   15599
   15594   15598   15599   15600   15604   15598   15600   15596   15597   15601
   15602   15603   15605   15606   15607   15608   15609   15610   15597   15601
   15602   15603   15601   15602   15603   15599   15600   15604   15604   15604
   15602   15603   15605   15606   15607   15608   15609   15610   15611   15612
   15613   15603   15605   15606   15607   15605   15606   15607       0   15606
   15607   15608   15609   15610   15607   15608   15609   15610   15608   15609
   15610   15611   15612   15613   15614   15615   15616   15609   15610   15611
   15612   15613   15614   15615   15616   15610   15611   15612   15613   15611
   15612   15613   15612   15613   15614   15615   15616   15613   15614   15615
   15616   15614   15615   15616   15615   15616   15616       0   15618   15619
   15620   15621   15622   15623   15624   15625   15626   15627   15628   15629
   15619   15620   15621   15622   15623   15624   15625   15626   15627   15630
   15631   15632   15620   15621   15622   15623   15624   15627   15628   15629
   15630   15632   15633   15621   15622   15623   15624   15627   15628   15629
   15633   15634   15635   15622   15625   15626   15627   15630   15631   15636
   15637   15638   15639   15623   15624   15625   15626   15627   15628   15630
   15632   15636   15624   15627   15628   15629   15633   15640   15641   15628
   15629   15633   15634   15635   15640   15641   15642   15626   15627   15630
   15631   15632   15636   15637   15638   15639   15643   15644   15645   15630
   15631   15630   15631   15632   15636   15629   15633   15634   15635   15640
   15641   15646   15633   15634   15635   15640   15642   15646   15631   15632
   15636   15637   15638   15639   15636   15637   15638   15639   15643   15644
   15645   15647   15648   15649   15636   15634   15640   15641   15642   15646
   15650   15651   15635   15640   15641   15642   15646   15650   15651   15640
   15642       0   15638   15639   15643   15644   15645   15647   15648   15649
   15652   15653   15654   15639   15643   15644   15645   15643   15644   15645
   15641   15642   15646   15650   15651   15655   15656   15657   15658   15646
   15646   15644   15645   15647   15648   15649   15652   15653   15654   15659
   15660   15661   15645   15647   15648   15649   15647   15648   15649   15650
   15651   15655   15656   15657   15658   15662   15663   15664   15648   15649
   15652   15653   15654   15659   15660   15661   15665   15666   15667   15649
   15652   15653   15654   15652   15653   15654   15651   15655   15656   15657
   15658   15662   15663   15668   15655   15656   15657   15658   15662   15664
   15668   15653   15654   15659   15660   15661   15665   15666   15667   15669
   15670   15671   15654   15659   15660   15661   15659   15660   15661   15656
   15657   15662   15663   15664   15668   15662   15663   15658   15662   15663
   15664   15668   15662   15664   15660   15661   15665   15666   15667   15669
   15670   15671   15672   15673   15674   15661   15665   15666   15667   15665
   15666   15667   15663   15664   15668   15668   15668   15666   15667   15669
   15670   15671   15672   15673   15674   15675   15676   15677   15667   15669
   15670   15671   15669   15670   15671       0   15670   15671   15672   15673
   15674   15671   15672   15673   15674   15672   15673   15674   15675   15676
   15677   15678   15679   15680   15673   15674   15675   15676   15677   15678
   15679   15680   15674   15675   15676   15677   15675   15676   15677   15676
   15677   15678   15679   15680   15677   15678   15679   15680   15678   15679
   15680   15679   15680   15680       0   15682   15683   15684   15685   15686
   15687   15688   15689   15690   15691   15692   15693   15683   15684   15685
   15686   15687   15688   15689   15690   15691   15694   15695   15696   15684
   15685   15686   15687   15688   15691   15692   15693   15694   15696   15697
   15685   15686   15687   15688   15691   15692   15693   15697   15698   15699
   15686   15689   15690   15691   15694   15695   15700   15701   15702   15703
   15687   15688   15689   15690   15691   15692   15694   15696   15700   15688
   15691   15692   15693   15697   15704   15705   15692   15693   15697   15698
   15699   15704   15705   15706   15690   15691   15694   15695   15696   15700
   15701   15702   15703   15707   15708   15709   15694   15695   15694   15695
   15696   15700   15693   15697   15698   15699   15704   15705   15710   15697
   15698   15699   15704   15706   15710   15695   15696   15700   15701   15702
   15703   15700   15701   15702   15703   15707   15708   15709   15711   15712
   15713   15700   15698   15704   15705   15706   15710   15714   15715   15699
   15704   15705   15706   15710   15714   15715   15704   15706       0   15702
   15703   15707   15708   15709   15711   15712   15713   15716   15717   15718
   15703   15707   15708   15709   15707   15708   15709   15705   15706   15710
   15714   15715   15719   15720   15721   15722   15710   15710   15708   15709
   15711   15712   15713   15716   15717   15718   15723   15724   15725   15709
   15711   15712   15713   15711   15712   15713   15714   15715   15719   15720
   15721   15722   15726   15727   15728   15712   15713   15716   15717   15718
   15723   15724   15725   15729   15730   15731   15713   15716   15717   15718
   15716   15717   15718   15715   15719   15720   15721   15722   15726   15727
   15732   15719   15720   15721   15722   15726   15728   15732   15717   15718
   15723   15724   15725   15729   15730   15731   15733   15734   15735   15718
   15723   15724   15725   15723   15724   15725   15720   15721   15726   15727
   15728   15732   15726   15727   15722   15726   15727   15728   15732   15726
   15728   15724   15725   15729   15730   15731   15733   15734   15735   15736
   15737   15738   15725   15729   15730   15731   15729   15730   15731   15727
   15728   15732   15732   15732   15730   15731   15733   15734   15735   15736
   15737   15738   15739   15740   15741   15731   15733   15734   15735   15733
   15734   15735       0   15734   15735   15736   15737   15738   15735   15736
   15737   15738   15736   15737   15738   15739   15740   15741   15742   15743
   15744   15737   15738   15739   15740   15741   15742   15743   15744   15738
   15739   15740   15741   15739   15740   15741   15740   15741   15742   15743
   15744   15741   15742   15743   15744   15742   15743   15744   15743   15744
   15744       0   15746   15747   15748   15749   15750   15751   15752   15753
   15754   15755   15756   15757   15747   15748   15749   15750   15751   15752
   15753   15754   15755   15758   15759   15760   15748   15749   15750   15751
   15752   15755   15756   15757   15758   15760   15761   15749   15750   15751
   15752   15755   15756   15757   15761   15762   15763   15750   15753   15754
   15755   15758   15759   15764   15765   15766   15767   15751   15752   15753
   15754   15755   15756   15758   15760   15764   15752   15755   15756   15757
   15761   15768   15769   15756   15757   15761   15762   15763   15768   15769
   15770   15754   15755   15758   15759   15760   15764   15765   15766   15767
   15771   15772   15773   15758   15759   15758   15759   15760   15764   15757
   15761   15762   15763   15768   15769   15774   15761   15762   15763   15768
   15770   15774   15759   15760   15764   15765   15766   15767   15764   15765
   15766   15767   15771   15772   15773   15775   15776   15777   15764   15762
   15768   15769   15770   15774   15778   15779   15763   15768   15769   15770
   15774   15778   15779   15768   15770       0   15766   15767   15771   15772
   15773   15775   15776   15777   15780   15781   15782   15767   15771   15772
   15773   15771   15772   15773   15769   15770   15774   15778   15779   15783
   15784   15785   15786   15774   15774   15772   15773   15775   15776   15777
   15780   15781   15782   15787   15788   15789   15773   15775   15776   15777
   15775   15776   15777   15778   15779   15783   15784   15785   15786   15790
   15791   15792   15776   15777   15780   15781   15782   15787   15788   15789
   15793   15794   15795   15777   15780   15781   15782   15780   15781   15782
   15779   15783   15784   15785   15786   15790   15791   15796   15783   15784
   15785   15786   15790   15792   15796   15781   15782   15787   15788   15789
   15793   15794   15795   15797   15798   15799   15782   15787   15788   15789
   15787   15788   15789   15784   15785   15790   15791   15792   15796   15790
   15791   15786   15790   15791   15792   15796   15790   15792   15788   15789
   15793   15794   15795   15797   15798   15799   15800   15801   15802   15789
   15793   15794   15795   15793   15794   15795   15791   15792   15796   15796
   15796   15794   15795   15797   15798   15799   15800   15801   15802   15803
   15804   15805   15795   15797   15798   15799   15797   15798   15799       0
   15798   15799   15800   15801   15802   15799   15800   15801   15802   15800
   15801   15802   15803   15804   15805   15806   15807   15808   15801   15802
   15803   15804   15805   15806   15807   15808   15802   15803   15804   15805
   15803   15804   15805   15804   15805   15806   15807   15808   15805   15806
   15807   15808   15806   15807   15808   15807   15808   15808       0   15810
   15811   15812   15813   15814   15815   15816   15817   15818   15819   15820
   15821   15811   15812   15813   15814   15815   15816   15817   15818   15819
   15822   15823   15824   15812   15813   15814   15815   15816   15819   15820
   15821   15822   15824   15825   15813   15814   15815   15816   15819   15820
   15821   15825   15826   15827   15814   15817   15818   15819   15822   15823
   15828   15829   15830   15831   15815   15816   15817   15818   15819   15820
   15822   15824   15828   15816   15819   15820   15821   15825   15832   15833
   15820   15821   15825   15826   15827   15832   15833   15834   15818   15819
   15822   15823   15824   15828   15829   15830   15831   15835   15836   15837
   15822   15823   15822   15823   15824   15828   15821   15825   15826   15827
   15832   15833   15838   15825   15826   15827   15832   15834   15838   15823
   15824   15828   15829   15830   15831   15828   15829   15830   15831   15835
   15836   15837   15839   15840   15841   15828   15826   15832   15833   15834
   15838   15842   15843   15827   15832   15833   15834   15838   15842   15843
   15832   15834       0   15830   15831   15835   15836   15837   15839   15840
   15841   15844   15845   15846   15831   15835   15836   15837   15835   15836
   15837   15833   15834   15838   15842   15843   15847   15848   15849   15850
   15838   15838   15836   15837   15839   15840   15841   15844   15845   15846
   15851   15852   15853   15837   15839   15840   15841   15839   15840   15841
   15842   15843   15847   15848   15849   15850   15854   15855   15856   15840
   15841   15844   15845   15846   15851   15852   15853   15857   15858   15859
   15841   15844   15845   15846   15844   15845   15846   15843   15847   15848
   15849   15850   15854   15855   15860   15847   15848   15849   15850   15854
   15856   15860   15845   15846   15851   15852   15853   15857   15858   15859
   15861   15862   15863   15846   15851   15852   15853   15851   15852   15853
   15848   15849   15854   15855   15856   15860   15854   15855   15850   15854
   15855   15856   15860   15854   15856   15852   15853   15857   15858   15859
   15861   15862   15863   15864   15865   15866   15853   15857   15858   15859
   15857   15858   15859   15855   15856   15860   15860   15860   15858   15859
   15861   15862   15863   15864   15865   15866   15867   15868   15869   15859
   15861   15862   15863   15861   15862   15863       0   15862   15863   15864
   15865   15866   15863   15864   15865   15866   15864   15865   15866   15867
   15868   15869   15870   15871   15872   15865   15866   15867   15868   15869
   15870   15871   15872   15866   15867   15868   15869   15867   15868   15869
   15868   15869   15870   15871   15872   15869   15870   15871   15872   15870
   15871   15872   15871   15872   15872       0   15874   15875   15876   15877
   15878   15879   15880   15881   15882   15883   15884   15885   15875   15876
   15877   15878   15879   15880   15881   15882   15883   15886   15887   15888
   15876   15877   15878   15879   15880   15883   15884   15885   15886   15888
   15889   15877   15878   15879   15880   15883   15884   15885   15889   15890
   15891   15878   15881   15882   15883   15886   15887   15892   15893   15894
   15895   15879   15880   15881   15882   15883   15884   15886   15888   15892
   15880   15883   15884   15885   15889   15896   15897   15884   15885   15889
   15890   15891   15896   15897   15898   15882   15883   15886   15887   15888
   15892   15893   15894   15895   15899   15900   15901   15886   15887   15886
   15887   15888   15892   15885   15889   15890   15891   15896   15897   15902
   15889   15890   15891   15896   15898   15902   15887   15888   15892   15893
   15894   15895   15892   15893   15894   15895   15899   15900   15901   15903
   15904   15905   15892   15890   15896   15897   15898   15902   15906   15907
   15891   15896   15897   15898   15902   15906   15907   15896   15898       0
   15894   15895   15899   15900   15901   15903   15904   15905   15908   15909
   15910   15895   15899   15900   15901   15899   15900   15901   15897   15898
   15902   15906   15907   15911   15912   15913   15914   15902   15902   15900
   15901   15903   15904   15905   15908   15909   15910   15915   15916   15917
   15901   15903   15904   15905   15903   15904   15905   15906   15907   15911
   15912   15913   15914   15918   15919   15920   15904   15905   15908   15909
   15910   15915   15916   15917   15921   15922   15923   15905   15908   15909
   15910   15908   15909   15910   15907   15911   15912   15913   15914   15918
   15919   15924   15911   15912   15913   15914   15918   15920   15924   15909
   15910   15915   15916   15917   15921   15922   15923   15925   15926   15927
   15910   15915   15916   15917   15915   15916   15917   15912   15913   15918
   15919   15920   15924   15918   15919   15914   15918   15919   15920   15924
   15918   15920   15916   15917   15921   15922   15923   15925   15926   15927
   15928   15929   15930   15917   15921   15922   15923   15921   15922   15923
   15919   15920   15924   15924   15924   15922   15923   15925   15926   15927
   15928   15929   15930   15931   15932   15933   15923   15925   15926   15927
   15925   15926   15927       0   15926   15927   15928   15929   15930   15927
   15928   15929   15930   15928   15929   15930   15931   15932   15933   15934
   15935   15936   15929   15930   15931   15932   15933   15934   15935   15936
   15930   15931   15932   15933   15931   15932   15933   15932   15933   15934
   15935   15936   15933   15934   15935   15936   15934   15935   15936   15935
   15936   15936       0   15938   15939   15940   15941   15942   15943   15944
   15945   15946   15947   15948   15949   15939   15940   15941   15942   15943
   15944   15945   15946   15947   15950   15951   15952   15940   15941   15942
   15943   15944   15947   15948   15949   15950   15952   15953   15941   15942
   15943   15944   15947   15948   15949   15953   15954   15955   15942   15945
   15946   15947   15950   15951   15956   15957   15958   15959   15943   15944
   15945   15946   15947   15948   15950   15952   15956   15944   15947   15948
   15949   15953   15960   15961   15948   15949   15953   15954   15955   15960
   15961   15962   15946   15947   15950   15951   15952   15956   15957   15958
   15959   15963   15964   15965   15950   15951   15950   15951   15952   15956
   15949   15953   15954   15955   15960   15961   15966   15953   15954   15955
   15960   15962   15966   15951   15952   15956   15957   15958   15959   15956
   15957   15958   15959   15963   15964   15965   15967   15968   15969   15956
   15954   15960   15961   15962   15966   15970   15971   15955   15960   15961
   15962   15966   15970   15971   15960   15962       0   15958   15959   15963
   15964   15965   15967   15968   15969   15972   15973   15974   15959   15963
   15964   15965   15963   15964   15965   15961   15962   15966   15970   15971
   15975   15976   15977   15978   15966   15966   15964   15965   15967   15968
   15969   15972   15973   15974   15979   15980   15981   15965   15967   15968
   15969   15967   15968   15969   15970   15971   15975   15976   15977   15978
   15982   15983   15984   15968   15969   15972   15973   15974   15979   15980
   15981   15985   15986   15987   15969   15972   15973   15974   15972   15973
   15974   15971   15975   15976   15977   15978   15982   15983   15988   15975
   15976   15977   15978   15982   15984   15988   15973   15974   15979   15980
   15981   15985   15986   15987   15989   15990   15991   15974   15979   15980
   15981   15979   15980   15981   15976   15977   15982   15983   15984   15988
   15982   15983   15978   15982   15983   15984   15988   15982   15984   15980
   15981   15985   15986   15987   15989   15990   15991   15992   15993   15994
   15981   15985   15986   15987   15985   15986   15987   15983   15984   15988
   15988   15988   15986   15987   15989   15990   15991   15992   15993   15994
   15995   15996   15997   15987   15989   15990   15991   15989   15990   15991
       0   15990   15991   15992   15993   15994   15991   15992   15993   15994
   15992   15993   15994   15995   15996   15997   15998   15999   16000   15993
   15994   15995   15996   15997   15998   15999   16000   15994   15995   15996
   15997   15995   15996   15997   15996   15997   15998   15999   16000   15997
   15998   15999   16000   15998   15999   16000   15999   16000   16000       0
   16002   16003   16004   16005   16006   16007   16008   16009   16010   16011
   16012   16013   16003   16004   16005   16006   16007   16008   16009   16010
   16011   16014   16015   16016   16004   16005   16006   16007   16008   16011
   16012   16013   16014   16016   16017   16005   16006   16007   16008   16011
   16012   16013   16017   16018   16019   16006   16009   16010   16011   16014
   16015   16020   16021   16022   16023   16007   16008   16009   16010   16011
   16012   16014   16016   16020   16008   16011   16012   16013   16017   16024
   16025   16012   16013   16017   16018   16019   16024   16025   16026   16010
   16011   16014   16015   16016   16020   16021   16022   16023   16027   16028
   16029   16014   16015   16014   16015   16016   16020   16013   16017   16018
   16019   16024   16025   16030   16017   16018   16019   16024   16026   16030
   16015   16016   16020   16021   16022   16023   16020   16021   16022   16023
   16027   16028   16029   16031   16032   16033   16020   16018   16024   16025
   16026   16030   16034   16035   16019   16024   16025   16026   16030   16034
   16035   16024   16026       0   16022   16023   16027   16028   16029   16031
   16032   16033   16036   16037   16038   16023   16027   16028   16029   16027
   16028   16029   16025   16026   16030   16034   16035   16039   16040   16041
   16042   16030   16030   16028   16029   16031   16032   16033   16036   16037
   16038   16043   16044   16045   16029   16031   16032   16033   16031   16032
   16033   16034   16035   16039   16040   16041   16042   16046   16047   16048
   16032   16033   16036   16037   16038   16043   16044   16045   16049   16050
   16051   16033   16036   16037   16038   16036   16037   16038   16035   16039
   16040   16041   16042   16046   16047   16052   16039   16040   16041   16042
   16046   16048   16052   16037   16038   16043   16044   16045   16049   16050
   16051   16053   16054   16055   16038   16043   16044   16045   16043   16044
   16045   16040   16041   16046   16047   16048   16052   16046   16047   16042
   16046   16047   16048   16052   16046   16048   16044   16045   16049   16050
   16051   16053   16054   16055   16056   16057   16058   16045   16049   16050
   16051   16049   16050   16051   16047   16048   16052   16052   16052   16050
   16051   16053   16054   16055   16056   16057   16058   16059   16060   16061
   16051   16053   16054   16055   16053   16054   16055       0   16054   16055
   16056   16057   16058   16055   16056   16057   16058   16056   16057   16058
   16059   16060   16061   16062   16063   16064   16057   16058   16059   16060
   16061   16062   16063   16064   16058   16059   16060   16061   16059   16060
   16061   16060   16061   16062   16063   16064   16061   16062   16063   16064
   16062   16063   16064   16063   16064   16064       0   16066   16067   16068
   16069   16070   16071   16072   16073   16074   16075   16076   16077   16067
   16068   16069   16070   16071   16072   16073   16074   16075   16078   16079
   16080   16068   16069   16070   16071   16072   16075   16076   16077   16078
   16080   16081   16069   16070   16071   16072   16075   16076   16077   16081
   16082   16083   16070   16073   16074   16075   16078   16079   16084   16085
   16086   16087   16071   16072   16073   16074   16075   16076   16078   16080
   16084   16072   16075   16076   16077   16081   16088   16089   16076   16077
   16081   16082   16083   16088   16089   16090   16074   16075   16078   16079
   16080   16084   16085   16086   16087   16091   16092   16093   16078   16079
   16078   16079   16080   16084   16077   16081   16082   16083   16088   16089
   16094   16081   16082   16083   16088   16090   16094   16079   16080   16084
   16085   16086   16087   16084   16085   16086   16087   16091   16092   16093
   16095   16096   16097   16084   16082   16088   16089   16090   16094   16098
   16099   16083   16088   16089   16090   16094   16098   16099   16088   16090
       0   16086   16087   16091   16092   16093   16095   16096   16097   16100
   16101   16102   16087   16091   16092   16093   16091   16092   16093   16089
   16090   16094   16098   16099   16103   16104   16105   16106   16094   16094
   16092   16093   16095   16096   16097   16100   16101   16102   16107   16108
   16109   16093   16095   16096   16097   16095   16096   16097   16098   16099
   16103   16104   16105   16106   16110   16111   16112   16096   16097   16100
   16101   16102   16107   16108   16109   16113   16114   16115   16097   16100
   16101   16102   16100   16101   16102   16099   16103   16104   16105   16106
   16110   16111   16116   16103   16104   16105   16106   16110   16112   16116
   16101   16102   16107   16108   16109   16113   16114   16115   16117   16118
   16119   16102   16107   16108   16109   16107   16108   16109   16104   16105
   16110   16111   16112   16116   16110   16111   16106   16110   16111   16112
   16116   16110   16112   16108   16109   16113   16114   16115   16117   16118
   16119   16120   16121   16122   16109   16113   16114   16115   16113   16114
   16115   16111   16112   16116   16116   16116   16114   16115   16117   16118
   16119   16120   16121   16122   16123   16124   16125   16115   16117   16118
   16119   16117   16118   16119       0   16118   16119   16120   16121   16122
   16119   16120   16121   16122   16120   16121   16122   16123   16124   16125
   16126   16127   16128   16121   16122   16123   16124   16125   16126   16127
   16128   16122   16123   16124   16125   16123   16124   16125   16124   16125
   16126   16127   16128   16125   16126   16127   16128   16126   16127   16128
   16127   16128   16128       0   16130   16131   16132   16133   16134   16135
   16136   16137   16138   16139   16140   16141   16131   16132   16133   16134
   16135   16136   16137   16138   16139   16142   16143   16144   16132   16133
   16134   16135   16136   16139   16140   16141   16142   16144   16145   16133
   16134   16135   16136   16139   16140   16141   16145   16146   16147   16134
   16137   16138   16139   16142   16143   16148   16149   16150   16151   16135
   16136   16137   16138   16139   16140   16142   16144   16148   16136   16139
   16140   16141   16145   16152   16153   16140   16141   16145   16146   16147
   16152   16153   16154   16138   16139   16142   16143   16144   16148   16149
   16150   16151   16155   16156   16157   16142   16143   16142   16143   16144
   16148   16141   16145   16146   16147   16152   16153   16158   16145   16146
   16147   16152   16154   16158   16143   16144   16148   16149   16150   16151
   16148   16149   16150   16151   16155   16156   16157   16159   16160   16161
   16148   16146   16152   16153   16154   16158   16162   16163   16147   16152
   16153   16154   16158   16162   16163   16152   16154       0   16150   16151
   16155   16156   16157   16159   16160   16161   16164   16165   16166   16151
   16155   16156   16157   16155   16156   16157   16153   16154   16158   16162
   16163   16167   16168   16169   16170   16158   16158   16156   16157   16159
   16160   16161   16164   16165   16166   16171   16172   16173   16157   16159
   16160   16161   16159   16160   16161   16162   16163   16167   16168   16169
   16170   16174   16175   16176   16160   16161   16164   16165   16166   16171
   16172   16173   16177   16178   16179   16161   16164   16165   16166   16164
   16165   16166   16163   16167   16168   16169   16170   16174   16175   16180
   16167   16168   16169   16170   16174   16176   16180   16165   16166   16171
   16172   16173   16177   16178   16179   16181   16182   16183   16166   16171
   16172   16173   16171   16172   16173   16168   16169   16174   16175   16176
   16180   16174   16175   16170   16174   16175   16176   16180   16174   16176
   16172   16173   16177   16178   16179   16181   16182   16183   16184   16185
   16186   16173   16177   16178   16179   16177   16178   16179   16175   16176
   16180   16180   16180   16178   16179   16181   16182   16183   16184   16185
   16186   16187   16188   16189   16179   16181   16182   16183   16181   16182
   16183       0   16182   16183   16184   16185   16186   16183   16184   16185
   16186   16184   16185   16186   16187   16188   16189   16190   16191   16192
   16185   16186   16187   16188   16189   16190   16191   16192   16186   16187
   16188   16189   16187   16188   16189   16188   16189   16190   16191   16192
   16189   16190   16191   16192   16190   16191   16192   16191   16192   16192
       0   16194   16195   16196   16197   16198   16199   16200   16201   16202
   16203   16204   16205   16195   16196   16197   16198   16199   16200   16201
   16202   16203   16206   16207   16208   16196   16197   16198   16199   16200
   16203   16204   16205   16206   16208   16209   16197   16198   16199   16200
   16203   16204   16205   16209   16210   16211   16198   16201   16202   16203
   16206   16207   16212   16213   16214   16215   16199   16200   16201   16202
   16203   16204   16206   16208   16212   16200   16203   16204   16205   16209
   16216   16217   16204   16205   16209   16210   16211   16216   16217   16218
   16202   16203   16206   16207   16208   16212   16213   16214   16215   16219
   16220   16221   16206   16207   16206   16207   16208   16212   16205   16209
   16210   16211   16216   16217   16222   16209   16210   16211   16216   16218
   16222   16207   16208   16212   16213   16214   16215   16212   16213   16214
   16215   16219   16220   16221   16223   16224   16225   16212   16210   16216
   16217   16218   16222   16226   16227   16211   16216   16217   16218   16222
   16226   16227   16216   16218       0   16214   16215   16219   16220   16221
   16223   16224   16225   16228   16229   16230   16215   16219   16220   16221
   16219   16220   16221   16217   16218   16222   16226   16227   16231   16232
   16233   16234   16222   16222   16220   16221   16223   16224   16225   16228
   16229   16230   16235   16236   16237   16221   16223   16224   16225   16223
   16224   16225   16226   16227   16231   16232   16233   16234   16238   16239
   16240   16224   16225   16228   16229   16230   16235   16236   16237   16241
   16242   16243   16225   16228   16229   16230   16228   16229   16230   16227
   16231   16232   16233   16234   16238   16239   16244   16231   16232   16233
   16234   16238   16240   16244   16229   16230   16235   16236   16237   16241
   16242   16243   16245   16246   16247   16230   16235   16236   16237   16235
   16236   16237   16232   16233   16238   16239   16240   16244   16238   16239
   16234   16238   16239   16240   16244   16238   16240   16236   16237   16241
   16242   16243   16245   16246   16247   16248   16249   16250   16237   16241
   16242   16243   16241   16242   16243   16239   16240   16244   16244   16244
   16242   16243   16245   16246   16247   16248   16249   16250   16251   16252
   16253   16243   16245   16246   16247   16245   16246   16247       0   16246
   16247   16248   16249   16250   16247   16248   16249   16250   16248   16249
   16250   16251   16252   16253   16254   16255   16256   16249   16250   16251
   16252   16253   16254   16255   16256   16250   16251   16252   16253   16251
   16252   16253   16252   16253   16254   16255   16256   16253   16254   16255
   16256   16254   16255   16256   16255   16256   16256       0   16258   16259
   16260   16261   16262   16263   16264   16265   16266   16267   16268   16269
   16259   16260   16261   16262   16263   16264   16265   16266   16267   16270
   16271   16272   16260   16261   16262   16263   16264   16267   16268   16269
   16270   16272   16273   16261   16262   16263   16264   16267   16268   16269
   16273   16274   16275   16262   16265   16266   16267   16270   16271   16276
   16277   16278   16279   16263   16264   16265   16266   16267   16268   16270
   16272   16276   16264   16267   16268   16269   16273   16280   16281   16268
   16269   16273   16274   16275   16280   16281   16282   16266   16267   16270
   16271   16272   16276   16277   16278   16279   16283   16284   16285   16270
   16271   16270   16271   16272   16276   16269   16273   16274   16275   16280
   16281   16286   16273   16274   16275   16280   16282   16286   16271   16272
   16276   16277   16278   16279   16276   16277   16278   16279   16283   16284
   16285   16287   16288   16289   16276   16274   16280   16281   16282   16286
   16290   16291   16275   16280   16281   16282   16286   16290   16291   16280
   16282       0   16278   16279   16283   16284   16285   16287   16288   16289
   16292   16293   16294   16279   16283   16284   16285   16283   16284   16285
   16281   16282   16286   16290   16291   16295   16296   16297   16298   16286
   16286   16284   16285   16287   16288   16289   16292   16293   16294   16299
   16300   16301   16285   16287   16288   16289   16287   16288   16289   16290
   16291   16295   16296   16297   16298   16302   16303   16304   16288   16289
   16292   16293   16294   16299   16300   16301   16305   16306   16307   16289
   16292   16293   16294   16292   16293   16294   16291   16295   16296   16297
   16298   16302   16303   16308   16295   16296   16297   16298   16302   16304
   16308   16293   16294   16299   16300   16301   16305   16306   16307   16309
   16310   16311   16294   16299   16300   16301   16299   16300   16301   16296
   16297   16302   16303   16304   16308   16302   16303   16298   16302   16303
   16304   16308   16302   16304   16300   16301   16305   16306   16307   16309
   16310   16311   16312   16313   16314   16301   16305   16306   16307   16305
   16306   16307   16303   16304   16308   16308   16308   16306   16307   16309
   16310   16311   16312   16313   16314   16315   16316   16317   16307   16309
   16310   16311   16309   16310   16311       0   16310   16311   16312   16313
   16314   16311   16312   16313   16314   16312   16313   16314   16315   16316
   16317   16318   16319   16320   16313   16314   16315   16316   16317   16318
   16319   16320   16314   16315   16316   16317   16315   16316   16317   16316
   16317   16318   16319   16320   16317   16318   16319   16320   16318   16319
   16320   16319   16320   16320       0   16322   16323   16324   16325   16326
   16327   16328   16329   16330   16331   16332   16333   16323   16324   16325
   16326   16327   16328   16329   16330   16331   16334   16335   16336   16324
   16325   16326   16327   16328   16331   16332   16333   16334   16336   16337
   16325   16326   16327   16328   16331   16332   16333   16337   16338   16339
   16326   16329   16330   16331   16334   16335   16340   16341   16342   16343
   16327   16328   16329   16330   16331   16332   16334   16336   16340   16328
   16331   16332   16333   16337   16344   16345   16332   16333   16337   16338
   16339   16344   16345   16346   16330   16331   16334   16335   16336   16340
   16341   16342   16343   16347   16348   16349   16334   16335   16334   16335
   16336   16340   16333   16337   16338   16339   16344   16345   16350   16337
   16338   16339   16344   16346   16350   16335   16336   16340   16341   16342
   16343   16340   16341   16342   16343   16347   16348   16349   16351   16352
   16353   16340   16338   16344   16345   16346   16350   16354   16355   16339
   16344   16345   16346   16350   16354   16355   16344   16346       0   16342
   16343   16347   16348   16349   16351   16352   16353   16356   16357   16358
   16343   16347   16348   16349   16347   16348   16349   16345   16346   16350
   16354   16355   16359   16360   16361   16362   16350   16350   16348   16349
   16351   16352   16353   16356   16357   16358   16363   16364   16365   16349
   16351   16352   16353   16351   16352   16353   16354   16355   16359   16360
   16361   16362   16366   16367   16368   16352   16353   16356   16357   16358
   16363   16364   16365   16369   16370   16371   16353   16356   16357   16358
   16356   16357   16358   16355   16359   16360   16361   16362   16366   16367
   16372   16359   16360   16361   16362   16366   16368   16372   16357   16358
   16363   16364   16365   16369   16370   16371   16373   16374   16375   16358
   16363   16364   16365   16363   16364   16365   16360   16361   16366   16367
   16368   16372   16366   16367   16362   16366   16367   16368   16372   16366
   16368   16364   16365   16369   16370   16371   16373   16374   16375   16376
   16377   16378   16365   16369   16370   16371   16369   16370   16371   16367
   16368   16372   16372   16372   16370   16371   16373   16374   16375   16376
   16377   16378   16379   16380   16381   16371   16373   16374   16375   16373
   16374   16375       0   16374   16375   16376   16377   16378   16375   16376
   16377   16378   16376   16377   16378   16379   16380   16381   16382   16383
   16384   16377   16378   16379   16380   16381   16382   16383   16384   16378
   16379   16380   16381   16379   16380   16381   16380   16381   16382   16383
   16384   16381   16382   16383   16384   16382   16383   16384   16383   16384
   16384       0   16386   16387   16388   16389   16390   16391   16392   16393
   16394   16395   16396   16397   16387   16388   16389   16390   16391   16392
   16393   16394   16395   16398   16399   16400   16388   16389   16390   16391
   16392   16395   16396   16397   16398   16400   16401   16389   16390   16391
   16392   16395   16396   16397   16401   16402   16403   16390   16393   16394
   16395   16398   16399   16404   16405   16406   16407   16391   16392   16393
   16394   16395   16396   16398   16400   16404   16392   16395   16396   16397
   16401   16408   16409   16396   16397   16401   16402   16403   16408   16409
   16410   16394   16395   16398   16399   16400   16404   16405   16406   16407
   16411   16412   16413   16398   16399   16398   16399   16400   16404   16397
   16401   16402   16403   16408   16409   16414   16401   16402   16403   16408
   16410   16414   16399   16400   16404   16405   16406   16407   16404   16405
   16406   16407   16411   16412   16413   16415   16416   16417   16404   16402
   16408   16409   16410   16414   16418   16419   16403   16408   16409   16410
   16414   16418   16419   16408   16410       0   16406   16407   16411   16412
   16413   16415   16416   16417   16420   16421   16422   16407   16411   16412
   16413   16411   16412   16413   16409   16410   16414   16418   16419   16423
   16424   16425   16426   16414   16414   16412   16413   16415   16416   16417
   16420   16421   16422   16427   16428   16429   16413   16415   16416   16417
   16415   16416   16417   16418   16419   16423   16424   16425   16426   16430
   16431   16432   16416   16417   16420   16421   16422   16427   16428   16429
   16433   16434   16435   16417   16420   16421   16422   16420   16421   16422
   16419   16423   16424   16425   16426   16430   16431   16436   16423   16424
   16425   16426   16430   16432   16436   16421   16422   16427   16428   16429
   16433   16434   16435   16437   16438   16439   16422   16427   16428   16429
   16427   16428   16429   16424   16425   16430   16431   16432   16436   16430
   16431   16426   16430   16431   16432   16436   16430   16432   16428   16429
   16433   16434   16435   16437   16438   16439   16440   16441   16442   16429
   16433   16434   16435   16433   16434   16435   16431   16432   16436   16436
   16436   16434   16435   16437   16438   16439   16440   16441   16442   16443
   16444   16445   16435   16437   16438   16439   16437   16438   16439       0
   16438   16439   16440   16441   16442   16439   16440   16441   16442   16440
   16441   16442   16443   16444   16445   16446   16447   16448   16441   16442
   16443   16444   16445   16446   16447   16448   16442   16443   16444   16445
   16443   16444   16445   16444   16445   16446   16447   16448   16445   16446
   16447   16448   16446   16447   16448   16447   16448   16448       0   16450
   16451   16452   16453   16454   16455   16456   16457   16458   16459   16460
   16461   16451   16452   16453   16454   16455   16456   16457   16458   16459
   16462   16463   16464   16452   16453   16454   16455   16456   16459   16460
   16461   16462   16464   16465   16453   16454   16455   16456   16459   16460
   16461   16465   16466   16467   16454   16457   16458   16459   16462   16463
   16468   16469   16470   16471   16455   16456   16457   16458   16459   16460
   16462   16464   16468   16456   16459   16460   16461   16465   16472   16473
   16460   16461   16465   16466   16467   16472   16473   16474   16458   16459
   16462   16463   16464   16468   16469   16470   16471   16475   16476   16477
   16462   16463   16462   16463   16464   16468   16461   16465   16466   16467
   16472   16473   16478   16465   16466   16467   16472   16474   16478   16463
   16464   16468   16469   16470   16471   16468   16469   16470   16471   16475
   16476   16477   16479   16480   16481   16468   16466   16472   16473   16474
   16478   16482   16483   16467   16472   16473   16474   16478   16482   16483
   16472   16474       0   16470   16471   16475   16476   16477   16479   16480
   16481   16484   16485   16486   16471   16475   16476   16477   16475   16476
   16477   16473   16474   16478   16482   16483   16487   16488   16489   16490
   16478   16478   16476   16477   16479   16480   16481   16484   16485   16486
   16491   16492   16493   16477   16479   16480   16481   16479   16480   16481
   16482   16483   16487   16488   16489   16490   16494   16495   16496   16480
   16481   16484   16485   16486   16491   16492   16493   16497   16498   16499
   16481   16484   16485   16486   16484   16485   16486   16483   16487   16488
   16489   16490   16494   16495   16500   16487   16488   16489   16490   16494
   16496   16500   16485   16486   16491   16492   16493   16497   16498   16499
   16501   16502   16503   16486   16491   16492   16493   16491   16492   16493
   16488   16489   16494   16495   16496   16500   16494   16495   16490   16494
   16495   16496   16500   16494   16496   16492   16493   16497   16498   16499
   16501   16502   16503   16504   16505   16506   16493   16497   16498   16499
   16497   16498   16499   16495   16496   16500   16500   16500   16498   16499
   16501   16502   16503   16504   16505   16506   16507   16508   16509   16499
   16501   16502   16503   16501   16502   16503       0   16502   16503   16504
   16505   16506   16503   16504   16505   16506   16504   16505   16506   16507
   16508   16509   16510   16511   16512   16505   16506   16507   16508   16509
   16510   16511   16512   16506   16507   16508   16509   16507   16508   16509
   16508   16509   16510   16511   16512   16509   16510   16511   16512   16510
   16511   16512   16511   16512   16512       0   16514   16515   16516   16517
   16518   16519   16520   16521   16522   16523   16524   16525   16515   16516
   16517   16518   16519   16520   16521   16522   16523   16526   16527   16528
   16516   16517   16518   16519   16520   16523   16524   16525   16526   16528
   16529   16517   16518   16519   16520   16523   16524   16525   16529   16530
   16531   16518   16521   16522   16523   16526   16527   16532   16533   16534
   16535   16519   16520   16521   16522   16523   16524   16526   16528   16532
   16520   16523   16524   16525   16529   16536   16537   16524   16525   16529
   16530   16531   16536   16537   16538   16522   16523   16526   16527   16528
   16532   16533   16534   16535   16539   16540   16541   16526   16527   16526
   16527   16528   16532   16525   16529   16530   16531   16536   16537   16542
   16529   16530   16531   16536   16538   16542   16527   16528   16532   16533
   16534   16535   16532   16533   16534   16535   16539   16540   16541   16543
   16544   16545   16532   16530   16536   16537   16538   16542   16546   16547
   16531   16536   16537   16538   16542   16546   16547   16536   16538       0
   16534   16535   16539   16540   16541   16543   16544   16545   16548   16549
   16550   16535   16539   16540   16541   16539   16540   16541   16537   16538
   16542   16546   16547   16551   16552   16553   16554   16542   16542   16540
   16541   16543   16544   16545   16548   16549   16550   16555   16556   16557
   16541   16543   16544   16545   16543   16544   16545   16546   16547   16551
   16552   16553   16554   16558   16559   16560   16544   16545   16548   16549
   16550   16555   16556   16557   16561   16562   16563   16545   16548   16549
   16550   16548   16549   16550   16547   16551   16552   16553   16554   16558
   16559   16564   16551   16552   16553   16554   16558   16560   16564   16549
   16550   16555   16556   16557   16561   16562   16563   16565   16566   16567
   16550   16555   16556   16557   16555   16556   16557   16552   16553   16558
   16559   16560   16564   16558   16559   16554   16558   16559   16560   16564
   16558   16560   16556   16557   16561   16562   16563   16565   16566   16567
   16568   16569   16570   16557   16561   16562   16563   16561   16562   16563
   16559   16560   16564   16564   16564   16562   16563   16565   16566   16567
   16568   16569   16570   16571   16572   16573   16563   16565   16566   16567
   16565   16566   16567       0   16566   16567   16568   16569   16570   16567
   16568   16569   16570   16568   16569   16570   16571   16572   16573   16574
   16575   16576   16569   16570   16571   16572   16573   16574   16575   16576
   16570   16571   16572   16573   16571   16572   16573   16572   16573   16574
   16575   16576   16573   16574   16575   16576   16574   16575   16576   16575
   16576   16576       0   16578   16579   16580   16581   16582   16583   16584
   16585   16586   16587   16588   16589   16579   16580   16581   16582   16583
   16584   16585   16586   16587   16590   16591   16592   16580   16581   16582
   16583   16584   16587   16588   16589   16590   16592   16593   16581   16582
   16583   16584   16587   16588   16589   16593   16594   16595   16582   16585
   16586   16587   16590   16591   16596   16597   16598   16599   16583   16584
   16585   16586   16587   16588   16590   16592   16596   16584   16587   16588
   16589   16593   16600   16601   16588   16589   16593   16594   16595   16600
   16601   16602   16586   16587   16590   16591   16592   16596   16597   16598
   16599   16603   16604   16605   16590   16591   16590   16591   16592   16596
   16589   16593   16594   16595   16600   16601   16606   16593   16594   16595
   16600   16602   16606   16591   16592   16596   16597   16598   16599   16596
   16597   16598   16599   16603   16604   16605   16607   16608   16609   16596
   16594   16600   16601   16602   16606   16610   16611   16595   16600   16601
   16602   16606   16610   16611   16600   16602       0   16598   16599   16603
   16604   16605   16607   16608   16609   16612   16613   16614   16599   16603
   16604   16605   16603   16604   16605   16601   16602   16606   16610   16611
   16615   16616   16617   16618   16606   16606   16604   16605   16607   16608
   16609   16612   16613   16614   16619   16620   16621   16605   16607   16608
   16609   16607   16608   16609   16610   16611   16615   16616   16617   16618
   16622   16623   16624   16608   16609   16612   16613   16614   16619   16620
   16621   16625   16626   16627   16609   16612   16613   16614   16612   16613
   16614   16611   16615   16616   16617   16618   16622   16623   16628   16615
   16616   16617   16618   16622   16624   16628   16613   16614   16619   16620
   16621   16625   16626   16627   16629   16630   16631   16614   16619   16620
   16621   16619   16620   16621   16616   16617   16622   16623   16624   16628
   16622   16623   16618   16622   16623   16624   16628   16622   16624   16620
   16621   16625   16626   16627   16629   16630   16631   16632   16633   16634
   16621   16625   16626   16627   16625   16626   16627   16623   16624   16628
   16628   16628   16626   16627   16629   16630   16631   16632   16633   16634
   16635   16636   16637   16627   16629   16630   16631   16629   16630   16631
       0   16630   16631   16632   16633   16634   16631   16632   16633   16634
   16632   16633   16634   16635   16636   16637   16638   16639   16640   16633
   16634   16635   16636   16637   16638   16639   16640   16634   16635   16636
   16637   16635   16636   16637   16636   16637   16638   16639   16640   16637
   16638   16639   16640   16638   16639   16640   16639   16640   16640       0
   16642   16643   16644   16645   16646   16647   16648   16649   16650   16651
   16652   16653   16643   16644   16645   16646   16647   16648   16649   16650
   16651   16654   16655   16656   16644   16645   16646   16647   16648   16651
   16652   16653   16654   16656   16657   16645   16646   16647   16648   16651
   16652   16653   16657   16658   16659   16646   16649   16650   16651   16654
   16655   16660   16661   16662   16663   16647   16648   16649   16650   16651
   16652   16654   16656   16660   16648   16651   16652   16653   16657   16664
   16665   16652   16653   16657   16658   16659   16664   16665   16666   16650
   16651   16654   16655   16656   16660   16661   16662   16663   16667   16668
   16669   16654   16655   16654   16655   16656   16660   16653   16657   16658
   16659   16664   16665   16670   16657   16658   16659   16664   16666   16670
   16655   16656   16660   16661   16662   16663   16660   16661   16662   16663
   16667   16668   16669   16671   16672   16673   16660   16658   16664   16665
   16666   16670   16674   16675   16659   16664   16665   16666   16670   16674
   16675   16664   16666       0   16662   16663   16667   16668   16669   16671
   16672   16673   16676   16677   16678   16663   16667   16668   16669   16667
   16668   16669   16665   16666   16670   16674   16675   16679   16680   16681
   16682   16670   16670   16668   16669   16671   16672   16673   16676   16677
   16678   16683   16684   16685   16669   16671   16672   16673   16671   16672
   16673   16674   16675   16679   16680   16681   16682   16686   16687   16688
   16672   16673   16676   16677   16678   16683   16684   16685   16689   16690
   16691   16673   16676   16677   16678   16676   16677   16678   16675   16679
   16680   16681   16682   16686   16687   16692   16679   16680   16681   16682
   16686   16688   16692   16677   16678   16683   16684   16685   16689   16690
   16691   16693   16694   16695   16678   16683   16684   16685   16683   16684
   16685   16680   16681   16686   16687   16688   16692   16686   16687   16682
   16686   16687   16688   16692   16686   16688   16684   16685   16689   16690
   16691   16693   16694   16695   16696   16697   16698   16685   16689   16690
   16691   16689   16690   16691   16687   16688   16692   16692   16692   16690
   16691   16693   16694   16695   16696   16697   16698   16699   16700   16701
   16691   16693   16694   16695   16693   16694   16695       0   16694   16695
   16696   16697   16698   16695   16696   16697   16698   16696   16697   16698
   16699   16700   16701   16702   16703   16704   16697   16698   16699   16700
   16701   16702   16703   16704   16698   16699   16700   16701   16699   16700
   16701   16700   16701   16702   16703   16704   16701   16702   16703   16704
   16702   16703   16704   16703   16704   16704       0   16706   16707   16708
   16709   16710   16711   16712   16713   16714   16715   16716   16717   16707
   16708   16709   16710   16711   16712   16713   16714   16715   16718   16719
   16720   16708   16709   16710   16711   16712   16715   16716   16717   16718
   16720   16721   16709   16710   16711   16712   16715   16716   16717   16721
   16722   16723   16710   16713   16714   16715   16718   16719   16724   16725
   16726   16727   16711   16712   16713   16714   16715   16716   16718   16720
   16724   16712   16715   16716   16717   16721   16728   16729   16716   16717
   16721   16722   16723   16728   16729   16730   16714   16715   16718   16719
   16720   16724   16725   16726   16727   16731   16732   16733   16718   16719
   16718   16719   16720   16724   16717   16721   16722   16723   16728   16729
   16734   16721   16722   16723   16728   16730   16734   16719   16720   16724
   16725   16726   16727   16724   16725   16726   16727   16731   16732   16733
   16735   16736   16737   16724   16722   16728   16729   16730   16734   16738
   16739   16723   16728   16729   16730   16734   16738   16739   16728   16730
       0   16726   16727   16731   16732   16733   16735   16736   16737   16740
   16741   16742   16727   16731   16732   16733   16731   16732   16733   16729
   16730   16734   16738   16739   16743   16744   16745   16746   16734   16734
   16732   16733   16735   16736   16737   16740   16741   16742   16747   16748
   16749   16733   16735   16736   16737   16735   16736   16737   16738   16739
   16743   16744   16745   16746   16750   16751   16752   16736   16737   16740
   16741   16742   16747   16748   16749   16753   16754   16755   16737   16740
   16741   16742   16740   16741   16742   16739   16743   16744   16745   16746
   16750   16751   16756   16743   16744   16745   16746   16750   16752   16756
   16741   16742   16747   16748   16749   16753   16754   16755   16757   16758
   16759   16742   16747   16748   16749   16747   16748   16749   16744   16745
   16750   16751   16752   16756   16750   16751   16746   16750   16751   16752
   16756   16750   16752   16748   16749   16753   16754   16755   16757   16758
   16759   16760   16761   16762   16749   16753   16754   16755   16753   16754
   16755   16751   16752   16756   16756   16756   16754   16755   16757   16758
   16759   16760   16761   16762   16763   16764   16765   16755   16757   16758
   16759   16757   16758   16759       0   16758   16759   16760   16761   16762
   16759   16760   16761   16762   16760   16761   16762   16763   16764   16765
   16766   16767   16768   16761   16762   16763   16764   16765   16766   16767
   16768   16762   16763   16764   16765   16763   16764   16765   16764   16765
   16766   16767   16768   16765   16766   16767   16768   16766   16767   16768
   16767   16768   16768       0   16770   16771   16772   16773   16774   16775
   16776   16777   16778   16779   16780   16781   16771   16772   16773   16774
   16775   16776   16777   16778   16779   16782   16783   16784   16772   16773
   16774   16775   16776   16779   16780   16781   16782   16784   16785   16773
   16774   16775   16776   16779   16780   16781   16785   16786   16787   16774
   16777   16778   16779   16782   16783   16788   16789   16790   16791   16775
   16776   16777   16778   16779   16780   16782   16784   16788   16776   16779
   16780   16781   16785   16792   16793   16780   16781   16785   16786   16787
   16792   16793   16794   16778   16779   16782   16783   16784   16788   16789
   16790   16791   16795   16796   16797   16782   16783   16782   16783   16784
   16788   16781   16785   16786   16787   16792   16793   16798   16785   16786
   16787   16792   16794   16798   16783   16784   16788   16789   16790   16791
   16788   16789   16790   16791   16795   16796   16797   16799   16800   16801
   16788   16786   16792   16793   16794   16798   16802   16803   16787   16792
   16793   16794   16798   16802   16803   16792   16794       0   16790   16791
   16795   16796   16797   16799   16800   16801   16804   16805   16806   16791
   16795   16796   16797   16795   16796   16797   16793   16794   16798   16802
   16803   16807   16808   16809   16810   16798   16798   16796   16797   16799
   16800   16801   16804   16805   16806   16811   16812   16813   16797   16799
   16800   16801   16799   16800   16801   16802   16803   16807   16808   16809
   16810   16814   16815   16816   16800   16801   16804   16805   16806   16811
   16812   16813   16817   16818   16819   16801   16804   16805   16806   16804
   16805   16806   16803   16807   16808   16809   16810   16814   16815   16820
   16807   16808   16809   16810   16814   16816   16820   16805   16806   16811
   16812   16813   16817   16818   16819   16821   16822   16823   16806   16811
   16812   16813   16811   16812   16813   16808   16809   16814   16815   16816
   16820   16814   16815   16810   16814   16815   16816   16820   16814   16816
   16812   16813   16817   16818   16819   16821   16822   16823   16824   16825
   16826   16813   16817   16818   16819   16817   16818   16819   16815   16816
   16820   16820   16820   16818   16819   16821   16822   16823   16824   16825
   16826   16827   16828   16829   16819   16821   16822   16823   16821   16822
   16823       0   16822   16823   16824   16825   16826   16823   16824   16825
   16826   16824   16825   16826   16827   16828   16829   16830   16831   16832
   16825   16826   16827   16828   16829   16830   16831   16832   16826   16827
   16828   16829   16827   16828   16829   16828   16829   16830   16831   16832
   16829   16830   16831   16832   16830   16831   16832   16831   16832   16832
       0   16834   16835   16836   16837   16838   16839   16840   16841   16842
   16843   16844   16845   16835   16836   16837   16838   16839   16840   16841
   16842   16843   16846   16847   16848   16836   16837   16838   16839   16840
   16843   16844   16845   16846   16848   16849   16837   16838   16839   16840
   16843   16844   16845   16849   16850   16851   16838   16841   16842   16843
   16846   16847   16852   16853   16854   16855   16839   16840   16841   16842
   16843   16844   16846   16848   16852   16840   16843   16844   16845   16849
   16856   16857   16844   16845   16849   16850   16851   16856   16857   16858
   16842   16843   16846   16847   16848   16852   16853   16854   16855   16859
   16860   16861   16846   16847   16846   16847   16848   16852   16845   16849
   16850   16851   16856   16857   16862   16849   16850   16851   16856   16858
   16862   16847   16848   16852   16853   16854   16855   16852   16853   16854
   16855   16859   16860   16861   16863   16864   16865   16852   16850   16856
   16857   16858   16862   16866   16867   16851   16856   16857   16858   16862
   16866   16867   16856   16858       0   16854   16855   16859   16860   16861
   16863   16864   16865   16868   16869   16870   16855   16859   16860   16861
   16859   16860   16861   16857   16858   16862   16866   16867   16871   16872
   16873   16874   16862   16862   16860   16861   16863   16864   16865   16868
   16869   16870   16875   16876   16877   16861   16863   16864   16865   16863
   16864   16865   16866   16867   16871   16872   16873   16874   16878   16879
   16880   16864   16865   16868   16869   16870   16875   16876   16877   16881
   16882   16883   16865   16868   16869   16870   16868   16869   16870   16867
   16871   16872   16873   16874   16878   16879   16884   16871   16872   16873
   16874   16878   16880   16884   16869   16870   16875   16876   16877   16881
   16882   16883   16885   16886   16887   16870   16875   16876   16877   16875
   16876   16877   16872   16873   16878   16879   16880   16884   16878   16879
   16874   16878   16879   16880   16884   16878   16880   16876   16877   16881
   16882   16883   16885   16886   16887   16888   16889   16890   16877   16881
   16882   16883   16881   16882   16883   16879   16880   16884   16884   16884
   16882   16883   16885   16886   16887   16888   16889   16890   16891   16892
   16893   16883   16885   16886   16887   16885   16886   16887       0   16886
   16887   16888   16889   16890   16887   16888   16889   16890   16888   16889
   16890   16891   16892   16893   16894   16895   16896   16889   16890   16891
   16892   16893   16894   16895   16896   16890   16891   16892   16893   16891
   16892   16893   16892   16893   16894   16895   16896   16893   16894   16895
   16896   16894   16895   16896   16895   16896   16896       0   16898   16899
   16900   16901   16902   16903   16904   16905   16906   16907   16908   16909
   16899   16900   16901   16902   16903   16904   16905   16906   16907   16910
   16911   16912   16900   16901   16902   16903   16904   16907   16908   16909
   16910   16912   16913   16901   16902   16903   16904   16907   16908   16909
   16913   16914   16915   16902   16905   16906   16907   16910   16911   16916
   16917   16918   16919   16903   16904   16905   16906   16907   16908   16910
   16912   16916   16904   16907   16908   16909   16913   16920   16921   16908
   16909   16913   16914   16915   16920   16921   16922   16906   16907   16910
   16911   16912   16916   16917   16918   16919   16923   16924   16925   16910
   16911   16910   16911   16912   16916   16909   16913   16914   16915   16920
   16921   16926   16913   16914   16915   16920   16922   16926   16911   16912
   16916   16917   16918   16919   16916   16917   16918   16919   16923   16924
   16925   16927   16928   16929   16916   16914   16920   16921   16922   16926
   16930   16931   16915   16920   16921   16922   16926   16930   16931   16920
   16922       0   16918   16919   16923   16924   16925   16927   16928   16929
   16932   16933   16934   16919   16923   16924   16925   16923   16924   16925
   16921   16922   16926   16930   16931   16935   16936   16937   16938   16926
   16926   16924   16925   16927   16928   16929   16932   16933   16934   16939
   16940   16941   16925   16927   16928   16929   16927   16928   16929   16930
   16931   16935   16936   16937   16938   16942   16943   16944   16928   16929
   16932   16933   16934   16939   16940   16941   16945   16946   16947   16929
   16932   16933   16934   16932   16933   16934   16931   16935   16936   16937
   16938   16942   16943   16948   16935   16936   16937   16938   16942   16944
   16948   16933   16934   16939   16940   16941   16945   16946   16947   16949
   16950   16951   16934   16939   16940   16941   16939   16940   16941   16936
   16937   16942   16943   16944   16948   16942   16943   16938   16942   16943
   16944   16948   16942   16944   16940   16941   16945   16946   16947   16949
   16950   16951   16952   16953   16954   16941   16945   16946   16947   16945
   16946   16947   16943   16944   16948   16948   16948   16946   16947   16949
   16950   16951   16952   16953   16954   16955   16956   16957   16947   16949
   16950   16951   16949   16950   16951       0   16950   16951   16952   16953
   16954   16951   16952   16953   16954   16952   16953   16954   16955   16956
   16957   16958   16959   16960   16953   16954   16955   16956   16957   16958
   16959   16960   16954   16955   16956   16957   16955   16956   16957   16956
   16957   16958   16959   16960   16957   16958   16959   16960   16958   16959
   16960   16959   16960   16960       0   16962   16963   16964   16965   16966
   16967   16968   16969   16970   16971   16972   16973   16963   16964   16965
   16966   16967   16968   16969   16970   16971   16974   16975   16976   16964
   16965   16966   16967   16968   16971   16972   16973   16974   16976   16977
   16965   16966   16967   16968   16971   16972   16973   16977   16978   16979
   16966   16969   16970   16971   16974   16975   16980   16981   16982   16983
   16967   16968   16969   16970   16971   16972   16974   16976   16980   16968
   16971   16972   16973   16977   16984   16985   16972   16973   16977   16978
   16979   16984   16985   16986   16970   16971   16974   16975   16976   16980
   16981   16982   16983   16987   16988   16989   16974   16975   16974   16975
   16976   16980   16973   16977   16978   16979   16984   16985   16990   16977
   16978   16979   16984   16986   16990   16975   16976   16980   16981   16982
   16983   16980   16981   16982   16983   16987   16988   16989   16991   16992
   16993   16980   16978   16984   16985   16986   16990   16994   16995   16979
   16984   16985   16986   16990   16994   16995   16984   16986       0   16982
   16983   16987   16988   16989   16991   16992   16993   16996   16997   16998
   16983   16987   16988   16989   16987   16988   16989   16985   16986   16990
   16994   16995   16999   17000   17001   17002   16990   16990   16988   16989
   16991   16992   16993   16996   16997   16998   17003   17004   17005   16989
   16991   16992   16993   16991   16992   16993   16994   16995   16999   17000
   17001   17002   17006   17007   17008   16992   16993   16996   16997   16998
   17003   17004   17005   17009   17010   17011   16993   16996   16997   16998
   16996   16997   16998   16995   16999   17000   17001   17002   17006   17007
   17012   16999   17000   17001   17002   17006   17008   17012   16997   16998
   17003   17004   17005   17009   17010   17011   17013   17014   17015   16998
   17003   17004   17005   17003   17004   17005   17000   17001   17006   17007
   17008   17012   17006   17007   17002   17006   17007   17008   17012   17006
   17008   17004   17005   17009   17010   17011   17013   17014   17015   17016
   17017   17018   17005   17009   17010   17011   17009   17010   17011   17007
   17008   17012   17012   17012   17010   17011   17013   17014   17015   17016
   17017   17018   17019   17020   17021   17011   17013   17014   17015   17013
   17014   17015       0   17014   17015   17016   17017   17018   17015   17016
   17017   17018   17016   17017   17018   17019   17020   17021   17022   17023
   17024   17017   17018   17019   17020   17021   17022   17023   17024   17018
   17019   17020   17021   17019   17020   17021   17020   17021   17022   17023
   17024   17021   17022   17023   17024   17022   17023   17024   17023   17024
   17024       0   17026   17027   17028   17029   17030   17031   17032   17033
   17034   17035   17036   17037   17027   17028   17029   17030   17031   17032
   17033   17034   17035   17038   17039   17040   17028   17029   17030   17031
   17032   17035   17036   17037   17038   17040   17041   17029   17030   17031
   17032   17035   17036   17037   17041   17042   17043   17030   17033   17034
   17035   17038   17039   17044   17045   17046   17047   17031   17032   17033
   17034   17035   17036   17038   17040   17044   17032   17035   17036   17037
   17041   17048   17049   17036   17037   17041   17042   17043   17048   17049
   17050   17034   17035   17038   17039   17040   17044   17045   17046   17047
   17051   17052   17053   17038   17039   17038   17039   17040   17044   17037
   17041   17042   17043   17048   17049   17054   17041   17042   17043   17048
   17050   17054   17039   17040   17044   17045   17046   17047   17044   17045
   17046   17047   17051   17052   17053   17055   17056   17057   17044   17042
   17048   17049   17050   17054   17058   17059   17043   17048   17049   17050
   17054   17058   17059   17048   17050       0   17046   17047   17051   17052
   17053   17055   17056   17057   17060   17061   17062   17047   17051   17052
   17053   17051   17052   17053   17049   17050   17054   17058   17059   17063
   17064   17065   17066   17054   17054   17052   17053   17055   17056   17057
   17060   17061   17062   17067   17068   17069   17053   17055   17056   17057
   17055   17056   17057   17058   17059   17063   17064   17065   17066   17070
   17071   17072   17056   17057   17060   17061   17062   17067   17068   17069
   17073   17074   17075   17057   17060   17061   17062   17060   17061   17062
   17059   17063   17064   17065   17066   17070   17071   17076   17063   17064
   17065   17066   17070   17072   17076   17061   17062   17067   17068   17069
   17073   17074   17075   17077   17078   17079   17062   17067   17068   17069
   17067   17068   17069   17064   17065   17070   17071   17072   17076   17070
   17071   17066   17070   17071   17072   17076   17070   17072   17068   17069
   17073   17074   17075   17077   17078   17079   17080   17081   17082   17069
   17073   17074   17075   17073   17074   17075   17071   17072   17076   17076
   17076   17074   17075   17077   17078   17079   17080   17081   17082   17083
   17084   17085   17075   17077   17078   17079   17077   17078   17079       0
   17078   17079   17080   17081   17082   17079   17080   17081   17082   17080
   17081   17082   17083   17084   17085   17086   17087   17088   17081   17082
   17083   17084   17085   17086   17087   17088   17082   17083   17084   17085
   17083   17084   17085   17084   17085   17086   17087   17088   17085   17086
   17087   17088   17086   17087   17088   17087   17088   17088       0   17090
   17091   17092   17093   17094   17095   17096   17097   17098   17099   17100
   17101   17091   17092   17093   17094   17095   17096   17097   17098   17099
   17102   17103   17104   17092   17093   17094   17095   17096   17099   17100
   17101   17102   17104   17105   17093   17094   17095   17096   17099   17100
   17101   17105   17106   17107   17094   17097   17098   17099   17102   17103
   17108   17109   17110   17111   17095   17096   17097   17098   17099   17100
   17102   17104   17108   17096   17099   17100   17101   17105   17112   17113
   17100   17101   17105   17106   17107   17112   17113   17114   17098   17099
   17102   17103   17104   17108   17109   17110   17111   17115   17116   17117
   17102   17103   17102   17103   17104   17108   17101   17105   17106   17107
   17112   17113   17118   17105   17106   17107   17112   17114   17118   17103
   17104   17108   17109   17110   17111   17108   17109   17110   17111   17115
   17116   17117   17119   17120   17121   17108   17106   17112   17113   17114
   17118   17122   17123   17107   17112   17113   17114   17118   17122   17123
   17112   17114       0   17110   17111   17115   17116   17117   17119   17120
   17121   17124   17125   17126   17111   17115   17116   17117   17115   17116
   17117   17113   17114   17118   17122   17123   17127   17128   17129   17130
   17118   17118   17116   17117   17119   17120   17121   17124   17125   17126
   17131   17132   17133   17117   17119   17120   17121   17119   17120   17121
   17122   17123   17127   17128   17129   17130   17134   17135   17136   17120
   17121   17124   17125   17126   17131   17132   17133   17137   17138   17139
   17121   17124   17125   17126   17124   17125   17126   17123   17127   17128
   17129   17130   17134   17135   17140   17127   17128   17129   17130   17134
   17136   17140   17125   17126   17131   17132   17133   17137   17138   17139
   17141   17142   17143   17126   17131   17132   17133   17131   17132   17133
   17128   17129   17134   17135   17136   17140   17134   17135   17130   17134
   17135   17136   17140   17134   17136   17132   17133   17137   17138   17139
   17141   17142   17143   17144   17145   17146   17133   17137   17138   17139
   17137   17138   17139   17135   17136   17140   17140   17140   17138   17139
   17141   17142   17143   17144   17145   17146   17147   17148   17149   17139
   17141   17142   17143   17141   17142   17143       0   17142   17143   17144
   17145   17146   17143   17144   17145   17146   17144   17145   17146   17147
   17148   17149   17150   17151   17152   17145   17146   17147   17148   17149
   17150   17151   17152   17146   17147   17148   17149   17147   17148   17149
   17148   17149   17150   17151   17152   17149   17150   17151   17152   17150
   17151   17152   17151   17152   17152       0   17154   17155   17156   17157
   17158   17159   17160   17161   17162   17163   17164   17165   17155   17156
   17157   17158   17159   17160   17161   17162   17163   17166   17167   17168
   17156   17157   17158   17159   17160   17163   17164   17165   17166   17168
   17169   17157   17158   17159   17160   17163   17164   17165   17169   17170
   17171   17158   17161   17162   17163   17166   17167   17172   17173   17174
   17175   17159   17160   17161   17162   17163   17164   17166   17168   17172
   17160   17163   17164   17165   17169   17176   17177   17164   17165   17169
   17170   17171   17176   17177   17178   17162   17163   17166   17167   17168
   17172   17173   17174   17175   17179   17180   17181   17166   17167   17166
   17167   17168   17172   17165   17169   17170   17171   17176   17177   17182
   17169   17170   17171   17176   17178   17182   17167   17168   17172   17173
   17174   17175   17172   17173   17174   17175   17179   17180   17181   17183
   17184   17185   17172   17170   17176   17177   17178   17182   17186   17187
   17171   17176   17177   17178   17182   17186   17187   17176   17178       0
   17174   17175   17179   17180   17181   17183   17184   17185   17188   17189
   17190   17175   17179   17180   17181   17179   17180   17181   17177   17178
   17182   17186   17187   17191   17192   17193   17194   17182   17182   17180
   17181   17183   17184   17185   17188   17189   17190   17195   17196   17197
   17181   17183   17184   17185   17183   17184   17185   17186   17187   17191
   17192   17193   17194   17198   17199   17200   17184   17185   17188   17189
   17190   17195   17196   17197   17201   17202   17203   17185   17188   17189
   17190   17188   17189   17190   17187   17191   17192   17193   17194   17198
   17199   17204   17191   17192   17193   17194   17198   17200   17204   17189
   17190   17195   17196   17197   17201   17202   17203   17205   17206   17207
   17190   17195   17196   17197   17195   17196   17197   17192   17193   17198
   17199   17200   17204   17198   17199   17194   17198   17199   17200   17204
   17198   17200   17196   17197   17201   17202   17203   17205   17206   17207
   17208   17209   17210   17197   17201   17202   17203   17201   17202   17203
   17199   17200   17204   17204   17204   17202   17203   17205   17206   17207
   17208   17209   17210   17211   17212   17213   17203   17205   17206   17207
   17205   17206   17207       0   17206   17207   17208   17209   17210   17207
   17208   17209   17210   17208   17209   17210   17211   17212   17213   17214
   17215   17216   17209   17210   17211   17212   17213   17214   17215   17216
   17210   17211   17212   17213   17211   17212   17213   17212   17213   17214
   17215   17216   17213   17214   17215   17216   17214   17215   17216   17215
   17216   17216       0   17218   17219   17220   17221   17222   17223   17224
   17225   17226   17227   17228   17229   17219   17220   17221   17222   17223
   17224   17225   17226   17227   17230   17231   17232   17220   17221   17222
   17223   17224   17227   17228   17229   17230   17232   17233   17221   17222
   17223   17224   17227   17228   17229   17233   17234   17235   17222   17225
   17226   17227   17230   17231   17236   17237   17238   17239   17223   17224
   17225   17226   17227   17228   17230   17232   17236   17224   17227   17228
   17229   17233   17240   17241   17228   17229   17233   17234   17235   17240
   17241   17242   17226   17227   17230   17231   17232   17236   17237   17238
   17239   17243   17244   17245   17230   17231   17230   17231   17232   17236
   17229   17233   17234   17235   17240   17241   17246   17233   17234   17235
   17240   17242   17246   17231   17232   17236   17237   17238   17239   17236
   17237   17238   17239   17243   17244   17245   17247   17248   17249   17236
   17234   17240   17241   17242   17246   17250   17251   17235   17240   17241
   17242   17246   17250   17251   17240   17242       0   17238   17239   17243
   17244   17245   17247   17248   17249   17252   17253   17254   17239   17243
   17244   17245   17243   17244   17245   17241   17242   17246   17250   17251
   17255   17256   17257   17258   17246   17246   17244   17245   17247   17248
   17249   17252   17253   17254   17259   17260   17261   17245   17247   17248
   17249   17247   17248   17249   17250   17251   17255   17256   17257   17258
   17262   17263   17264   17248   17249   17252   17253   17254   17259   17260
   17261   17265   17266   17267   17249   17252   17253   17254   17252   17253
   17254   17251   17255   17256   17257   17258   17262   17263   17268   17255
   17256   17257   17258   17262   17264   17268   17253   17254   17259   17260
   17261   17265   17266   17267   17269   17270   17271   17254   17259   17260
   17261   17259   17260   17261   17256   17257   17262   17263   17264   17268
   17262   17263   17258   17262   17263   17264   17268   17262   17264   17260
   17261   17265   17266   17267   17269   17270   17271   17272   17273   17274
   17261   17265   17266   17267   17265   17266   17267   17263   17264   17268
   17268   17268   17266   17267   17269   17270   17271   17272   17273   17274
   17275   17276   17277   17267   17269   17270   17271   17269   17270   17271
       0   17270   17271   17272   17273   17274   17271   17272   17273   17274
   17272   17273   17274   17275   17276   17277   17278   17279   17280   17273
   17274   17275   17276   17277   17278   17279   17280   17274   17275   17276
   17277   17275   17276   17277   17276   17277   17278   17279   17280   17277
   17278   17279   17280   17278   17279   17280   17279   17280   17280       0
   17282   17283   17284   17285   17286   17287   17288   17289   17290   17291
   17292   17293   17283   17284   17285   17286   17287   17288   17289   17290
   17291   17294   17295   17296   17284   17285   17286   17287   17288   17291
   17292   17293   17294   17296   17297   17285   17286   17287   17288   17291
   17292   17293   17297   17298   17299   17286   17289   17290   17291   17294
   17295   17300   17301   17302   17303   17287   17288   17289   17290   17291
   17292   17294   17296   17300   17288   17291   17292   17293   17297   17304
   17305   17292   17293   17297   17298   17299   17304   17305   17306   17290
   17291   17294   17295   17296   17300   17301   17302   17303   17307   17308
   17309   17294   17295   17294   17295   17296   17300   17293   17297   17298
   17299   17304   17305   17310   17297   17298   17299   17304   17306   17310
   17295   17296   17300   17301   17302   17303   17300   17301   17302   17303
   17307   17308   17309   17311   17312   17313   17300   17298   17304   17305
   17306   17310   17314   17315   17299   17304   17305   17306   17310   17314
   17315   17304   17306       0   17302   17303   17307   17308   17309   17311
   17312   17313   17316   17317   17318   17303   17307   17308   17309   17307
   17308   17309   17305   17306   17310   17314   17315   17319   17320   17321
   17322   17310   17310   17308   17309   17311   17312   17313   17316   17317
   17318   17323   17324   17325   17309   17311   17312   17313   17311   17312
   17313   17314   17315   17319   17320   17321   17322   17326   17327   17328
   17312   17313   17316   17317   17318   17323   17324   17325   17329   17330
   17331   17313   17316   17317   17318   17316   17317   17318   17315   17319
   17320   17321   17322   17326   17327   17332   17319   17320   17321   17322
   17326   17328   17332   17317   17318   17323   17324   17325   17329   17330
   17331   17333   17334   17335   17318   17323   17324   17325   17323   17324
   17325   17320   17321   17326   17327   17328   17332   17326   17327   17322
   17326   17327   17328   17332   17326   17328   17324   17325   17329   17330
   17331   17333   17334   17335   17336   17337   17338   17325   17329   17330
   17331   17329   17330   17331   17327   17328   17332   17332   17332   17330
   17331   17333   17334   17335   17336   17337   17338   17339   17340   17341
   17331   17333   17334   17335   17333   17334   17335       0   17334   17335
   17336   17337   17338   17335   17336   17337   17338   17336   17337   17338
   17339   17340   17341   17342   17343   17344   17337   17338   17339   17340
   17341   17342   17343   17344   17338   17339   17340   17341   17339   17340
   17341   17340   17341   17342   17343   17344   17341   17342   17343   17344
   17342   17343   17344   17343   17344   17344       0   17346   17347   17348
   17349   17350   17351   17352   17353   17354   17355   17356   17357   17347
   17348   17349   17350   17351   17352   17353   17354   17355   17358   17359
   17360   17348   17349   17350   17351   17352   17355   17356   17357   17358
   17360   17361   17349   17350   17351   17352   17355   17356   17357   17361
   17362   17363   17350   17353   17354   17355   17358   17359   17364   17365
   17366   17367   17351   17352   17353   17354   17355   17356   17358   17360
   17364   17352   17355   17356   17357   17361   17368   17369   17356   17357
   17361   17362   17363   17368   17369   17370   17354   17355   17358   17359
   17360   17364   17365   17366   17367   17371   17372   17373   17358   17359
   17358   17359   17360   17364   17357   17361   17362   17363   17368   17369
   17374   17361   17362   17363   17368   17370   17374   17359   17360   17364
   17365   17366   17367   17364   17365   17366   17367   17371   17372   17373
   17375   17376   17377   17364   17362   17368   17369   17370   17374   17378
   17379   17363   17368   17369   17370   17374   17378   17379   17368   17370
       0   17366   17367   17371   17372   17373   17375   17376   17377   17380
   17381   17382   17367   17371   17372   17373   17371   17372   17373   17369
   17370   17374   17378   17379   17383   17384   17385   17386   17374   17374
   17372   17373   17375   17376   17377   17380   17381   17382   17387   17388
   17389   17373   17375   17376   17377   17375   17376   17377   17378   17379
   17383   17384   17385   17386   17390   17391   17392   17376   17377   17380
   17381   17382   17387   17388   17389   17393   17394   17395   17377   17380
   17381   17382   17380   17381   17382   17379   17383   17384   17385   17386
   17390   17391   17396   17383   17384   17385   17386   17390   17392   17396
   17381   17382   17387   17388   17389   17393   17394   17395   17397   17398
   17399   17382   17387   17388   17389   17387   17388   17389   17384   17385
   17390   17391   17392   17396   17390   17391   17386   17390   17391   17392
   17396   17390   17392   17388   17389   17393   17394   17395   17397   17398
   17399   17400   17401   17402   17389   17393   17394   17395   17393   17394
   17395   17391   17392   17396   17396   17396   17394   17395   17397   17398
   17399   17400   17401   17402   17403   17404   17405   17395   17397   17398
   17399   17397   17398   17399       0   17398   17399   17400   17401   17402
   17399   17400   17401   17402   17400   17401   17402   17403   17404   17405
   17406   17407   17408   17401   17402   17403   17404   17405   17406   17407
   17408   17402   17403   17404   17405   17403   17404   17405   17404   17405
   17406   17407   17408   17405   17406   17407   17408   17406   17407   17408
   17407   17408   17408       0   17410   17411   17412   17413   17414   17415
   17416   17417   17418   17419   17420   17421   17411   17412   17413   17414
   17415   17416   17417   17418   17419   17422   17423   17424   17412   17413
   17414   17415   17416   17419   17420   17421   17422   17424   17425   17413
   17414   17415   17416   17419   17420   17421   17425   17426   17427   17414
   17417   17418   17419   17422   17423   17428   17429   17430   17431   17415
   17416   17417   17418   17419   17420   17422   17424   17428   17416   17419
   17420   17421   17425   17432   17433   17420   17421   17425   17426   17427
   17432   17433   17434   17418   17419   17422   17423   17424   17428   17429
   17430   17431   17435   17436   17437   17422   17423   17422   17423   17424
   17428   17421   17425   17426   17427   17432   17433   17438   17425   17426
   17427   17432   17434   17438   17423   17424   17428   17429   17430   17431
   17428   17429   17430   17431   17435   17436   17437   17439   17440   17441
   17428   17426   17432   17433   17434   17438   17442   17443   17427   17432
   17433   17434   17438   17442   17443   17432   17434       0   17430   17431
   17435   17436   17437   17439   17440   17441   17444   17445   17446   17431
   17435   17436   17437   17435   17436   17437   17433   17434   17438   17442
   17443   17447   17448   17449   17450   17438   17438   17436   17437   17439
   17440   17441   17444   17445   17446   17451   17452   17453   17437   17439
   17440   17441   17439   17440   17441   17442   17443   17447   17448   17449
   17450   17454   17455   17456   17440   17441   17444   17445   17446   17451
   17452   17453   17457   17458   17459   17441   17444   17445   17446   17444
   17445   17446   17443   17447   17448   17449   17450   17454   17455   17460
   17447   17448   17449   17450   17454   17456   17460   17445   17446   17451
   17452   17453   17457   17458   17459   17461   17462   17463   17446   17451
   17452   17453   17451   17452   17453   17448   17449   17454   17455   17456
   17460   17454   17455   17450   17454   17455   17456   17460   17454   17456
   17452   17453   17457   17458   17459   17461   17462   17463   17464   17465
   17466   17453   17457   17458   17459   17457   17458   17459   17455   17456
   17460   17460   17460   17458   17459   17461   17462   17463   17464   17465
   17466   17467   17468   17469   17459   17461   17462   17463   17461   17462
   17463       0   17462   17463   17464   17465   17466   17463   17464   17465
   17466   17464   17465   17466   17467   17468   17469   17470   17471   17472
   17465   17466   17467   17468   17469   17470   17471   17472   17466   17467
   17468   17469   17467   17468   17469   17468   17469   17470   17471   17472
   17469   17470   17471   17472   17470   17471   17472   17471   17472   17472
       0   17474   17475   17476   17477   17478   17479   17480   17481   17482
   17483   17484   17485   17475   17476   17477   17478   17479   17480   17481
   17482   17483   17486   17487   17488   17476   17477   17478   17479   17480
   17483   17484   17485   17486   17488   17489   17477   17478   17479   17480
   17483   17484   17485   17489   17490   17491   17478   17481   17482   17483
   17486   17487   17492   17493   17494   17495   17479   17480   17481   17482
   17483   17484   17486   17488   17492   17480   17483   17484   17485   17489
   17496   17497   17484   17485   17489   17490   17491   17496   17497   17498
   17482   17483   17486   17487   17488   17492   17493   17494   17495   17499
   17500   17501   17486   17487   17486   17487   17488   17492   17485   17489
   17490   17491   17496   17497   17502   17489   17490   17491   17496   17498
   17502   17487   17488   17492   17493   17494   17495   17492   17493   17494
   17495   17499   17500   17501   17503   17504   17505   17492   17490   17496
   17497   17498   17502   17506   17507   17491   17496   17497   17498   17502
   17506   17507   17496   17498       0   17494   17495   17499   17500   17501
   17503   17504   17505   17508   17509   17510   17495   17499   17500   17501
   17499   17500   17501   17497   17498   17502   17506   17507   17511   17512
   17513   17514   17502   17502   17500   17501   17503   17504   17505   17508
   17509   17510   17515   17516   17517   17501   17503   17504   17505   17503
   17504   17505   17506   17507   17511   17512   17513   17514   17518   17519
   17520   17504   17505   17508   17509   17510   17515   17516   17517   17521
   17522   17523   17505   17508   17509   17510   17508   17509   17510   17507
   17511   17512   17513   17514   17518   17519   17524   17511   17512   17513
   17514   17518   17520   17524   17509   17510   17515   17516   17517   17521
   17522   17523   17525   17526   17527   17510   17515   17516   17517   17515
   17516   17517   17512   17513   17518   17519   17520   17524   17518   17519
   17514   17518   17519   17520   17524   17518   17520   17516   17517   17521
   17522   17523   17525   17526   17527   17528   17529   17530   17517   17521
   17522   17523   17521   17522   17523   17519   17520   17524   17524   17524
   17522   17523   17525   17526   17527   17528   17529   17530   17531   17532
   17533   17523   17525   17526   17527   17525   17526   17527       0   17526
   17527   17528   17529   17530   17527   17528   17529   17530   17528   17529
   17530   17531   17532   17533   17534   17535   17536   17529   17530   17531
   17532   17533   17534   17535   17536   17530   17531   17532   17533   17531
   17532   17533   17532   17533   17534   17535   17536   17533   17534   17535
   17536   17534   17535   17536   17535   17536   17536       0   17538   17539
   17540   17541   17542   17543   17544   17545   17546   17547   17548   17549
   17539   17540   17541   17542   17543   17544   17545   17546   17547   17550
   17551   17552   17540   17541   17542   17543   17544   17547   17548   17549
   17550   17552   17553   17541   17542   17543   17544   17547   17548   17549
   17553   17554   17555   17542   17545   17546   17547   17550   17551   17556
   17557   17558   17559   17543   17544   17545   17546   17547   17548   17550
   17552   17556   17544   17547   17548   17549   17553   17560   17561   17548
   17549   17553   17554   17555   17560   17561   17562   17546   17547   17550
   17551   17552   17556   17557   17558   17559   17563   17564   17565   17550
   17551   17550   17551   17552   17556   17549   17553   17554   17555   17560
   17561   17566   17553   17554   17555   17560   17562   17566   17551   17552
   17556   17557   17558   17559   17556   17557   17558   17559   17563   17564
   17565   17567   17568   17569   17556   17554   17560   17561   17562   17566
   17570   17571   17555   17560   17561   17562   17566   17570   17571   17560
   17562       0   17558   17559   17563   17564   17565   17567   17568   17569
   17572   17573   17574   17559   17563   17564   17565   17563   17564   17565
   17561   17562   17566   17570   17571   17575   17576   17577   17578   17566
   17566   17564   17565   17567   17568   17569   17572   17573   17574   17579
   17580   17581   17565   17567   17568   17569   17567   17568   17569   17570
   17571   17575   17576   17577   17578   17582   17583   17584   17568   17569
   17572   17573   17574   17579   17580   17581   17585   17586   17587   17569
   17572   17573   17574   17572   17573   17574   17571   17575   17576   17577
   17578   17582   17583   17588   17575   17576   17577   17578   17582   17584
   17588   17573   17574   17579   17580   17581   17585   17586   17587   17589
   17590   17591   17574   17579   17580   17581   17579   17580   17581   17576
   17577   17582   17583   17584   17588   17582   17583   17578   17582   17583
   17584   17588   17582   17584   17580   17581   17585   17586   17587   17589
   17590   17591   17592   17593   17594   17581   17585   17586   17587   17585
   17586   17587   17583   17584   17588   17588   17588   17586   17587   17589
   17590   17591   17592   17593   17594   17595   17596   17597   17587   17589
   17590   17591   17589   17590   17591       0   17590   17591   17592   17593
   17594   17591   17592   17593   17594   17592   17593   17594   17595   17596
   17597   17598   17599   17600   17593   17594   17595   17596   17597   17598
   17599   17600   17594   17595   17596   17597   17595   17596   17597   17596
   17597   17598   17599   17600   17597   17598   17599   17600   17598   17599
   17600   17599   17600   17600       0   17602   17603   17604   17605   17606
   17607   17608   17609   17610   17611   17612   17613   17603   17604   17605
   17606   17607   17608   17609   17610   17611   17614   17615   17616   17604
   17605   17606   17607   17608   17611   17612   17613   17614   17616   17617
   17605   17606   17607   17608   17611   17612   17613   17617   17618   17619
   17606   17609   17610   17611   17614   17615   17620   17621   17622   17623
   17607   17608   17609   17610   17611   17612   17614   17616   17620   17608
   17611   17612   17613   17617   17624   17625   17612   17613   17617   17618
   17619   17624   17625   17626   17610   17611   17614   17615   17616   17620
   17621   17622   17623   17627   17628   17629   17614   17615   17614   17615
   17616   17620   17613   17617   17618   17619   17624   17625   17630   17617
   17618   17619   17624   17626   17630   17615   17616   17620   17621   17622
   17623   17620   17621   17622   17623   17627   17628   17629   17631   17632
   17633   17620   17618   17624   17625   17626   17630   17634   17635   17619
   17624   17625   17626   17630   17634   17635   17624   17626       0   17622
   17623   17627   17628   17629   17631   17632   17633   17636   17637   17638
   17623   17627   17628   17629   17627   17628   17629   17625   17626   17630
   17634   17635   17639   17640   17641   17642   17630   17630   17628   17629
   17631   17632   17633   17636   17637   17638   17643   17644   17645   17629
   17631   17632   17633   17631   17632   17633   17634   17635   17639   17640
   17641   17642   17646   17647   17648   17632   17633   17636   17637   17638
   17643   17644   17645   17649   17650   17651   17633   17636   17637   17638
   17636   17637   17638   17635   17639   17640   17641   17642   17646   17647
   17652   17639   17640   17641   17642   17646   17648   17652   17637   17638
   17643   17644   17645   17649   17650   17651   17653   17654   17655   17638
   17643   17644   17645   17643   17644   17645   17640   17641   17646   17647
   17648   17652   17646   17647   17642   17646   17647   17648   17652   17646
   17648   17644   17645   17649   17650   17651   17653   17654   17655   17656
   17657   17658   17645   17649   17650   17651   17649   17650   17651   17647
   17648   17652   17652   17652   17650   17651   17653   17654   17655   17656
   17657   17658   17659   17660   17661   17651   17653   17654   17655   17653
   17654   17655       0   17654   17655   17656   17657   17658   17655   17656
   17657   17658   17656   17657   17658   17659   17660   17661   17662   17663
   17664   17657   17658   17659   17660   17661   17662   17663   17664   17658
   17659   17660   17661   17659   17660   17661   17660   17661   17662   17663
   17664   17661   17662   17663   17664   17662   17663   17664   17663   17664
   17664       0   17666   17667   17668   17669   17670   17671   17672   17673
   17674   17675   17676   17677   17667   17668   17669   17670   17671   17672
   17673   17674   17675   17678   17679   17680   17668   17669   17670   17671
   17672   17675   17676   17677   17678   17680   17681   17669   17670   17671
   17672   17675   17676   17677   17681   17682   17683   17670   17673   17674
   17675   17678   17679   17684   17685   17686   17687   17671   17672   17673
   17674   17675   17676   17678   17680   17684   17672   17675   17676   17677
   17681   17688   17689   17676   17677   17681   17682   17683   17688   17689
   17690   17674   17675   17678   17679   17680   17684   17685   17686   17687
   17691   17692   17693   17678   17679   17678   17679   17680   17684   17677
   17681   17682   17683   17688   17689   17694   17681   17682   17683   17688
   17690   17694   17679   17680   17684   17685   17686   17687   17684   17685
   17686   17687   17691   17692   17693   17695   17696   17697   17684   17682
   17688   17689   17690   17694   17698   17699   17683   17688   17689   17690
   17694   17698   17699   17688   17690       0   17686   17687   17691   17692
   17693   17695   17696   17697   17700   17701   17702   17687   17691   17692
   17693   17691   17692   17693   17689   17690   17694   17698   17699   17703
   17704   17705   17706   17694   17694   17692   17693   17695   17696   17697
   17700   17701   17702   17707   17708   17709   17693   17695   17696   17697
   17695   17696   17697   17698   17699   17703   17704   17705   17706   17710
   17711   17712   17696   17697   17700   17701   17702   17707   17708   17709
   17713   17714   17715   17697   17700   17701   17702   17700   17701   17702
   17699   17703   17704   17705   17706   17710   17711   17716   17703   17704
   17705   17706   17710   17712   17716   17701   17702   17707   17708   17709
   17713   17714   17715   17717   17718   17719   17702   17707   17708   17709
   17707   17708   17709   17704   17705   17710   17711   17712   17716   17710
   17711   17706   17710   17711   17712   17716   17710   17712   17708   17709
   17713   17714   17715   17717   17718   17719   17720   17721   17722   17709
   17713   17714   17715   17713   17714   17715   17711   17712   17716   17716
   17716   17714   17715   17717   17718   17719   17720   17721   17722   17723
   17724   17725   17715   17717   17718   17719   17717   17718   17719       0
   17718   17719   17720   17721   17722   17719   17720   17721   17722   17720
   17721   17722   17723   17724   17725   17726   17727   17728   17721   17722
   17723   17724   17725   17726   17727   17728   17722   17723   17724   17725
   17723   17724   17725   17724   17725   17726   17727   17728   17725   17726
   17727   17728   17726   17727   17728   17727   17728   17728       0   17730
   17731   17732   17733   17734   17735   17736   17737   17738   17739   17740
   17741   17731   17732   17733   17734   17735   17736   17737   17738   17739
   17742   17743   17744   17732   17733   17734   17735   17736   17739   17740
   17741   17742   17744   17745   17733   17734   17735   17736   17739   17740
   17741   17745   17746   17747   17734   17737   17738   17739   17742   17743
   17748   17749   17750   17751   17735   17736   17737   17738   17739   17740
   17742   17744   17748   17736   17739   17740   17741   17745   17752   17753
   17740   17741   17745   17746   17747   17752   17753   17754   17738   17739
   17742   17743   17744   17748   17749   17750   17751   17755   17756   17757
   17742   17743   17742   17743   17744   17748   17741   17745   17746   17747
   17752   17753   17758   17745   17746   17747   17752   17754   17758   17743
   17744   17748   17749   17750   17751   17748   17749   17750   17751   17755
   17756   17757   17759   17760   17761   17748   17746   17752   17753   17754
   17758   17762   17763   17747   17752   17753   17754   17758   17762   17763
   17752   17754       0   17750   17751   17755   17756   17757   17759   17760
   17761   17764   17765   17766   17751   17755   17756   17757   17755   17756
   17757   17753   17754   17758   17762   17763   17767   17768   17769   17770
   17758   17758   17756   17757   17759   17760   17761   17764   17765   17766
   17771   17772   17773   17757   17759   17760   17761   17759   17760   17761
   17762   17763   17767   17768   17769   17770   17774   17775   17776   17760
   17761   17764   17765   17766   17771   17772   17773   17777   17778   17779
   17761   17764   17765   17766   17764   17765   17766   17763   17767   17768
   17769   17770   17774   17775   17780   17767   17768   17769   17770   17774
   17776   17780   17765   17766   17771   17772   17773   17777   17778   17779
   17781   17782   17783   17766   17771   17772   17773   17771   17772   17773
   17768   17769   17774   17775   17776   17780   17774   17775   17770   17774
   17775   17776   17780   17774   17776   17772   17773   17777   17778   17779
   17781   17782   17783   17784   17785   17786   17773   17777   17778   17779
   17777   17778   17779   17775   17776   17780   17780   17780   17778   17779
   17781   17782   17783   17784   17785   17786   17787   17788   17789   17779
   17781   17782   17783   17781   17782   17783       0   17782   17783   17784
   17785   17786   17783   17784   17785   17786   17784   17785   17786   17787
   17788   17789   17790   17791   17792   17785   17786   17787   17788   17789
   17790   17791   17792   17786   17787   17788   17789   17787   17788   17789
   17788   17789   17790   17791   17792   17789   17790   17791   17792   17790
   17791   17792   17791   17792   17792       0   17794   17795   17796   17797
   17798   17799   17800   17801   17802   17803   17804   17805   17795   17796
   17797   17798   17799   17800   17801   17802   17803   17806   17807   17808
   17796   17797   17798   17799   17800   17803   17804   17805   17806   17808
   17809   17797   17798   17799   17800   17803   17804   17805   17809   17810
   17811   17798   17801   17802   17803   17806   17807   17812   17813   17814
   17815   17799   17800   17801   17802   17803   17804   17806   17808   17812
   17800   17803   17804   17805   17809   17816   17817   17804   17805   17809
   17810   17811   17816   17817   17818   17802   17803   17806   17807   17808
   17812   17813   17814   17815   17819   17820   17821   17806   17807   17806
   17807   17808   17812   17805   17809   17810   17811   17816   17817   17822
   17809   17810   17811   17816   17818   17822   17807   17808   17812   17813
   17814   17815   17812   17813   17814   17815   17819   17820   17821   17823
   17824   17825   17812   17810   17816   17817   17818   17822   17826   17827
   17811   17816   17817   17818   17822   17826   17827   17816   17818       0
   17814   17815   17819   17820   17821   17823   17824   17825   17828   17829
   17830   17815   17819   17820   17821   17819   17820   17821   17817   17818
   17822   17826   17827   17831   17832   17833   17834   17822   17822   17820
   17821   17823   17824   17825   17828   17829   17830   17835   17836   17837
   17821   17823   17824   17825   17823   17824   17825   17826   17827   17831
   17832   17833   17834   17838   17839   17840   17824   17825   17828   17829
   17830   17835   17836   17837   17841   17842   17843   17825   17828   17829
   17830   17828   17829   17830   17827   17831   17832   17833   17834   17838
   17839   17844   17831   17832   17833   17834   17838   17840   17844   17829
   17830   17835   17836   17837   17841   17842   17843   17845   17846   17847
   17830   17835   17836   17837   17835   17836   17837   17832   17833   17838
   17839   17840   17844   17838   17839   17834   17838   17839   17840   17844
   17838   17840   17836   17837   17841   17842   17843   17845   17846   17847
   17848   17849   17850   17837   17841   17842   17843   17841   17842   17843
   17839   17840   17844   17844   17844   17842   17843   17845   17846   17847
   17848   17849   17850   17851   17852   17853   17843   17845   17846   17847
   17845   17846   17847       0   17846   17847   17848   17849   17850   17847
   17848   17849   17850   17848   17849   17850   17851   17852   17853   17854
   17855   17856   17849   17850   17851   17852   17853   17854   17855   17856
   17850   17851   17852   17853   17851   17852   17853   17852   17853   17854
   17855   17856   17853   17854   17855   17856   17854   17855   17856   17855
   17856   17856       0   17858   17859   17860   17861   17862   17863   17864
   17865   17866   17867   17868   17869   17859   17860   17861   17862   17863
   17864   17865   17866   17867   17870   17871   17872   17860   17861   17862
   17863   17864   17867   17868   17869   17870   17872   17873   17861   17862
   17863   17864   17867   17868   17869   17873   17874   17875   17862   17865
   17866   17867   17870   17871   17876   17877   17878   17879   17863   17864
   17865   17866   17867   17868   17870   17872   17876   17864   17867   17868
   17869   17873   17880   17881   17868   17869   17873   17874   17875   17880
   17881   17882   17866   17867   17870   17871   17872   17876   17877   17878
   17879   17883   17884   17885   17870   17871   17870   17871   17872   17876
   17869   17873   17874   17875   17880   17881   17886   17873   17874   17875
   17880   17882   17886   17871   17872   17876   17877   17878   17879   17876
   17877   17878   17879   17883   17884   17885   17887   17888   17889   17876
   17874   17880   17881   17882   17886   17890   17891   17875   17880   17881
   17882   17886   17890   17891   17880   17882       0   17878   17879   17883
   17884   17885   17887   17888   17889   17892   17893   17894   17879   17883
   17884   17885   17883   17884   17885   17881   17882   17886   17890   17891
   17895   17896   17897   17898   17886   17886   17884   17885   17887   17888
   17889   17892   17893   17894   17899   17900   17901   17885   17887   17888
   17889   17887   17888   17889   17890   17891   17895   17896   17897   17898
   17902   17903   17904   17888   17889   17892   17893   17894   17899   17900
   17901   17905   17906   17907   17889   17892   17893   17894   17892   17893
   17894   17891   17895   17896   17897   17898   17902   17903   17908   17895
   17896   17897   17898   17902   17904   17908   17893   17894   17899   17900
   17901   17905   17906   17907   17909   17910   17911   17894   17899   17900
   17901   17899   17900   17901   17896   17897   17902   17903   17904   17908
   17902   17903   17898   17902   17903   17904   17908   17902   17904   17900
   17901   17905   17906   17907   17909   17910   17911   17912   17913   17914
   17901   17905   17906   17907   17905   17906   17907   17903   17904   17908
   17908   17908   17906   17907   17909   17910   17911   17912   17913   17914
   17915   17916   17917   17907   17909   17910   17911   17909   17910   17911
       0   17910   17911   17912   17913   17914   17911   17912   17913   17914
   17912   17913   17914   17915   17916   17917   17918   17919   17920   17913
   17914   17915   17916   17917   17918   17919   17920   17914   17915   17916
   17917   17915   17916   17917   17916   17917   17918   17919   17920   17917
   17918   17919   17920   17918   17919   17920   17919   17920   17920       0
   17922   17923   17924   17925   17926   17927   17928   17929   17930   17931
   17932   17933   17923   17924   17925   17926   17927   17928   17929   17930
   17931   17934   17935   17936   17924   17925   17926   17927   17928   17931
   17932   17933   17934   17936   17937   17925   17926   17927   17928   17931
   17932   17933   17937   17938   17939   17926   17929   17930   17931   17934
   17935   17940   17941   17942   17943   17927   17928   17929   17930   17931
   17932   17934   17936   17940   17928   17931   17932   17933   17937   17944
   17945   17932   17933   17937   17938   17939   17944   17945   17946   17930
   17931   17934   17935   17936   17940   17941   17942   17943   17947   17948
   17949   17934   17935   17934   17935   17936   17940   17933   17937   17938
   17939   17944   17945   17950   17937   17938   17939   17944   17946   17950
   17935   17936   17940   17941   17942   17943   17940   17941   17942   17943
   17947   17948   17949   17951   17952   17953   17940   17938   17944   17945
   17946   17950   17954   17955   17939   17944   17945   17946   17950   17954
   17955   17944   17946       0   17942   17943   17947   17948   17949   17951
   17952   17953   17956   17957   17958   17943   17947   17948   17949   17947
   17948   17949   17945   17946   17950   17954   17955   17959   17960   17961
   17962   17950   17950   17948   17949   17951   17952   17953   17956   17957
   17958   17963   17964   17965   17949   17951   17952   17953   17951   17952
   17953   17954   17955   17959   17960   17961   17962   17966   17967   17968
   17952   17953   17956   17957   17958   17963   17964   17965   17969   17970
   17971   17953   17956   17957   17958   17956   17957   17958   17955   17959
   17960   17961   17962   17966   17967   17972   17959   17960   17961   17962
   17966   17968   17972   17957   17958   17963   17964   17965   17969   17970
   17971   17973   17974   17975   17958   17963   17964   17965   17963   17964
   17965   17960   17961   17966   17967   17968   17972   17966   17967   17962
   17966   17967   17968   17972   17966   17968   17964   17965   17969   17970
   17971   17973   17974   17975   17976   17977   17978   17965   17969   17970
   17971   17969   17970   17971   17967   17968   17972   17972   17972   17970
   17971   17973   17974   17975   17976   17977   17978   17979   17980   17981
   17971   17973   17974   17975   17973   17974   17975       0   17974   17975
   17976   17977   17978   17975   17976   17977   17978   17976   17977   17978
   17979   17980   17981   17982   17983   17984   17977   17978   17979   17980
   17981   17982   17983   17984   17978   17979   17980   17981   17979   17980
   17981   17980   17981   17982   17983   17984   17981   17982   17983   17984
   17982   17983   17984   17983   17984   17984       0   17986   17987   17988
   17989   17990   17991   17992   17993   17994   17995   17996   17997   17987
   17988   17989   17990   17991   17992   17993   17994   17995   17998   17999
   18000   17988   17989   17990   17991   17992   17995   17996   17997   17998
   18000   18001   17989   17990   17991   17992   17995   17996   17997   18001
   18002   18003   17990   17993   17994   17995   17998   17999   18004   18005
   18006   18007   17991   17992   17993   17994   17995   17996   17998   18000
   18004   17992   17995   17996   17997   18001   18008   18009   17996   17997
   18001   18002   18003   18008   18009   18010   17994   17995   17998   17999
   18000   18004   18005   18006   18007   18011   18012   18013   17998   17999
   17998   17999   18000   18004   17997   18001   18002   18003   18008   18009
   18014   18001   18002   18003   18008   18010   18014   17999   18000   18004
   18005   18006   18007   18004   18005   18006   18007   18011   18012   18013
   18015   18016   18017   18004   18002   18008   18009   18010   18014   18018
   18019   18003   18008   18009   18010   18014   18018   18019   18008   18010
       0   18006   18007   18011   18012   18013   18015   18016   18017   18020
   18021   18022   18007   18011   18012   18013   18011   18012   18013   18009
   18010   18014   18018   18019   18023   18024   18025   18026   18014   18014
   18012   18013   18015   18016   18017   18020   18021   18022   18027   18028
   18029   18013   18015   18016   18017   18015   18016   18017   18018   18019
   18023   18024   18025   18026   18030   18031   18032   18016   18017   18020
   18021   18022   18027   18028   18029   18033   18034   18035   18017   18020
   18021   18022   18020   18021   18022   18019   18023   18024   18025   18026
   18030   18031   18036   18023   18024   18025   18026   18030   18032   18036
   18021   18022   18027   18028   18029   18033   18034   18035   18037   18038
   18039   18022   18027   18028   18029   18027   18028   18029   18024   18025
   18030   18031   18032   18036   18030   18031   18026   18030   18031   18032
   18036   18030   18032   18028   18029   18033   18034   18035   18037   18038
   18039   18040   18041   18042   18029   18033   18034   18035   18033   18034
   18035   18031   18032   18036   18036   18036   18034   18035   18037   18038
   18039   18040   18041   18042   18043   18044   18045   18035   18037   18038
   18039   18037   18038   18039       0   18038   18039   18040   18041   18042
   18039   18040   18041   18042   18040   18041   18042   18043   18044   18045
   18046   18047   18048   18041   18042   18043   18044   18045   18046   18047
   18048   18042   18043   18044   18045   18043   18044   18045   18044   18045
   18046   18047   18048   18045   18046   18047   18048   18046   18047   18048
   18047   18048   18048       0   18050   18051   18052   18053   18054   18055
   18056   18057   18058   18059   18060   18061   18051   18052   18053   18054
   18055   18056   18057   18058   18059   18062   18063   18064   18052   18053
   18054   18055   18056   18059   18060   18061   18062   18064   18065   18053
   18054   18055   18056   18059   18060   18061   18065   18066   18067   18054
   18057   18058   18059   18062   18063   18068   18069   18070   18071   18055
   18056   18057   18058   18059   18060   18062   18064   18068   18056   18059
   18060   18061   18065   18072   18073   18060   18061   18065   18066   18067
   18072   18073   18074   18058   18059   18062   18063   18064   18068   18069
   18070   18071   18075   18076   18077   18062   18063   18062   18063   18064
   18068   18061   18065   18066   18067   18072   18073   18078   18065   18066
   18067   18072   18074   18078   18063   18064   18068   18069   18070   18071
   18068   18069   18070   18071   18075   18076   18077   18079   18080   18081
   18068   18066   18072   18073   18074   18078   18082   18083   18067   18072
   18073   18074   18078   18082   18083   18072   18074       0   18070   18071
   18075   18076   18077   18079   18080   18081   18084   18085   18086   18071
   18075   18076   18077   18075   18076   18077   18073   18074   18078   18082
   18083   18087   18088   18089   18090   18078   18078   18076   18077   18079
   18080   18081   18084   18085   18086   18091   18092   18093   18077   18079
   18080   18081   18079   18080   18081   18082   18083   18087   18088   18089
   18090   18094   18095   18096   18080   18081   18084   18085   18086   18091
   18092   18093   18097   18098   18099   18081   18084   18085   18086   18084
   18085   18086   18083   18087   18088   18089   18090   18094   18095   18100
   18087   18088   18089   18090   18094   18096   18100   18085   18086   18091
   18092   18093   18097   18098   18099   18101   18102   18103   18086   18091
   18092   18093   18091   18092   18093   18088   18089   18094   18095   18096
   18100   18094   18095   18090   18094   18095   18096   18100   18094   18096
   18092   18093   18097   18098   18099   18101   18102   18103   18104   18105
   18106   18093   18097   18098   18099   18097   18098   18099   18095   18096
   18100   18100   18100   18098   18099   18101   18102   18103   18104   18105
   18106   18107   18108   18109   18099   18101   18102   18103   18101   18102
   18103       0   18102   18103   18104   18105   18106   18103   18104   18105
   18106   18104   18105   18106   18107   18108   18109   18110   18111   18112
   18105   18106   18107   18108   18109   18110   18111   18112   18106   18107
   18108   18109   18107   18108   18109   18108   18109   18110   18111   18112
   18109   18110   18111   18112   18110   18111   18112   18111   18112   18112
       0   18114   18115   18116   18117   18118   18119   18120   18121   18122
   18123   18124   18125   18115   18116   18117   18118   18119   18120   18121
   18122   18123   18126   18127   18128   18116   18117   18118   18119   18120
   18123   18124   18125   18126   18128   18129   18117   18118   18119   18120
   18123   18124   18125   18129   18130   18131   18118   18121   18122   18123
   18126   18127   18132   18133   18134   18135   18119   18120   18121   18122
   18123   18124   18126   18128   18132   18120   18123   18124   18125   18129
   18136   18137   18124   18125   18129   18130   18131   18136   18137   18138
   18122   18123   18126   18127   18128   18132   18133   18134   18135   18139
   18140   18141   18126   18127   18126   18127   18128   18132   18125   18129
   18130   18131   18136   18137   18142   18129   18130   18131   18136   18138
   18142   18127   18128   18132   18133   18134   18135   18132   18133   18134
   18135   18139   18140   18141   18143   18144   18145   18132   18130   18136
   18137   18138   18142   18146   18147   18131   18136   18137   18138   18142
   18146   18147   18136   18138       0   18134   18135   18139   18140   18141
   18143   18144   18145   18148   18149   18150   18135   18139   18140   18141
   18139   18140   18141   18137   18138   18142   18146   18147   18151   18152
   18153   18154   18142   18142   18140   18141   18143   18144   18145   18148
   18149   18150   18155   18156   18157   18141   18143   18144   18145   18143
   18144   18145   18146   18147   18151   18152   18153   18154   18158   18159
   18160   18144   18145   18148   18149   18150   18155   18156   18157   18161
   18162   18163   18145   18148   18149   18150   18148   18149   18150   18147
   18151   18152   18153   18154   18158   18159   18164   18151   18152   18153
   18154   18158   18160   18164   18149   18150   18155   18156   18157   18161
   18162   18163   18165   18166   18167   18150   18155   18156   18157   18155
   18156   18157   18152   18153   18158   18159   18160   18164   18158   18159
   18154   18158   18159   18160   18164   18158   18160   18156   18157   18161
   18162   18163   18165   18166   18167   18168   18169   18170   18157   18161
   18162   18163   18161   18162   18163   18159   18160   18164   18164   18164
   18162   18163   18165   18166   18167   18168   18169   18170   18171   18172
   18173   18163   18165   18166   18167   18165   18166   18167       0   18166
   18167   18168   18169   18170   18167   18168   18169   18170   18168   18169
   18170   18171   18172   18173   18174   18175   18176   18169   18170   18171
   18172   18173   18174   18175   18176   18170   18171   18172   18173   18171
   18172   18173   18172   18173   18174   18175   18176   18173   18174   18175
   18176   18174   18175   18176   18175   18176   18176       0   18178   18179
   18180   18181   18182   18183   18184   18185   18186   18187   18188   18189
   18179   18180   18181   18182   18183   18184   18185   18186   18187   18190
   18191   18192   18180   18181   18182   18183   18184   18187   18188   18189
   18190   18192   18193   18181   18182   18183   18184   18187   18188   18189
   18193   18194   18195   18182   18185   18186   18187   18190   18191   18196
   18197   18198   18199   18183   18184   18185   18186   18187   18188   18190
   18192   18196   18184   18187   18188   18189   18193   18200   18201   18188
   18189   18193   18194   18195   18200   18201   18202   18186   18187   18190
   18191   18192   18196   18197   18198   18199   18203   18204   18205   18190
   18191   18190   18191   18192   18196   18189   18193   18194   18195   18200
   18201   18206   18193   18194   18195   18200   18202   18206   18191   18192
   18196   18197   18198   18199   18196   18197   18198   18199   18203   18204
   18205   18207   18208   18209   18196   18194   18200   18201   18202   18206
   18210   18211   18195   18200   18201   18202   18206   18210   18211   18200
   18202       0   18198   18199   18203   18204   18205   18207   18208   18209
   18212   18213   18214   18199   18203   18204   18205   18203   18204   18205
   18201   18202   18206   18210   18211   18215   18216   18217   18218   18206
   18206   18204   18205   18207   18208   18209   18212   18213   18214   18219
   18220   18221   18205   18207   18208   18209   18207   18208   18209   18210
   18211   18215   18216   18217   18218   18222   18223   18224   18208   18209
   18212   18213   18214   18219   18220   18221   18225   18226   18227   18209
   18212   18213   18214   18212   18213   18214   18211   18215   18216   18217
   18218   18222   18223   18228   18215   18216   18217   18218   18222   18224
   18228   18213   18214   18219   18220   18221   18225   18226   18227   18229
   18230   18231   18214   18219   18220   18221   18219   18220   18221   18216
   18217   18222   18223   18224   18228   18222   18223   18218   18222   18223
   18224   18228   18222   18224   18220   18221   18225   18226   18227   18229
   18230   18231   18232   18233   18234   18221   18225   18226   18227   18225
   18226   18227   18223   18224   18228   18228   18228   18226   18227   18229
   18230   18231   18232   18233   18234   18235   18236   18237   18227   18229
   18230   18231   18229   18230   18231       0   18230   18231   18232   18233
   18234   18231   18232   18233   18234   18232   18233   18234   18235   18236
   18237   18238   18239   18240   18233   18234   18235   18236   18237   18238
   18239   18240   18234   18235   18236   18237   18235   18236   18237   18236
   18237   18238   18239   18240   18237   18238   18239   18240   18238   18239
   18240   18239   18240   18240       0   18242   18243   18244   18245   18246
   18247   18248   18249   18250   18251   18252   18253   18243   18244   18245
   18246   18247   18248   18249   18250   18251   18254   18255   18256   18244
   18245   18246   18247   18248   18251   18252   18253   18254   18256   18257
   18245   18246   18247   18248   18251   18252   18253   18257   18258   18259
   18246   18249   18250   18251   18254   18255   18260   18261   18262   18263
   18247   18248   18249   18250   18251   18252   18254   18256   18260   18248
   18251   18252   18253   18257   18264   18265   18252   18253   18257   18258
   18259   18264   18265   18266   18250   18251   18254   18255   18256   18260
   18261   18262   18263   18267   18268   18269   18254   18255   18254   18255
   18256   18260   18253   18257   18258   18259   18264   18265   18270   18257
   18258   18259   18264   18266   18270   18255   18256   18260   18261   18262
   18263   18260   18261   18262   18263   18267   18268   18269   18271   18272
   18273   18260   18258   18264   18265   18266   18270   18274   18275   18259
   18264   18265   18266   18270   18274   18275   18264   18266       0   18262
   18263   18267   18268   18269   18271   18272   18273   18276   18277   18278
   18263   18267   18268   18269   18267   18268   18269   18265   18266   18270
   18274   18275   18279   18280   18281   18282   18270   18270   18268   18269
   18271   18272   18273   18276   18277   18278   18283   18284   18285   18269
   18271   18272   18273   18271   18272   18273   18274   18275   18279   18280
   18281   18282   18286   18287   18288   18272   18273   18276   18277   18278
   18283   18284   18285   18289   18290   18291   18273   18276   18277   18278
   18276   18277   18278   18275   18279   18280   18281   18282   18286   18287
   18292   18279   18280   18281   18282   18286   18288   18292   18277   18278
   18283   18284   18285   18289   18290   18291   18293   18294   18295   18278
   18283   18284   18285   18283   18284   18285   18280   18281   18286   18287
   18288   18292   18286   18287   18282   18286   18287   18288   18292   18286
   18288   18284   18285   18289   18290   18291   18293   18294   18295   18296
   18297   18298   18285   18289   18290   18291   18289   18290   18291   18287
   18288   18292   18292   18292   18290   18291   18293   18294   18295   18296
   18297   18298   18299   18300   18301   18291   18293   18294   18295   18293
   18294   18295       0   18294   18295   18296   18297   18298   18295   18296
   18297   18298   18296   18297   18298   18299   18300   18301   18302   18303
   18304   18297   18298   18299   18300   18301   18302   18303   18304   18298
   18299   18300   18301   18299   18300   18301   18300   18301   18302   18303
   18304   18301   18302   18303   18304   18302   18303   18304   18303   18304
   18304       0   18306   18307   18308   18309   18310   18311   18312   18313
   18314   18315   18316   18317   18307   18308   18309   18310   18311   18312
   18313   18314   18315   18318   18319   18320   18308   18309   18310   18311
   18312   18315   18316   18317   18318   18320   18321   18309   18310   18311
   18312   18315   18316   18317   18321   18322   18323   18310   18313   18314
   18315   18318   18319   18324   18325   18326   18327   18311   18312   18313
   18314   18315   18316   18318   18320   18324   18312   18315   18316   18317
   18321   18328   18329   18316   18317   18321   18322   18323   18328   18329
   18330   18314   18315   18318   18319   18320   18324   18325   18326   18327
   18331   18332   18333   18318   18319   18318   18319   18320   18324   18317
   18321   18322   18323   18328   18329   18334   18321   18322   18323   18328
   18330   18334   18319   18320   18324   18325   18326   18327   18324   18325
   18326   18327   18331   18332   18333   18335   18336   18337   18324   18322
   18328   18329   18330   18334   18338   18339   18323   18328   18329   18330
   18334   18338   18339   18328   18330       0   18326   18327   18331   18332
   18333   18335   18336   18337   18340   18341   18342   18327   18331   18332
   18333   18331   18332   18333   18329   18330   18334   18338   18339   18343
   18344   18345   18346   18334   18334   18332   18333   18335   18336   18337
   18340   18341   18342   18347   18348   18349   18333   18335   18336   18337
   18335   18336   18337   18338   18339   18343   18344   18345   18346   18350
   18351   18352   18336   18337   18340   18341   18342   18347   18348   18349
   18353   18354   18355   18337   18340   18341   18342   18340   18341   18342
   18339   18343   18344   18345   18346   18350   18351   18356   18343   18344
   18345   18346   18350   18352   18356   18341   18342   18347   18348   18349
   18353   18354   18355   18357   18358   18359   18342   18347   18348   18349
   18347   18348   18349   18344   18345   18350   18351   18352   18356   18350
   18351   18346   18350   18351   18352   18356   18350   18352   18348   18349
   18353   18354   18355   18357   18358   18359   18360   18361   18362   18349
   18353   18354   18355   18353   18354   18355   18351   18352   18356   18356
   18356   18354   18355   18357   18358   18359   18360   18361   18362   18363
   18364   18365   18355   18357   18358   18359   18357   18358   18359       0
   18358   18359   18360   18361   18362   18359   18360   18361   18362   18360
   18361   18362   18363   18364   18365   18366   18367   18368   18361   18362
   18363   18364   18365   18366   18367   18368   18362   18363   18364   18365
   18363   18364   18365   18364   18365   18366   18367   18368   18365   18366
   18367   18368   18366   18367   18368   18367   18368   18368       0   18370
   18371   18372   18373   18374   18375   18376   18377   18378   18379   18380
   18381   18371   18372   18373   18374   18375   18376   18377   18378   18379
   18382   18383   18384   18372   18373   18374   18375   18376   18379   18380
   18381   18382   18384   18385   18373   18374   18375   18376   18379   18380
   18381   18385   18386   18387   18374   18377   18378   18379   18382   18383
   18388   18389   18390   18391   18375   18376   18377   18378   18379   18380
   18382   18384   18388   18376   18379   18380   18381   18385   18392   18393
   18380   18381   18385   18386   18387   18392   18393   18394   18378   18379
   18382   18383   18384   18388   18389   18390   18391   18395   18396   18397
   18382   18383   18382   18383   18384   18388   18381   18385   18386   18387
   18392   18393   18398   18385   18386   18387   18392   18394   18398   18383
   18384   18388   18389   18390   18391   18388   18389   18390   18391   18395
   18396   18397   18399   18400   18401   18388   18386   18392   18393   18394
   18398   18402   18403   18387   18392   18393   18394   18398   18402   18403
   18392   18394       0   18390   18391   18395   18396   18397   18399   18400
   18401   18404   18405   18406   18391   18395   18396   18397   18395   18396
   18397   18393   18394   18398   18402   18403   18407   18408   18409   18410
   18398   18398   18396   18397   18399   18400   18401   18404   18405   18406
   18411   18412   18413   18397   18399   18400   18401   18399   18400   18401
   18402   18403   18407   18408   18409   18410   18414   18415   18416   18400
   18401   18404   18405   18406   18411   18412   18413   18417   18418   18419
   18401   18404   18405   18406   18404   18405   18406   18403   18407   18408
   18409   18410   18414   18415   18420   18407   18408   18409   18410   18414
   18416   18420   18405   18406   18411   18412   18413   18417   18418   18419
   18421   18422   18423   18406   18411   18412   18413   18411   18412   18413
   18408   18409   18414   18415   18416   18420   18414   18415   18410   18414
   18415   18416   18420   18414   18416   18412   18413   18417   18418   18419
   18421   18422   18423   18424   18425   18426   18413   18417   18418   18419
   18417   18418   18419   18415   18416   18420   18420   18420   18418   18419
   18421   18422   18423   18424   18425   18426   18427   18428   18429   18419
   18421   18422   18423   18421   18422   18423       0   18422   18423   18424
   18425   18426   18423   18424   18425   18426   18424   18425   18426   18427
   18428   18429   18430   18431   18432   18425   18426   18427   18428   18429
   18430   18431   18432   18426   18427   18428   18429   18427   18428   18429
   18428   18429   18430   18431   18432   18429   18430   18431   18432   18430
   18431   18432   18431   18432   18432       0
%FLAG HBOND_ACOEF                                                               
%FORMAT(5E16.8)                                                                 

%FLAG HBOND_BCOEF                                                               
%FORMAT(5E16.8)                                                                 

%FLAG HBCUT                                                                     
%FORMAT(5E16.8)                                                                 

%FLAG AMBER_ATOM_TYPE                                                           
%FORMAT(20a4)                                                                   
sx  ca  cx  ce  ca  ca  ss  ca  ca  ha  ca  ca  ca  ca  c3  ha  ca  ca  ha  ha  
c3  hc  hc  cp  ha  ha  c3  hc  hc  cp  c3  hc  hc  ca  ca  c3  hc  hc  ca  ha  
ca  ha  c3  hc  hc  ca  ha  ha  c3  hc  hc  ha  hc  hc  c3  c3  hc  hc  hc  c3  
hc  hc  hc  hc  sx  ca  cx  ce  ca  ca  ss  ca  ca  ha  ca  ca  ca  ca  c3  ha  
ca  ca  ha  ha  c3  hc  hc  cp  ha  ha  c3  hc  hc  cp  c3  hc  hc  ca  ca  c3  
hc  hc  ca  ha  ca  ha  c3  hc  hc  ca  ha  ha  c3  hc  hc  ha  hc  hc  c3  c3  
hc  hc  hc  c3  hc  hc  hc  hc  sx  ca  cx  ce  ca  ca  ss  ca  ca  ha  ca  ca  
ca  ca  c3  ha  ca  ca  ha  ha  c3  hc  hc  cp  ha  ha  c3  hc  hc  cp  c3  hc  
hc  ca  ca  c3  hc  hc  ca  ha  ca  ha  c3  hc  hc  ca  ha  ha  c3  hc  hc  ha  
hc  hc  c3  c3  hc  hc  hc  c3  hc  hc  hc  hc  sx  ca  cx  ce  ca  ca  ss  ca  
ca  ha  ca  ca  ca  ca  c3  ha  ca  ca  ha  ha  c3  hc  hc  cp  ha  ha  c3  hc  
hc  cp  c3  hc  hc  ca  ca  c3  hc  hc  ca  ha  ca  ha  c3  hc  hc  ca  ha  ha  
c3  hc  hc  ha  hc  hc  c3  c3  hc  hc  hc  c3  hc  hc  hc  hc  sx  ca  cx  ce  
ca  ca  ss  ca  ca  ha  ca  ca  ca  ca  c3  ha  ca  ca  ha  ha  c3  hc  hc  cp  
ha  ha  c3  hc  hc  cp  c3  hc  hc  ca  ca  c3  hc  hc  ca  ha  ca  ha  c3  hc  
hc  ca  ha  ha  c3  hc  hc  ha  hc  hc  c3  c3  hc  hc  hc  c3  hc  hc  hc  hc  
sx  ca  cx  ce  ca  ca  ss  ca  ca  ha  ca  ca  ca  ca  c3  ha  ca  ca  ha  ha  
c3  hc  hc  cp  ha  ha  c3  hc  hc  cp  c3  hc  hc  ca  ca  c3  hc  hc  ca  ha  
ca  ha  c3  hc  hc  ca  ha  ha  c3  hc  hc  ha  hc  hc  c3  c3  hc  hc  hc  c3  
hc  hc  hc  hc  sx  ca  cx  ce  ca  ca  ss  ca  ca  ha  ca  ca  ca  ca  c3  ha  
ca  ca  ha  ha  c3  hc  hc  cp  ha  ha  c3  hc  hc  cp  c3  hc  hc  ca  ca  c3  
hc  hc  ca  ha  ca  ha  c3  hc  hc  ca  ha  ha  c3  hc  hc  ha  hc  hc  c3  c3  
hc  hc  hc  c3  hc  hc  hc  hc  sx  ca  cx  ce  ca  ca  ss  ca  ca  ha  ca  ca  
ca  ca  c3  ha  ca  ca  ha  ha  c3  hc  hc  cp  ha  ha  c3  hc  hc  cp  c3  hc  
hc  ca  ca  c3  hc  hc  ca  ha  ca  ha  c3  hc  hc  ca  ha  ha  c3  hc  hc  ha  
hc  hc  c3  c3  hc  hc  hc  c3  hc  hc  hc  hc  sx  ca  cx  ce  ca  ca  ss  ca  
ca  ha  ca  ca  ca  ca  c3  ha  ca  ca  ha  ha  c3  hc  hc  cp  ha  ha  c3  hc  
hc  cp  c3  hc  hc  ca  ca  c3  hc  hc  ca  ha  ca  ha  c3  hc  hc  ca  ha  ha  
c3  hc  hc  ha  hc  hc  c3  c3  hc  hc  hc  c3  hc  hc  hc  hc  sx  ca  cx  ce  
ca  ca  ss  ca  ca  ha  ca  ca  ca  ca  c3  ha  ca  ca  ha  ha  c3  hc  hc  cp  
ha  ha  c3  hc  hc  cp  c3  hc  hc  ca  ca  c3  hc  hc  ca  ha  ca  ha  c3  hc  
hc  ca  ha  ha  c3  hc  hc  ha  hc  hc  c3  c3  hc  hc  hc  c3  hc  hc  hc  hc  
sx  ca  cx  ce  ca  ca  ss  ca  ca  ha  ca  ca  ca  ca  c3  ha  ca  ca  ha  ha  
c3  hc  hc  cp  ha  ha  c3  hc  hc  cp  c3  hc  hc  ca  ca  c3  hc  hc  ca  ha  
ca  ha  c3  hc  hc  ca  ha  ha  c3  hc  hc  ha  hc  hc  c3  c3  hc  hc  hc  c3  
hc  hc  hc  hc  sx  ca  cx  ce  ca  ca  ss  ca  ca  ha  ca  ca  ca  ca  c3  ha  
ca  ca  ha  ha  c3  hc  hc  cp  ha  ha  c3  hc  hc  cp  c3  hc  hc  ca  ca  c3  
hc  hc  ca  ha  ca  ha  c3  hc  hc  ca  ha  ha  c3  hc  hc  ha  hc  hc  c3  c3  
hc  hc  hc  c3  hc  hc  hc  hc  sx  ca  cx  ce  ca  ca  ss  ca  ca  ha  ca  ca  
ca  ca  c3  ha  ca  ca  ha  ha  c3  hc  hc  cp  ha  ha  c3  hc  hc  cp  c3  hc  
hc  ca  ca  c3  hc  hc  ca  ha  ca  ha  c3  hc  hc  ca  ha  ha  c3  hc  hc  ha  
hc  hc  c3  c3  hc  hc  hc  c3  hc  hc  hc  hc  sx  ca  cx  ce  ca  ca  ss  ca  
ca  ha  ca  ca  ca  ca  c3  ha  ca  ca  ha  ha  c3  hc  hc  cp  ha  ha  c3  hc  
hc  cp  c3  hc  hc  ca  ca  c3  hc  hc  ca  ha  ca  ha  c3  hc  hc  ca  ha  ha  
c3  hc  hc  ha  hc  hc  c3  c3  hc  hc  hc  c3  hc  hc  hc  hc  sx  ca  cx  ce  
ca  ca  ss  ca  ca  ha  ca  ca  ca  ca  c3  ha  ca  ca  ha  ha  c3  hc  hc  cp  
ha  ha  c3  hc  hc  cp  c3  hc  hc  ca  ca  c3  hc  hc  ca  ha  ca  ha  c3  hc  
hc  ca  ha  ha  c3  hc  hc  ha  hc  hc  c3  c3  hc  hc  hc  c3  hc  hc  hc  hc  
sx  ca  cx  ce  ca  ca  ss  ca  ca  ha  ca  ca  ca  ca  c3  ha  ca  ca  ha  ha  
c3  hc  hc  cp  ha  ha  c3  hc  hc  cp  c3  hc  hc  ca  ca  c3  hc  hc  ca  ha  
ca  ha  c3  hc  hc  ca  ha  ha  c3  hc  hc  ha  hc  hc  c3  c3  hc  hc  hc  c3  
hc  hc  hc  hc  sx  ca  cx  ce  ca  ca  ss  ca  ca  ha  ca  ca  ca  ca  c3  ha  
ca  ca  ha  ha  c3  hc  hc  cp  ha  ha  c3  hc  hc  cp  c3  hc  hc  ca  ca  c3  
hc  hc  ca  ha  ca  ha  c3  hc  hc  ca  ha  ha  c3  hc  hc  ha  hc  hc  c3  c3  
hc  hc  hc  c3  hc  hc  hc  hc  sx  ca  cx  ce  ca  ca  ss  ca  ca  ha  ca  ca  
ca  ca  c3  ha  ca  ca  ha  ha  c3  hc  hc  cp  ha  ha  c3  hc  hc  cp  c3  hc  
hc  ca  ca  c3  hc  hc  ca  ha  ca  ha  c3  hc  hc  ca  ha  ha  c3  hc  hc  ha  
hc  hc  c3  c3  hc  hc  hc  c3  hc  hc  hc  hc  sx  ca  cx  ce  ca  ca  ss  ca  
ca  ha  ca  ca  ca  ca  c3  ha  ca  ca  ha  ha  c3  hc  hc  cp  ha  ha  c3  hc  
hc  cp  c3  hc  hc  ca  ca  c3  hc  hc  ca  ha  ca  ha  c3  hc  hc  ca  ha  ha  
c3  hc  hc  ha  hc  hc  c3  c3  hc  hc  hc  c3  hc  hc  hc  hc  sx  ca  cx  ce  
ca  ca  ss  ca  ca  ha  ca  ca  ca  ca  c3  ha  ca  ca  ha  ha  c3  hc  hc  cp  
ha  ha  c3  hc  hc  cp  c3  hc  hc  ca  ca  c3  hc  hc  ca  ha  ca  ha  c3  hc  
hc  ca  ha  ha  c3  hc  hc  ha  hc  hc  c3  c3  hc  hc  hc  c3  hc  hc  hc  hc  
sx  ca  cx  ce  ca  ca  ss  ca  ca  ha  ca  ca  ca  ca  c3  ha  ca  ca  ha  ha  
c3  hc  hc  cp  ha  ha  c3  hc  hc  cp  c3  hc  hc  ca  ca  c3  hc  hc  ca  ha  
ca  ha  c3  hc  hc  ca  ha  ha  c3  hc  hc  ha  hc  hc  c3  c3  hc  hc  hc  c3  
hc  hc  hc  hc  sx  ca  cx  ce  ca  ca  ss  ca  ca  ha  ca  ca  ca  ca  c3  ha  
ca  ca  ha  ha  c3  hc  hc  cp  ha  ha  c3  hc  hc  cp  c3  hc  hc  ca  ca  c3  
hc  hc  ca  ha  ca  ha  c3  hc  hc  ca  ha  ha  c3  hc  hc  ha  hc  hc  c3  c3  
hc  hc  hc  c3  hc  hc  hc  hc  sx  ca  cx  ce  ca  ca  ss  ca  ca  ha  ca  ca  
ca  ca  c3  ha  ca  ca  ha  ha  c3  hc  hc  cp  ha  ha  c3  hc  hc  cp  c3  hc  
hc  ca  ca  c3  hc  hc  ca  ha  ca  ha  c3  hc  hc  ca  ha  ha  c3  hc  hc  ha  
hc  hc  c3  c3  hc  hc  hc  c3  hc  hc  hc  hc  sx  ca  cx  ce  ca  ca  ss  ca  
ca  ha  ca  ca  ca  ca  c3  ha  ca  ca  ha  ha  c3  hc  hc  cp  ha  ha  c3  hc  
hc  cp  c3  hc  hc  ca  ca  c3  hc  hc  ca  ha  ca  ha  c3  hc  hc  ca  ha  ha  
c3  hc  hc  ha  hc  hc  c3  c3  hc  hc  hc  c3  hc  hc  hc  hc  sx  ca  cx  ce  
ca  ca  ss  ca  ca  ha  ca  ca  ca  ca  c3  ha  ca  ca  ha  ha  c3  hc  hc  cp  
ha  ha  c3  hc  hc  cp  c3  hc  hc  ca  ca  c3  hc  hc  ca  ha  ca  ha  c3  hc  
hc  ca  ha  ha  c3  hc  hc  ha  hc  hc  c3  c3  hc  hc  hc  c3  hc  hc  hc  hc  
sx  ca  cx  ce  ca  ca  ss  ca  ca  ha  ca  ca  ca  ca  c3  ha  ca  ca  ha  ha  
c3  hc  hc  cp  ha  ha  c3  hc  hc  cp  c3  hc  hc  ca  ca  c3  hc  hc  ca  ha  
ca  ha  c3  hc  hc  ca  ha  ha  c3  hc  hc  ha  hc  hc  c3  c3  hc  hc  hc  c3  
hc  hc  hc  hc  sx  ca  cx  ce  ca  ca  ss  ca  ca  ha  ca  ca  ca  ca  c3  ha  
ca  ca  ha  ha  c3  hc  hc  cp  ha  ha  c3  hc  hc  cp  c3  hc  hc  ca  ca  c3  
hc  hc  ca  ha  ca  ha  c3  hc  hc  ca  ha  ha  c3  hc  hc  ha  hc  hc  c3  c3  
hc  hc  hc  c3  hc  hc  hc  hc  sx  ca  cx  ce  ca  ca  ss  ca  ca  ha  ca  ca  
ca  ca  c3  ha  ca  ca  ha  ha  c3  hc  hc  cp  ha  ha  c3  hc  hc  cp  c3  hc  
hc  ca  ca  c3  hc  hc  ca  ha  ca  ha  c3  hc  hc  ca  ha  ha  c3  hc  hc  ha  
hc  hc  c3  c3  hc  hc  hc  c3  hc  hc  hc  hc  sx  ca  cx  ce  ca  ca  ss  ca  
ca  ha  ca  ca  ca  ca  c3  ha  ca  ca  ha  ha  c3  hc  hc  cp  ha  ha  c3  hc  
hc  cp  c3  hc  hc  ca  ca  c3  hc  hc  ca  ha  ca  ha  c3  hc  hc  ca  ha  ha  
c3  hc  hc  ha  hc  hc  c3  c3  hc  hc  hc  c3  hc  hc  hc  hc  sx  ca  cx  ce  
ca  ca  ss  ca  ca  ha  ca  ca  ca  ca  c3  ha  ca  ca  ha  ha  c3  hc  hc  cp  
ha  ha  c3  hc  hc  cp  c3  hc  hc  ca  ca  c3  hc  hc  ca  ha  ca  ha  c3  hc  
hc  ca  ha  ha  c3  hc  hc  ha  hc  hc  c3  c3  hc  hc  hc  c3  hc  hc  hc  hc  
sx  ca  cx  ce  ca  ca  ss  ca  ca  ha  ca  ca  ca  ca  c3  ha  ca  ca  ha  ha  
c3  hc  hc  cp  ha  ha  c3  hc  hc  cp  c3  hc  hc  ca  ca  c3  hc  hc  ca  ha  
ca  ha  c3  hc  hc  ca  ha  ha  c3  hc  hc  ha  hc  hc  c3  c3  hc  hc  hc  c3  
hc  hc  hc  hc  sx  ca  cx  ce  ca  ca  ss  ca  ca  ha  ca  ca  ca  ca  c3  ha  
ca  ca  ha  ha  c3  hc  hc  cp  ha  ha  c3  hc  hc  cp  c3  hc  hc  ca  ca  c3  
hc  hc  ca  ha  ca  ha  c3  hc  hc  ca  ha  ha  c3  hc  hc  ha  hc  hc  c3  c3  
hc  hc  hc  c3  hc  hc  hc  hc  sx  ca  cx  ce  ca  ca  ss  ca  ca  ha  ca  ca  
ca  ca  c3  ha  ca  ca  ha  ha  c3  hc  hc  cp  ha  ha  c3  hc  hc  cp  c3  hc  
hc  ca  ca  c3  hc  hc  ca  ha  ca  ha  c3  hc  hc  ca  ha  ha  c3  hc  hc  ha  
hc  hc  c3  c3  hc  hc  hc  c3  hc  hc  hc  hc  sx  ca  cx  ce  ca  ca  ss  ca  
ca  ha  ca  ca  ca  ca  c3  ha  ca  ca  ha  ha  c3  hc  hc  cp  ha  ha  c3  hc  
hc  cp  c3  hc  hc  ca  ca  c3  hc  hc  ca  ha  ca  ha  c3  hc  hc  ca  ha  ha  
c3  hc  hc  ha  hc  hc  c3  c3  hc  hc  hc  c3  hc  hc  hc  hc  sx  ca  cx  ce  
ca  ca  ss  ca  ca  ha  ca  ca  ca  ca  c3  ha  ca  ca  ha  ha  c3  hc  hc  cp  
ha  ha  c3  hc  hc  cp  c3  hc  hc  ca  ca  c3  hc  hc  ca  ha  ca  ha  c3  hc  
hc  ca  ha  ha  c3  hc  hc  ha  hc  hc  c3  c3  hc  hc  hc  c3  hc  hc  hc  hc  
sx  ca  cx  ce  ca  ca  ss  ca  ca  ha  ca  ca  ca  ca  c3  ha  ca  ca  ha  ha  
c3  hc  hc  cp  ha  ha  c3  hc  hc  cp  c3  hc  hc  ca  ca  c3  hc  hc  ca  ha  
ca  ha  c3  hc  hc  ca  ha  ha  c3  hc  hc  ha  hc  hc  c3  c3  hc  hc  hc  c3  
hc  hc  hc  hc  sx  ca  cx  ce  ca  ca  ss  ca  ca  ha  ca  ca  ca  ca  c3  ha  
ca  ca  ha  ha  c3  hc  hc  cp  ha  ha  c3  hc  hc  cp  c3  hc  hc  ca  ca  c3  
hc  hc  ca  ha  ca  ha  c3  hc  hc  ca  ha  ha  c3  hc  hc  ha  hc  hc  c3  c3  
hc  hc  hc  c3  hc  hc  hc  hc  sx  ca  cx  ce  ca  ca  ss  ca  ca  ha  ca  ca  
ca  ca  c3  ha  ca  ca  ha  ha  c3  hc  hc  cp  ha  ha  c3  hc  hc  cp  c3  hc  
hc  ca  ca  c3  hc  hc  ca  ha  ca  ha  c3  hc  hc  ca  ha  ha  c3  hc  hc  ha  
hc  hc  c3  c3  hc  hc  hc  c3  hc  hc  hc  hc  sx  ca  cx  ce  ca  ca  ss  ca  
ca  ha  ca  ca  ca  ca  c3  ha  ca  ca  ha  ha  c3  hc  hc  cp  ha  ha  c3  hc  
hc  cp  c3  hc  hc  ca  ca  c3  hc  hc  ca  ha  ca  ha  c3  hc  hc  ca  ha  ha  
c3  hc  hc  ha  hc  hc  c3  c3  hc  hc  hc  c3  hc  hc  hc  hc  sx  ca  cx  ce  
ca  ca  ss  ca  ca  ha  ca  ca  ca  ca  c3  ha  ca  ca  ha  ha  c3  hc  hc  cp  
ha  ha  c3  hc  hc  cp  c3  hc  hc  ca  ca  c3  hc  hc  ca  ha  ca  ha  c3  hc  
hc  ca  ha  ha  c3  hc  hc  ha  hc  hc  c3  c3  hc  hc  hc  c3  hc  hc  hc  hc  
sx  ca  cx  ce  ca  ca  ss  ca  ca  ha  ca  ca  ca  ca  c3  ha  ca  ca  ha  ha  
c3  hc  hc  cp  ha  ha  c3  hc  hc  cp  c3  hc  hc  ca  ca  c3  hc  hc  ca  ha  
ca  ha  c3  hc  hc  ca  ha  ha  c3  hc  hc  ha  hc  hc  c3  c3  hc  hc  hc  c3  
hc  hc  hc  hc  sx  ca  cx  ce  ca  ca  ss  ca  ca  ha  ca  ca  ca  ca  c3  ha  
ca  ca  ha  ha  c3  hc  hc  cp  ha  ha  c3  hc  hc  cp  c3  hc  hc  ca  ca  c3  
hc  hc  ca  ha  ca  ha  c3  hc  hc  ca  ha  ha  c3  hc  hc  ha  hc  hc  c3  c3  
hc  hc  hc  c3  hc  hc  hc  hc  sx  ca  cx  ce  ca  ca  ss  ca  ca  ha  ca  ca  
ca  ca  c3  ha  ca  ca  ha  ha  c3  hc  hc  cp  ha  ha  c3  hc  hc  cp  c3  hc  
hc  ca  ca  c3  hc  hc  ca  ha  ca  ha  c3  hc  hc  ca  ha  ha  c3  hc  hc  ha  
hc  hc  c3  c3  hc  hc  hc  c3  hc  hc  hc  hc  sx  ca  cx  ce  ca  ca  ss  ca  
ca  ha  ca  ca  ca  ca  c3  ha  ca  ca  ha  ha  c3  hc  hc  cp  ha  ha  c3  hc  
hc  cp  c3  hc  hc  ca  ca  c3  hc  hc  ca  ha  ca  ha  c3  hc  hc  ca  ha  ha  
c3  hc  hc  ha  hc  hc  c3  c3  hc  hc  hc  c3  hc  hc  hc  hc  sx  ca  cx  ce  
ca  ca  ss  ca  ca  ha  ca  ca  ca  ca  c3  ha  ca  ca  ha  ha  c3  hc  hc  cp  
ha  ha  c3  hc  hc  cp  c3  hc  hc  ca  ca  c3  hc  hc  ca  ha  ca  ha  c3  hc  
hc  ca  ha  ha  c3  hc  hc  ha  hc  hc  c3  c3  hc  hc  hc  c3  hc  hc  hc  hc  
sx  ca  cx  ce  ca  ca  ss  ca  ca  ha  ca  ca  ca  ca  c3  ha  ca  ca  ha  ha  
c3  hc  hc  cp  ha  ha  c3  hc  hc  cp  c3  hc  hc  ca  ca  c3  hc  hc  ca  ha  
ca  ha  c3  hc  hc  ca  ha  ha  c3  hc  hc  ha  hc  hc  c3  c3  hc  hc  hc  c3  
hc  hc  hc  hc  sx  ca  cx  ce  ca  ca  ss  ca  ca  ha  ca  ca  ca  ca  c3  ha  
ca  ca  ha  ha  c3  hc  hc  cp  ha  ha  c3  hc  hc  cp  c3  hc  hc  ca  ca  c3  
hc  hc  ca  ha  ca  ha  c3  hc  hc  ca  ha  ha  c3  hc  hc  ha  hc  hc  c3  c3  
hc  hc  hc  c3  hc  hc  hc  hc  sx  ca  cx  ce  ca  ca  ss  ca  ca  ha  ca  ca  
ca  ca  c3  ha  ca  ca  ha  ha  c3  hc  hc  cp  ha  ha  c3  hc  hc  cp  c3  hc  
hc  ca  ca  c3  hc  hc  ca  ha  ca  ha  c3  hc  hc  ca  ha  ha  c3  hc  hc  ha  
hc  hc  c3  c3  hc  hc  hc  c3  hc  hc  hc  hc  sx  ca  cx  ce  ca  ca  ss  ca  
ca  ha  ca  ca  ca  ca  c3  ha  ca  ca  ha  ha  c3  hc  hc  cp  ha  ha  c3  hc  
hc  cp  c3  hc  hc  ca  ca  c3  hc  hc  ca  ha  ca  ha  c3  hc  hc  ca  ha  ha  
c3  hc  hc  ha  hc  hc  c3  c3  hc  hc  hc  c3  hc  hc  hc  hc  sx  ca  cx  ce  
ca  ca  ss  ca  ca  ha  ca  ca  ca  ca  c3  ha  ca  ca  ha  ha  c3  hc  hc  cp  
ha  ha  c3  hc  hc  cp  c3  hc  hc  ca  ca  c3  hc  hc  ca  ha  ca  ha  c3  hc  
hc  ca  ha  ha  c3  hc  hc  ha  hc  hc  c3  c3  hc  hc  hc  c3  hc  hc  hc  hc  
sx  ca  cx  ce  ca  ca  ss  ca  ca  ha  ca  ca  ca  ca  c3  ha  ca  ca  ha  ha  
c3  hc  hc  cp  ha  ha  c3  hc  hc  cp  c3  hc  hc  ca  ca  c3  hc  hc  ca  ha  
ca  ha  c3  hc  hc  ca  ha  ha  c3  hc  hc  ha  hc  hc  c3  c3  hc  hc  hc  c3  
hc  hc  hc  hc  sx  ca  cx  ce  ca  ca  ss  ca  ca  ha  ca  ca  ca  ca  c3  ha  
ca  ca  ha  ha  c3  hc  hc  cp  ha  ha  c3  hc  hc  cp  c3  hc  hc  ca  ca  c3  
hc  hc  ca  ha  ca  ha  c3  hc  hc  ca  ha  ha  c3  hc  hc  ha  hc  hc  c3  c3  
hc  hc  hc  c3  hc  hc  hc  hc  sx  ca  cx  ce  ca  ca  ss  ca  ca  ha  ca  ca  
ca  ca  c3  ha  ca  ca  ha  ha  c3  hc  hc  cp  ha  ha  c3  hc  hc  cp  c3  hc  
hc  ca  ca  c3  hc  hc  ca  ha  ca  ha  c3  hc  hc  ca  ha  ha  c3  hc  hc  ha  
hc  hc  c3  c3  hc  hc  hc  c3  hc  hc  hc  hc  sx  ca  cx  ce  ca  ca  ss  ca  
ca  ha  ca  ca  ca  ca  c3  ha  ca  ca  ha  ha  c3  hc  hc  cp  ha  ha  c3  hc  
hc  cp  c3  hc  hc  ca  ca  c3  hc  hc  ca  ha  ca  ha  c3  hc  hc  ca  ha  ha  
c3  hc  hc  ha  hc  hc  c3  c3  hc  hc  hc  c3  hc  hc  hc  hc  sx  ca  cx  ce  
ca  ca  ss  ca  ca  ha  ca  ca  ca  ca  c3  ha  ca  ca  ha  ha  c3  hc  hc  cp  
ha  ha  c3  hc  hc  cp  c3  hc  hc  ca  ca  c3  hc  hc  ca  ha  ca  ha  c3  hc  
hc  ca  ha  ha  c3  hc  hc  ha  hc  hc  c3  c3  hc  hc  hc  c3  hc  hc  hc  hc  
sx  ca  cx  ce  ca  ca  ss  ca  ca  ha  ca  ca  ca  ca  c3  ha  ca  ca  ha  ha  
c3  hc  hc  cp  ha  ha  c3  hc  hc  cp  c3  hc  hc  ca  ca  c3  hc  hc  ca  ha  
ca  ha  c3  hc  hc  ca  ha  ha  c3  hc  hc  ha  hc  hc  c3  c3  hc  hc  hc  c3  
hc  hc  hc  hc  sx  ca  cx  ce  ca  ca  ss  ca  ca  ha  ca  ca  ca  ca  c3  ha  
ca  ca  ha  ha  c3  hc  hc  cp  ha  ha  c3  hc  hc  cp  c3  hc  hc  ca  ca  c3  
hc  hc  ca  ha  ca  ha  c3  hc  hc  ca  ha  ha  c3  hc  hc  ha  hc  hc  c3  c3  
hc  hc  hc  c3  hc  hc  hc  hc  sx  ca  cx  ce  ca  ca  ss  ca  ca  ha  ca  ca  
ca  ca  c3  ha  ca  ca  ha  ha  c3  hc  hc  cp  ha  ha  c3  hc  hc  cp  c3  hc  
hc  ca  ca  c3  hc  hc  ca  ha  ca  ha  c3  hc  hc  ca  ha  ha  c3  hc  hc  ha  
hc  hc  c3  c3  hc  hc  hc  c3  hc  hc  hc  hc  sx  ca  cx  ce  ca  ca  ss  ca  
ca  ha  ca  ca  ca  ca  c3  ha  ca  ca  ha  ha  c3  hc  hc  cp  ha  ha  c3  hc  
hc  cp  c3  hc  hc  ca  ca  c3  hc  hc  ca  ha  ca  ha  c3  hc  hc  ca  ha  ha  
c3  hc  hc  ha  hc  hc  c3  c3  hc  hc  hc  c3  hc  hc  hc  hc  sx  ca  cx  ce  
ca  ca  ss  ca  ca  ha  ca  ca  ca  ca  c3  ha  ca  ca  ha  ha  c3  hc  hc  cp  
ha  ha  c3  hc  hc  cp  c3  hc  hc  ca  ca  c3  hc  hc  ca  ha  ca  ha  c3  hc  
hc  ca  ha  ha  c3  hc  hc  ha  hc  hc  c3  c3  hc  hc  hc  c3  hc  hc  hc  hc  
sx  ca  cx  ce  ca  ca  ss  ca  ca  ha  ca  ca  ca  ca  c3  ha  ca  ca  ha  ha  
c3  hc  hc  cp  ha  ha  c3  hc  hc  cp  c3  hc  hc  ca  ca  c3  hc  hc  ca  ha  
ca  ha  c3  hc  hc  ca  ha  ha  c3  hc  hc  ha  hc  hc  c3  c3  hc  hc  hc  c3  
hc  hc  hc  hc  sx  ca  cx  ce  ca  ca  ss  ca  ca  ha  ca  ca  ca  ca  c3  ha  
ca  ca  ha  ha  c3  hc  hc  cp  ha  ha  c3  hc  hc  cp  c3  hc  hc  ca  ca  c3  
hc  hc  ca  ha  ca  ha  c3  hc  hc  ca  ha  ha  c3  hc  hc  ha  hc  hc  c3  c3  
hc  hc  hc  c3  hc  hc  hc  hc  sx  ca  cx  ce  ca  ca  ss  ca  ca  ha  ca  ca  
ca  ca  c3  ha  ca  ca  ha  ha  c3  hc  hc  cp  ha  ha  c3  hc  hc  cp  c3  hc  
hc  ca  ca  c3  hc  hc  ca  ha  ca  ha  c3  hc  hc  ca  ha  ha  c3  hc  hc  ha  
hc  hc  c3  c3  hc  hc  hc  c3  hc  hc  hc  hc  sx  ca  cx  ce  ca  ca  ss  ca  
ca  ha  ca  ca  ca  ca  c3  ha  ca  ca  ha  ha  c3  hc  hc  cp  ha  ha  c3  hc  
hc  cp  c3  hc  hc  ca  ca  c3  hc  hc  ca  ha  ca  ha  c3  hc  hc  ca  ha  ha  
c3  hc  hc  ha  hc  hc  c3  c3  hc  hc  hc  c3  hc  hc  hc  hc  sx  ca  cx  ce  
ca  ca  ss  ca  ca  ha  ca  ca  ca  ca  c3  ha  ca  ca  ha  ha  c3  hc  hc  cp  
ha  ha  c3  hc  hc  cp  c3  hc  hc  ca  ca  c3  hc  hc  ca  ha  ca  ha  c3  hc  
hc  ca  ha  ha  c3  hc  hc  ha  hc  hc  c3  c3  hc  hc  hc  c3  hc  hc  hc  hc  
sx  ca  cx  ce  ca  ca  ss  ca  ca  ha  ca  ca  ca  ca  c3  ha  ca  ca  ha  ha  
c3  hc  hc  cp  ha  ha  c3  hc  hc  cp  c3  hc  hc  ca  ca  c3  hc  hc  ca  ha  
ca  ha  c3  hc  hc  ca  ha  ha  c3  hc  hc  ha  hc  hc  c3  c3  hc  hc  hc  c3  
hc  hc  hc  hc  sx  ca  cx  ce  ca  ca  ss  ca  ca  ha  ca  ca  ca  ca  c3  ha  
ca  ca  ha  ha  c3  hc  hc  cp  ha  ha  c3  hc  hc  cp  c3  hc  hc  ca  ca  c3  
hc  hc  ca  ha  ca  ha  c3  hc  hc  ca  ha  ha  c3  hc  hc  ha  hc  hc  c3  c3  
hc  hc  hc  c3  hc  hc  hc  hc  sx  ca  cx  ce  ca  ca  ss  ca  ca  ha  ca  ca  
ca  ca  c3  ha  ca  ca  ha  ha  c3  hc  hc  cp  ha  ha  c3  hc  hc  cp  c3  hc  
hc  ca  ca  c3  hc  hc  ca  ha  ca  ha  c3  hc  hc  ca  ha  ha  c3  hc  hc  ha  
hc  hc  c3  c3  hc  hc  hc  c3  hc  hc  hc  hc  sx  ca  cx  ce  ca  ca  ss  ca  
ca  ha  ca  ca  ca  ca  c3  ha  ca  ca  ha  ha  c3  hc  hc  cp  ha  ha  c3  hc  
hc  cp  c3  hc  hc  ca  ca  c3  hc  hc  ca  ha  ca  ha  c3  hc  hc  ca  ha  ha  
c3  hc  hc  ha  hc  hc  c3  c3  hc  hc  hc  c3  hc  hc  hc  hc  sx  ca  cx  ce  
ca  ca  ss  ca  ca  ha  ca  ca  ca  ca  c3  ha  ca  ca  ha  ha  c3  hc  hc  cp  
ha  ha  c3  hc  hc  cp  c3  hc  hc  ca  ca  c3  hc  hc  ca  ha  ca  ha  c3  hc  
hc  ca  ha  ha  c3  hc  hc  ha  hc  hc  c3  c3  hc  hc  hc  c3  hc  hc  hc  hc  
sx  ca  cx  ce  ca  ca  ss  ca  ca  ha  ca  ca  ca  ca  c3  ha  ca  ca  ha  ha  
c3  hc  hc  cp  ha  ha  c3  hc  hc  cp  c3  hc  hc  ca  ca  c3  hc  hc  ca  ha  
ca  ha  c3  hc  hc  ca  ha  ha  c3  hc  hc  ha  hc  hc  c3  c3  hc  hc  hc  c3  
hc  hc  hc  hc  sx  ca  cx  ce  ca  ca  ss  ca  ca  ha  ca  ca  ca  ca  c3  ha  
ca  ca  ha  ha  c3  hc  hc  cp  ha  ha  c3  hc  hc  cp  c3  hc  hc  ca  ca  c3  
hc  hc  ca  ha  ca  ha  c3  hc  hc  ca  ha  ha  c3  hc  hc  ha  hc  hc  c3  c3  
hc  hc  hc  c3  hc  hc  hc  hc  sx  ca  cx  ce  ca  ca  ss  ca  ca  ha  ca  ca  
ca  ca  c3  ha  ca  ca  ha  ha  c3  hc  hc  cp  ha  ha  c3  hc  hc  cp  c3  hc  
hc  ca  ca  c3  hc  hc  ca  ha  ca  ha  c3  hc  hc  ca  ha  ha  c3  hc  hc  ha  
hc  hc  c3  c3  hc  hc  hc  c3  hc  hc  hc  hc  sx  ca  cx  ce  ca  ca  ss  ca  
ca  ha  ca  ca  ca  ca  c3  ha  ca  ca  ha  ha  c3  hc  hc  cp  ha  ha  c3  hc  
hc  cp  c3  hc  hc  ca  ca  c3  hc  hc  ca  ha  ca  ha  c3  hc  hc  ca  ha  ha  
c3  hc  hc  ha  hc  hc  c3  c3  hc  hc  hc  c3  hc  hc  hc  hc  sx  ca  cx  ce  
ca  ca  ss  ca  ca  ha  ca  ca  ca  ca  c3  ha  ca  ca  ha  ha  c3  hc  hc  cp  
ha  ha  c3  hc  hc  cp  c3  hc  hc  ca  ca  c3  hc  hc  ca  ha  ca  ha  c3  hc  
hc  ca  ha  ha  c3  hc  hc  ha  hc  hc  c3  c3  hc  hc  hc  c3  hc  hc  hc  hc  
sx  ca  cx  ce  ca  ca  ss  ca  ca  ha  ca  ca  ca  ca  c3  ha  ca  ca  ha  ha  
c3  hc  hc  cp  ha  ha  c3  hc  hc  cp  c3  hc  hc  ca  ca  c3  hc  hc  ca  ha  
ca  ha  c3  hc  hc  ca  ha  ha  c3  hc  hc  ha  hc  hc  c3  c3  hc  hc  hc  c3  
hc  hc  hc  hc  sx  ca  cx  ce  ca  ca  ss  ca  ca  ha  ca  ca  ca  ca  c3  ha  
ca  ca  ha  ha  c3  hc  hc  cp  ha  ha  c3  hc  hc  cp  c3  hc  hc  ca  ca  c3  
hc  hc  ca  ha  ca  ha  c3  hc  hc  ca  ha  ha  c3  hc  hc  ha  hc  hc  c3  c3  
hc  hc  hc  c3  hc  hc  hc  hc  sx  ca  cx  ce  ca  ca  ss  ca  ca  ha  ca  ca  
ca  ca  c3  ha  ca  ca  ha  ha  c3  hc  hc  cp  ha  ha  c3  hc  hc  cp  c3  hc  
hc  ca  ca  c3  hc  hc  ca  ha  ca  ha  c3  hc  hc  ca  ha  ha  c3  hc  hc  ha  
hc  hc  c3  c3  hc  hc  hc  c3  hc  hc  hc  hc  sx  ca  cx  ce  ca  ca  ss  ca  
ca  ha  ca  ca  ca  ca  c3  ha  ca  ca  ha  ha  c3  hc  hc  cp  ha  ha  c3  hc  
hc  cp  c3  hc  hc  ca  ca  c3  hc  hc  ca  ha  ca  ha  c3  hc  hc  ca  ha  ha  
c3  hc  hc  ha  hc  hc  c3  c3  hc  hc  hc  c3  hc  hc  hc  hc  sx  ca  cx  ce  
ca  ca  ss  ca  ca  ha  ca  ca  ca  ca  c3  ha  ca  ca  ha  ha  c3  hc  hc  cp  
ha  ha  c3  hc  hc  cp  c3  hc  hc  ca  ca  c3  hc  hc  ca  ha  ca  ha  c3  hc  
hc  ca  ha  ha  c3  hc  hc  ha  hc  hc  c3  c3  hc  hc  hc  c3  hc  hc  hc  hc  
sx  ca  cx  ce  ca  ca  ss  ca  ca  ha  ca  ca  ca  ca  c3  ha  ca  ca  ha  ha  
c3  hc  hc  cp  ha  ha  c3  hc  hc  cp  c3  hc  hc  ca  ca  c3  hc  hc  ca  ha  
ca  ha  c3  hc  hc  ca  ha  ha  c3  hc  hc  ha  hc  hc  c3  c3  hc  hc  hc  c3  
hc  hc  hc  hc  sx  ca  cx  ce  ca  ca  ss  ca  ca  ha  ca  ca  ca  ca  c3  ha  
ca  ca  ha  ha  c3  hc  hc  cp  ha  ha  c3  hc  hc  cp  c3  hc  hc  ca  ca  c3  
hc  hc  ca  ha  ca  ha  c3  hc  hc  ca  ha  ha  c3  hc  hc  ha  hc  hc  c3  c3  
hc  hc  hc  c3  hc  hc  hc  hc  sx  ca  cx  ce  ca  ca  ss  ca  ca  ha  ca  ca  
ca  ca  c3  ha  ca  ca  ha  ha  c3  hc  hc  cp  ha  ha  c3  hc  hc  cp  c3  hc  
hc  ca  ca  c3  hc  hc  ca  ha  ca  ha  c3  hc  hc  ca  ha  ha  c3  hc  hc  ha  
hc  hc  c3  c3  hc  hc  hc  c3  hc  hc  hc  hc  sx  ca  cx  ce  ca  ca  ss  ca  
ca  ha  ca  ca  ca  ca  c3  ha  ca  ca  ha  ha  c3  hc  hc  cp  ha  ha  c3  hc  
hc  cp  c3  hc  hc  ca  ca  c3  hc  hc  ca  ha  ca  ha  c3  hc  hc  ca  ha  ha  
c3  hc  hc  ha  hc  hc  c3  c3  hc  hc  hc  c3  hc  hc  hc  hc  sx  ca  cx  ce  
ca  ca  ss  ca  ca  ha  ca  ca  ca  ca  c3  ha  ca  ca  ha  ha  c3  hc  hc  cp  
ha  ha  c3  hc  hc  cp  c3  hc  hc  ca  ca  c3  hc  hc  ca  ha  ca  ha  c3  hc  
hc  ca  ha  ha  c3  hc  hc  ha  hc  hc  c3  c3  hc  hc  hc  c3  hc  hc  hc  hc  
sx  ca  cx  ce  ca  ca  ss  ca  ca  ha  ca  ca  ca  ca  c3  ha  ca  ca  ha  ha  
c3  hc  hc  cp  ha  ha  c3  hc  hc  cp  c3  hc  hc  ca  ca  c3  hc  hc  ca  ha  
ca  ha  c3  hc  hc  ca  ha  ha  c3  hc  hc  ha  hc  hc  c3  c3  hc  hc  hc  c3  
hc  hc  hc  hc  sx  ca  cx  ce  ca  ca  ss  ca  ca  ha  ca  ca  ca  ca  c3  ha  
ca  ca  ha  ha  c3  hc  hc  cp  ha  ha  c3  hc  hc  cp  c3  hc  hc  ca  ca  c3  
hc  hc  ca  ha  ca  ha  c3  hc  hc  ca  ha  ha  c3  hc  hc  ha  hc  hc  c3  c3  
hc  hc  hc  c3  hc  hc  hc  hc  sx  ca  cx  ce  ca  ca  ss  ca  ca  ha  ca  ca  
ca  ca  c3  ha  ca  ca  ha  ha  c3  hc  hc  cp  ha  ha  c3  hc  hc  cp  c3  hc  
hc  ca  ca  c3  hc  hc  ca  ha  ca  ha  c3  hc  hc  ca  ha  ha  c3  hc  hc  ha  
hc  hc  c3  c3  hc  hc  hc  c3  hc  hc  hc  hc  sx  ca  cx  ce  ca  ca  ss  ca  
ca  ha  ca  ca  ca  ca  c3  ha  ca  ca  ha  ha  c3  hc  hc  cp  ha  ha  c3  hc  
hc  cp  c3  hc  hc  ca  ca  c3  hc  hc  ca  ha  ca  ha  c3  hc  hc  ca  ha  ha  
c3  hc  hc  ha  hc  hc  c3  c3  hc  hc  hc  c3  hc  hc  hc  hc  sx  ca  cx  ce  
ca  ca  ss  ca  ca  ha  ca  ca  ca  ca  c3  ha  ca  ca  ha  ha  c3  hc  hc  cp  
ha  ha  c3  hc  hc  cp  c3  hc  hc  ca  ca  c3  hc  hc  ca  ha  ca  ha  c3  hc  
hc  ca  ha  ha  c3  hc  hc  ha  hc  hc  c3  c3  hc  hc  hc  c3  hc  hc  hc  hc  
sx  ca  cx  ce  ca  ca  ss  ca  ca  ha  ca  ca  ca  ca  c3  ha  ca  ca  ha  ha  
c3  hc  hc  cp  ha  ha  c3  hc  hc  cp  c3  hc  hc  ca  ca  c3  hc  hc  ca  ha  
ca  ha  c3  hc  hc  ca  ha  ha  c3  hc  hc  ha  hc  hc  c3  c3  hc  hc  hc  c3  
hc  hc  hc  hc  sx  ca  cx  ce  ca  ca  ss  ca  ca  ha  ca  ca  ca  ca  c3  ha  
ca  ca  ha  ha  c3  hc  hc  cp  ha  ha  c3  hc  hc  cp  c3  hc  hc  ca  ca  c3  
hc  hc  ca  ha  ca  ha  c3  hc  hc  ca  ha  ha  c3  hc  hc  ha  hc  hc  c3  c3  
hc  hc  hc  c3  hc  hc  hc  hc  sx  ca  cx  ce  ca  ca  ss  ca  ca  ha  ca  ca  
ca  ca  c3  ha  ca  ca  ha  ha  c3  hc  hc  cp  ha  ha  c3  hc  hc  cp  c3  hc  
hc  ca  ca  c3  hc  hc  ca  ha  ca  ha  c3  hc  hc  ca  ha  ha  c3  hc  hc  ha  
hc  hc  c3  c3  hc  hc  hc  c3  hc  hc  hc  hc  sx  ca  cx  ce  ca  ca  ss  ca  
ca  ha  ca  ca  ca  ca  c3  ha  ca  ca  ha  ha  c3  hc  hc  cp  ha  ha  c3  hc  
hc  cp  c3  hc  hc  ca  ca  c3  hc  hc  ca  ha  ca  ha  c3  hc  hc  ca  ha  ha  
c3  hc  hc  ha  hc  hc  c3  c3  hc  hc  hc  c3  hc  hc  hc  hc  sx  ca  cx  ce  
ca  ca  ss  ca  ca  ha  ca  ca  ca  ca  c3  ha  ca  ca  ha  ha  c3  hc  hc  cp  
ha  ha  c3  hc  hc  cp  c3  hc  hc  ca  ca  c3  hc  hc  ca  ha  ca  ha  c3  hc  
hc  ca  ha  ha  c3  hc  hc  ha  hc  hc  c3  c3  hc  hc  hc  c3  hc  hc  hc  hc  
sx  ca  cx  ce  ca  ca  ss  ca  ca  ha  ca  ca  ca  ca  c3  ha  ca  ca  ha  ha  
c3  hc  hc  cp  ha  ha  c3  hc  hc  cp  c3  hc  hc  ca  ca  c3  hc  hc  ca  ha  
ca  ha  c3  hc  hc  ca  ha  ha  c3  hc  hc  ha  hc  hc  c3  c3  hc  hc  hc  c3  
hc  hc  hc  hc  sx  ca  cx  ce  ca  ca  ss  ca  ca  ha  ca  ca  ca  ca  c3  ha  
ca  ca  ha  ha  c3  hc  hc  cp  ha  ha  c3  hc  hc  cp  c3  hc  hc  ca  ca  c3  
hc  hc  ca  ha  ca  ha  c3  hc  hc  ca  ha  ha  c3  hc  hc  ha  hc  hc  c3  c3  
hc  hc  hc  c3  hc  hc  hc  hc  sx  ca  cx  ce  ca  ca  ss  ca  ca  ha  ca  ca  
ca  ca  c3  ha  ca  ca  ha  ha  c3  hc  hc  cp  ha  ha  c3  hc  hc  cp  c3  hc  
hc  ca  ca  c3  hc  hc  ca  ha  ca  ha  c3  hc  hc  ca  ha  ha  c3  hc  hc  ha  
hc  hc  c3  c3  hc  hc  hc  c3  hc  hc  hc  hc  sx  ca  cx  ce  ca  ca  ss  ca  
ca  ha  ca  ca  ca  ca  c3  ha  ca  ca  ha  ha  c3  hc  hc  cp  ha  ha  c3  hc  
hc  cp  c3  hc  hc  ca  ca  c3  hc  hc  ca  ha  ca  ha  c3  hc  hc  ca  ha  ha  
c3  hc  hc  ha  hc  hc  c3  c3  hc  hc  hc  c3  hc  hc  hc  hc  sx  ca  cx  ce  
ca  ca  ss  ca  ca  ha  ca  ca  ca  ca  c3  ha  ca  ca  ha  ha  c3  hc  hc  cp  
ha  ha  c3  hc  hc  cp  c3  hc  hc  ca  ca  c3  hc  hc  ca  ha  ca  ha  c3  hc  
hc  ca  ha  ha  c3  hc  hc  ha  hc  hc  c3  c3  hc  hc  hc  c3  hc  hc  hc  hc  
sx  ca  cx  ce  ca  ca  ss  ca  ca  ha  ca  ca  ca  ca  c3  ha  ca  ca  ha  ha  
c3  hc  hc  cp  ha  ha  c3  hc  hc  cp  c3  hc  hc  ca  ca  c3  hc  hc  ca  ha  
ca  ha  c3  hc  hc  ca  ha  ha  c3  hc  hc  ha  hc  hc  c3  c3  hc  hc  hc  c3  
hc  hc  hc  hc  sx  ca  cx  ce  ca  ca  ss  ca  ca  ha  ca  ca  ca  ca  c3  ha  
ca  ca  ha  ha  c3  hc  hc  cp  ha  ha  c3  hc  hc  cp  c3  hc  hc  ca  ca  c3  
hc  hc  ca  ha  ca  ha  c3  hc  hc  ca  ha  ha  c3  hc  hc  ha  hc  hc  c3  c3  
hc  hc  hc  c3  hc  hc  hc  hc  sx  ca  cx  ce  ca  ca  ss  ca  ca  ha  ca  ca  
ca  ca  c3  ha  ca  ca  ha  ha  c3  hc  hc  cp  ha  ha  c3  hc  hc  cp  c3  hc  
hc  ca  ca  c3  hc  hc  ca  ha  ca  ha  c3  hc  hc  ca  ha  ha  c3  hc  hc  ha  
hc  hc  c3  c3  hc  hc  hc  c3  hc  hc  hc  hc  sx  ca  cx  ce  ca  ca  ss  ca  
ca  ha  ca  ca  ca  ca  c3  ha  ca  ca  ha  ha  c3  hc  hc  cp  ha  ha  c3  hc  
hc  cp  c3  hc  hc  ca  ca  c3  hc  hc  ca  ha  ca  ha  c3  hc  hc  ca  ha  ha  
c3  hc  hc  ha  hc  hc  c3  c3  hc  hc  hc  c3  hc  hc  hc  hc  sx  ca  cx  ce  
ca  ca  ss  ca  ca  ha  ca  ca  ca  ca  c3  ha  ca  ca  ha  ha  c3  hc  hc  cp  
ha  ha  c3  hc  hc  cp  c3  hc  hc  ca  ca  c3  hc  hc  ca  ha  ca  ha  c3  hc  
hc  ca  ha  ha  c3  hc  hc  ha  hc  hc  c3  c3  hc  hc  hc  c3  hc  hc  hc  hc  
sx  ca  cx  ce  ca  ca  ss  ca  ca  ha  ca  ca  ca  ca  c3  ha  ca  ca  ha  ha  
c3  hc  hc  cp  ha  ha  c3  hc  hc  cp  c3  hc  hc  ca  ca  c3  hc  hc  ca  ha  
ca  ha  c3  hc  hc  ca  ha  ha  c3  hc  hc  ha  hc  hc  c3  c3  hc  hc  hc  c3  
hc  hc  hc  hc  sx  ca  cx  ce  ca  ca  ss  ca  ca  ha  ca  ca  ca  ca  c3  ha  
ca  ca  ha  ha  c3  hc  hc  cp  ha  ha  c3  hc  hc  cp  c3  hc  hc  ca  ca  c3  
hc  hc  ca  ha  ca  ha  c3  hc  hc  ca  ha  ha  c3  hc  hc  ha  hc  hc  c3  c3  
hc  hc  hc  c3  hc  hc  hc  hc  sx  ca  cx  ce  ca  ca  ss  ca  ca  ha  ca  ca  
ca  ca  c3  ha  ca  ca  ha  ha  c3  hc  hc  cp  ha  ha  c3  hc  hc  cp  c3  hc  
hc  ca  ca  c3  hc  hc  ca  ha  ca  ha  c3  hc  hc  ca  ha  ha  c3  hc  hc  ha  
hc  hc  c3  c3  hc  hc  hc  c3  hc  hc  hc  hc  sx  ca  cx  ce  ca  ca  ss  ca  
ca  ha  ca  ca  ca  ca  c3  ha  ca  ca  ha  ha  c3  hc  hc  cp  ha  ha  c3  hc  
hc  cp  c3  hc  hc  ca  ca  c3  hc  hc  ca  ha  ca  ha  c3  hc  hc  ca  ha  ha  
c3  hc  hc  ha  hc  hc  c3  c3  hc  hc  hc  c3  hc  hc  hc  hc  sx  ca  cx  ce  
ca  ca  ss  ca  ca  ha  ca  ca  ca  ca  c3  ha  ca  ca  ha  ha  c3  hc  hc  cp  
ha  ha  c3  hc  hc  cp  c3  hc  hc  ca  ca  c3  hc  hc  ca  ha  ca  ha  c3  hc  
hc  ca  ha  ha  c3  hc  hc  ha  hc  hc  c3  c3  hc  hc  hc  c3  hc  hc  hc  hc  
sx  ca  cx  ce  ca  ca  ss  ca  ca  ha  ca  ca  ca  ca  c3  ha  ca  ca  ha  ha  
c3  hc  hc  cp  ha  ha  c3  hc  hc  cp  c3  hc  hc  ca  ca  c3  hc  hc  ca  ha  
ca  ha  c3  hc  hc  ca  ha  ha  c3  hc  hc  ha  hc  hc  c3  c3  hc  hc  hc  c3  
hc  hc  hc  hc  sx  ca  cx  ce  ca  ca  ss  ca  ca  ha  ca  ca  ca  ca  c3  ha  
ca  ca  ha  ha  c3  hc  hc  cp  ha  ha  c3  hc  hc  cp  c3  hc  hc  ca  ca  c3  
hc  hc  ca  ha  ca  ha  c3  hc  hc  ca  ha  ha  c3  hc  hc  ha  hc  hc  c3  c3  
hc  hc  hc  c3  hc  hc  hc  hc  sx  ca  cx  ce  ca  ca  ss  ca  ca  ha  ca  ca  
ca  ca  c3  ha  ca  ca  ha  ha  c3  hc  hc  cp  ha  ha  c3  hc  hc  cp  c3  hc  
hc  ca  ca  c3  hc  hc  ca  ha  ca  ha  c3  hc  hc  ca  ha  ha  c3  hc  hc  ha  
hc  hc  c3  c3  hc  hc  hc  c3  hc  hc  hc  hc  sx  ca  cx  ce  ca  ca  ss  ca  
ca  ha  ca  ca  ca  ca  c3  ha  ca  ca  ha  ha  c3  hc  hc  cp  ha  ha  c3  hc  
hc  cp  c3  hc  hc  ca  ca  c3  hc  hc  ca  ha  ca  ha  c3  hc  hc  ca  ha  ha  
c3  hc  hc  ha  hc  hc  c3  c3  hc  hc  hc  c3  hc  hc  hc  hc  sx  ca  cx  ce  
ca  ca  ss  ca  ca  ha  ca  ca  ca  ca  c3  ha  ca  ca  ha  ha  c3  hc  hc  cp  
ha  ha  c3  hc  hc  cp  c3  hc  hc  ca  ca  c3  hc  hc  ca  ha  ca  ha  c3  hc  
hc  ca  ha  ha  c3  hc  hc  ha  hc  hc  c3  c3  hc  hc  hc  c3  hc  hc  hc  hc  
sx  ca  cx  ce  ca  ca  ss  ca  ca  ha  ca  ca  ca  ca  c3  ha  ca  ca  ha  ha  
c3  hc  hc  cp  ha  ha  c3  hc  hc  cp  c3  hc  hc  ca  ca  c3  hc  hc  ca  ha  
ca  ha  c3  hc  hc  ca  ha  ha  c3  hc  hc  ha  hc  hc  c3  c3  hc  hc  hc  c3  
hc  hc  hc  hc  sx  ca  cx  ce  ca  ca  ss  ca  ca  ha  ca  ca  ca  ca  c3  ha  
ca  ca  ha  ha  c3  hc  hc  cp  ha  ha  c3  hc  hc  cp  c3  hc  hc  ca  ca  c3  
hc  hc  ca  ha  ca  ha  c3  hc  hc  ca  ha  ha  c3  hc  hc  ha  hc  hc  c3  c3  
hc  hc  hc  c3  hc  hc  hc  hc  sx  ca  cx  ce  ca  ca  ss  ca  ca  ha  ca  ca  
ca  ca  c3  ha  ca  ca  ha  ha  c3  hc  hc  cp  ha  ha  c3  hc  hc  cp  c3  hc  
hc  ca  ca  c3  hc  hc  ca  ha  ca  ha  c3  hc  hc  ca  ha  ha  c3  hc  hc  ha  
hc  hc  c3  c3  hc  hc  hc  c3  hc  hc  hc  hc  sx  ca  cx  ce  ca  ca  ss  ca  
ca  ha  ca  ca  ca  ca  c3  ha  ca  ca  ha  ha  c3  hc  hc  cp  ha  ha  c3  hc  
hc  cp  c3  hc  hc  ca  ca  c3  hc  hc  ca  ha  ca  ha  c3  hc  hc  ca  ha  ha  
c3  hc  hc  ha  hc  hc  c3  c3  hc  hc  hc  c3  hc  hc  hc  hc  sx  ca  cx  ce  
ca  ca  ss  ca  ca  ha  ca  ca  ca  ca  c3  ha  ca  ca  ha  ha  c3  hc  hc  cp  
ha  ha  c3  hc  hc  cp  c3  hc  hc  ca  ca  c3  hc  hc  ca  ha  ca  ha  c3  hc  
hc  ca  ha  ha  c3  hc  hc  ha  hc  hc  c3  c3  hc  hc  hc  c3  hc  hc  hc  hc  
sx  ca  cx  ce  ca  ca  ss  ca  ca  ha  ca  ca  ca  ca  c3  ha  ca  ca  ha  ha  
c3  hc  hc  cp  ha  ha  c3  hc  hc  cp  c3  hc  hc  ca  ca  c3  hc  hc  ca  ha  
ca  ha  c3  hc  hc  ca  ha  ha  c3  hc  hc  ha  hc  hc  c3  c3  hc  hc  hc  c3  
hc  hc  hc  hc  sx  ca  cx  ce  ca  ca  ss  ca  ca  ha  ca  ca  ca  ca  c3  ha  
ca  ca  ha  ha  c3  hc  hc  cp  ha  ha  c3  hc  hc  cp  c3  hc  hc  ca  ca  c3  
hc  hc  ca  ha  ca  ha  c3  hc  hc  ca  ha  ha  c3  hc  hc  ha  hc  hc  c3  c3  
hc  hc  hc  c3  hc  hc  hc  hc  sx  ca  cx  ce  ca  ca  ss  ca  ca  ha  ca  ca  
ca  ca  c3  ha  ca  ca  ha  ha  c3  hc  hc  cp  ha  ha  c3  hc  hc  cp  c3  hc  
hc  ca  ca  c3  hc  hc  ca  ha  ca  ha  c3  hc  hc  ca  ha  ha  c3  hc  hc  ha  
hc  hc  c3  c3  hc  hc  hc  c3  hc  hc  hc  hc  sx  ca  cx  ce  ca  ca  ss  ca  
ca  ha  ca  ca  ca  ca  c3  ha  ca  ca  ha  ha  c3  hc  hc  cp  ha  ha  c3  hc  
hc  cp  c3  hc  hc  ca  ca  c3  hc  hc  ca  ha  ca  ha  c3  hc  hc  ca  ha  ha  
c3  hc  hc  ha  hc  hc  c3  c3  hc  hc  hc  c3  hc  hc  hc  hc  sx  ca  cx  ce  
ca  ca  ss  ca  ca  ha  ca  ca  ca  ca  c3  ha  ca  ca  ha  ha  c3  hc  hc  cp  
ha  ha  c3  hc  hc  cp  c3  hc  hc  ca  ca  c3  hc  hc  ca  ha  ca  ha  c3  hc  
hc  ca  ha  ha  c3  hc  hc  ha  hc  hc  c3  c3  hc  hc  hc  c3  hc  hc  hc  hc  
sx  ca  cx  ce  ca  ca  ss  ca  ca  ha  ca  ca  ca  ca  c3  ha  ca  ca  ha  ha  
c3  hc  hc  cp  ha  ha  c3  hc  hc  cp  c3  hc  hc  ca  ca  c3  hc  hc  ca  ha  
ca  ha  c3  hc  hc  ca  ha  ha  c3  hc  hc  ha  hc  hc  c3  c3  hc  hc  hc  c3  
hc  hc  hc  hc  sx  ca  cx  ce  ca  ca  ss  ca  ca  ha  ca  ca  ca  ca  c3  ha  
ca  ca  ha  ha  c3  hc  hc  cp  ha  ha  c3  hc  hc  cp  c3  hc  hc  ca  ca  c3  
hc  hc  ca  ha  ca  ha  c3  hc  hc  ca  ha  ha  c3  hc  hc  ha  hc  hc  c3  c3  
hc  hc  hc  c3  hc  hc  hc  hc  sx  ca  cx  ce  ca  ca  ss  ca  ca  ha  ca  ca  
ca  ca  c3  ha  ca  ca  ha  ha  c3  hc  hc  cp  ha  ha  c3  hc  hc  cp  c3  hc  
hc  ca  ca  c3  hc  hc  ca  ha  ca  ha  c3  hc  hc  ca  ha  ha  c3  hc  hc  ha  
hc  hc  c3  c3  hc  hc  hc  c3  hc  hc  hc  hc  sx  ca  cx  ce  ca  ca  ss  ca  
ca  ha  ca  ca  ca  ca  c3  ha  ca  ca  ha  ha  c3  hc  hc  cp  ha  ha  c3  hc  
hc  cp  c3  hc  hc  ca  ca  c3  hc  hc  ca  ha  ca  ha  c3  hc  hc  ca  ha  ha  
c3  hc  hc  ha  hc  hc  c3  c3  hc  hc  hc  c3  hc  hc  hc  hc  sx  ca  cx  ce  
ca  ca  ss  ca  ca  ha  ca  ca  ca  ca  c3  ha  ca  ca  ha  ha  c3  hc  hc  cp  
ha  ha  c3  hc  hc  cp  c3  hc  hc  ca  ca  c3  hc  hc  ca  ha  ca  ha  c3  hc  
hc  ca  ha  ha  c3  hc  hc  ha  hc  hc  c3  c3  hc  hc  hc  c3  hc  hc  hc  hc  
sx  ca  cx  ce  ca  ca  ss  ca  ca  ha  ca  ca  ca  ca  c3  ha  ca  ca  ha  ha  
c3  hc  hc  cp  ha  ha  c3  hc  hc  cp  c3  hc  hc  ca  ca  c3  hc  hc  ca  ha  
ca  ha  c3  hc  hc  ca  ha  ha  c3  hc  hc  ha  hc  hc  c3  c3  hc  hc  hc  c3  
hc  hc  hc  hc  sx  ca  cx  ce  ca  ca  ss  ca  ca  ha  ca  ca  ca  ca  c3  ha  
ca  ca  ha  ha  c3  hc  hc  cp  ha  ha  c3  hc  hc  cp  c3  hc  hc  ca  ca  c3  
hc  hc  ca  ha  ca  ha  c3  hc  hc  ca  ha  ha  c3  hc  hc  ha  hc  hc  c3  c3  
hc  hc  hc  c3  hc  hc  hc  hc  sx  ca  cx  ce  ca  ca  ss  ca  ca  ha  ca  ca  
ca  ca  c3  ha  ca  ca  ha  ha  c3  hc  hc  cp  ha  ha  c3  hc  hc  cp  c3  hc  
hc  ca  ca  c3  hc  hc  ca  ha  ca  ha  c3  hc  hc  ca  ha  ha  c3  hc  hc  ha  
hc  hc  c3  c3  hc  hc  hc  c3  hc  hc  hc  hc  sx  ca  cx  ce  ca  ca  ss  ca  
ca  ha  ca  ca  ca  ca  c3  ha  ca  ca  ha  ha  c3  hc  hc  cp  ha  ha  c3  hc  
hc  cp  c3  hc  hc  ca  ca  c3  hc  hc  ca  ha  ca  ha  c3  hc  hc  ca  ha  ha  
c3  hc  hc  ha  hc  hc  c3  c3  hc  hc  hc  c3  hc  hc  hc  hc  sx  ca  cx  ce  
ca  ca  ss  ca  ca  ha  ca  ca  ca  ca  c3  ha  ca  ca  ha  ha  c3  hc  hc  cp  
ha  ha  c3  hc  hc  cp  c3  hc  hc  ca  ca  c3  hc  hc  ca  ha  ca  ha  c3  hc  
hc  ca  ha  ha  c3  hc  hc  ha  hc  hc  c3  c3  hc  hc  hc  c3  hc  hc  hc  hc  
sx  ca  cx  ce  ca  ca  ss  ca  ca  ha  ca  ca  ca  ca  c3  ha  ca  ca  ha  ha  
c3  hc  hc  cp  ha  ha  c3  hc  hc  cp  c3  hc  hc  ca  ca  c3  hc  hc  ca  ha  
ca  ha  c3  hc  hc  ca  ha  ha  c3  hc  hc  ha  hc  hc  c3  c3  hc  hc  hc  c3  
hc  hc  hc  hc  sx  ca  cx  ce  ca  ca  ss  ca  ca  ha  ca  ca  ca  ca  c3  ha  
ca  ca  ha  ha  c3  hc  hc  cp  ha  ha  c3  hc  hc  cp  c3  hc  hc  ca  ca  c3  
hc  hc  ca  ha  ca  ha  c3  hc  hc  ca  ha  ha  c3  hc  hc  ha  hc  hc  c3  c3  
hc  hc  hc  c3  hc  hc  hc  hc  sx  ca  cx  ce  ca  ca  ss  ca  ca  ha  ca  ca  
ca  ca  c3  ha  ca  ca  ha  ha  c3  hc  hc  cp  ha  ha  c3  hc  hc  cp  c3  hc  
hc  ca  ca  c3  hc  hc  ca  ha  ca  ha  c3  hc  hc  ca  ha  ha  c3  hc  hc  ha  
hc  hc  c3  c3  hc  hc  hc  c3  hc  hc  hc  hc  sx  ca  cx  ce  ca  ca  ss  ca  
ca  ha  ca  ca  ca  ca  c3  ha  ca  ca  ha  ha  c3  hc  hc  cp  ha  ha  c3  hc  
hc  cp  c3  hc  hc  ca  ca  c3  hc  hc  ca  ha  ca  ha  c3  hc  hc  ca  ha  ha  
c3  hc  hc  ha  hc  hc  c3  c3  hc  hc  hc  c3  hc  hc  hc  hc  sx  ca  cx  ce  
ca  ca  ss  ca  ca  ha  ca  ca  ca  ca  c3  ha  ca  ca  ha  ha  c3  hc  hc  cp  
ha  ha  c3  hc  hc  cp  c3  hc  hc  ca  ca  c3  hc  hc  ca  ha  ca  ha  c3  hc  
hc  ca  ha  ha  c3  hc  hc  ha  hc  hc  c3  c3  hc  hc  hc  c3  hc  hc  hc  hc  
sx  ca  cx  ce  ca  ca  ss  ca  ca  ha  ca  ca  ca  ca  c3  ha  ca  ca  ha  ha  
c3  hc  hc  cp  ha  ha  c3  hc  hc  cp  c3  hc  hc  ca  ca  c3  hc  hc  ca  ha  
ca  ha  c3  hc  hc  ca  ha  ha  c3  hc  hc  ha  hc  hc  c3  c3  hc  hc  hc  c3  
hc  hc  hc  hc  sx  ca  cx  ce  ca  ca  ss  ca  ca  ha  ca  ca  ca  ca  c3  ha  
ca  ca  ha  ha  c3  hc  hc  cp  ha  ha  c3  hc  hc  cp  c3  hc  hc  ca  ca  c3  
hc  hc  ca  ha  ca  ha  c3  hc  hc  ca  ha  ha  c3  hc  hc  ha  hc  hc  c3  c3  
hc  hc  hc  c3  hc  hc  hc  hc  sx  ca  cx  ce  ca  ca  ss  ca  ca  ha  ca  ca  
ca  ca  c3  ha  ca  ca  ha  ha  c3  hc  hc  cp  ha  ha  c3  hc  hc  cp  c3  hc  
hc  ca  ca  c3  hc  hc  ca  ha  ca  ha  c3  hc  hc  ca  ha  ha  c3  hc  hc  ha  
hc  hc  c3  c3  hc  hc  hc  c3  hc  hc  hc  hc  sx  ca  cx  ce  ca  ca  ss  ca  
ca  ha  ca  ca  ca  ca  c3  ha  ca  ca  ha  ha  c3  hc  hc  cp  ha  ha  c3  hc  
hc  cp  c3  hc  hc  ca  ca  c3  hc  hc  ca  ha  ca  ha  c3  hc  hc  ca  ha  ha  
c3  hc  hc  ha  hc  hc  c3  c3  hc  hc  hc  c3  hc  hc  hc  hc  sx  ca  cx  ce  
ca  ca  ss  ca  ca  ha  ca  ca  ca  ca  c3  ha  ca  ca  ha  ha  c3  hc  hc  cp  
ha  ha  c3  hc  hc  cp  c3  hc  hc  ca  ca  c3  hc  hc  ca  ha  ca  ha  c3  hc  
hc  ca  ha  ha  c3  hc  hc  ha  hc  hc  c3  c3  hc  hc  hc  c3  hc  hc  hc  hc  
sx  ca  cx  ce  ca  ca  ss  ca  ca  ha  ca  ca  ca  ca  c3  ha  ca  ca  ha  ha  
c3  hc  hc  cp  ha  ha  c3  hc  hc  cp  c3  hc  hc  ca  ca  c3  hc  hc  ca  ha  
ca  ha  c3  hc  hc  ca  ha  ha  c3  hc  hc  ha  hc  hc  c3  c3  hc  hc  hc  c3  
hc  hc  hc  hc  sx  ca  cx  ce  ca  ca  ss  ca  ca  ha  ca  ca  ca  ca  c3  ha  
ca  ca  ha  ha  c3  hc  hc  cp  ha  ha  c3  hc  hc  cp  c3  hc  hc  ca  ca  c3  
hc  hc  ca  ha  ca  ha  c3  hc  hc  ca  ha  ha  c3  hc  hc  ha  hc  hc  c3  c3  
hc  hc  hc  c3  hc  hc  hc  hc  sx  ca  cx  ce  ca  ca  ss  ca  ca  ha  ca  ca  
ca  ca  c3  ha  ca  ca  ha  ha  c3  hc  hc  cp  ha  ha  c3  hc  hc  cp  c3  hc  
hc  ca  ca  c3  hc  hc  ca  ha  ca  ha  c3  hc  hc  ca  ha  ha  c3  hc  hc  ha  
hc  hc  c3  c3  hc  hc  hc  c3  hc  hc  hc  hc  sx  ca  cx  ce  ca  ca  ss  ca  
ca  ha  ca  ca  ca  ca  c3  ha  ca  ca  ha  ha  c3  hc  hc  cp  ha  ha  c3  hc  
hc  cp  c3  hc  hc  ca  ca  c3  hc  hc  ca  ha  ca  ha  c3  hc  hc  ca  ha  ha  
c3  hc  hc  ha  hc  hc  c3  c3  hc  hc  hc  c3  hc  hc  hc  hc  sx  ca  cx  ce  
ca  ca  ss  ca  ca  ha  ca  ca  ca  ca  c3  ha  ca  ca  ha  ha  c3  hc  hc  cp  
ha  ha  c3  hc  hc  cp  c3  hc  hc  ca  ca  c3  hc  hc  ca  ha  ca  ha  c3  hc  
hc  ca  ha  ha  c3  hc  hc  ha  hc  hc  c3  c3  hc  hc  hc  c3  hc  hc  hc  hc  
sx  ca  cx  ce  ca  ca  ss  ca  ca  ha  ca  ca  ca  ca  c3  ha  ca  ca  ha  ha  
c3  hc  hc  cp  ha  ha  c3  hc  hc  cp  c3  hc  hc  ca  ca  c3  hc  hc  ca  ha  
ca  ha  c3  hc  hc  ca  ha  ha  c3  hc  hc  ha  hc  hc  c3  c3  hc  hc  hc  c3  
hc  hc  hc  hc  sx  ca  cx  ce  ca  ca  ss  ca  ca  ha  ca  ca  ca  ca  c3  ha  
ca  ca  ha  ha  c3  hc  hc  cp  ha  ha  c3  hc  hc  cp  c3  hc  hc  ca  ca  c3  
hc  hc  ca  ha  ca  ha  c3  hc  hc  ca  ha  ha  c3  hc  hc  ha  hc  hc  c3  c3  
hc  hc  hc  c3  hc  hc  hc  hc  sx  ca  cx  ce  ca  ca  ss  ca  ca  ha  ca  ca  
ca  ca  c3  ha  ca  ca  ha  ha  c3  hc  hc  cp  ha  ha  c3  hc  hc  cp  c3  hc  
hc  ca  ca  c3  hc  hc  ca  ha  ca  ha  c3  hc  hc  ca  ha  ha  c3  hc  hc  ha  
hc  hc  c3  c3  hc  hc  hc  c3  hc  hc  hc  hc  sx  ca  cx  ce  ca  ca  ss  ca  
ca  ha  ca  ca  ca  ca  c3  ha  ca  ca  ha  ha  c3  hc  hc  cp  ha  ha  c3  hc  
hc  cp  c3  hc  hc  ca  ca  c3  hc  hc  ca  ha  ca  ha  c3  hc  hc  ca  ha  ha  
c3  hc  hc  ha  hc  hc  c3  c3  hc  hc  hc  c3  hc  hc  hc  hc  sx  ca  cx  ce  
ca  ca  ss  ca  ca  ha  ca  ca  ca  ca  c3  ha  ca  ca  ha  ha  c3  hc  hc  cp  
ha  ha  c3  hc  hc  cp  c3  hc  hc  ca  ca  c3  hc  hc  ca  ha  ca  ha  c3  hc  
hc  ca  ha  ha  c3  hc  hc  ha  hc  hc  c3  c3  hc  hc  hc  c3  hc  hc  hc  hc  
sx  ca  cx  ce  ca  ca  ss  ca  ca  ha  ca  ca  ca  ca  c3  ha  ca  ca  ha  ha  
c3  hc  hc  cp  ha  ha  c3  hc  hc  cp  c3  hc  hc  ca  ca  c3  hc  hc  ca  ha  
ca  ha  c3  hc  hc  ca  ha  ha  c3  hc  hc  ha  hc  hc  c3  c3  hc  hc  hc  c3  
hc  hc  hc  hc  sx  ca  cx  ce  ca  ca  ss  ca  ca  ha  ca  ca  ca  ca  c3  ha  
ca  ca  ha  ha  c3  hc  hc  cp  ha  ha  c3  hc  hc  cp  c3  hc  hc  ca  ca  c3  
hc  hc  ca  ha  ca  ha  c3  hc  hc  ca  ha  ha  c3  hc  hc  ha  hc  hc  c3  c3  
hc  hc  hc  c3  hc  hc  hc  hc  sx  ca  cx  ce  ca  ca  ss  ca  ca  ha  ca  ca  
ca  ca  c3  ha  ca  ca  ha  ha  c3  hc  hc  cp  ha  ha  c3  hc  hc  cp  c3  hc  
hc  ca  ca  c3  hc  hc  ca  ha  ca  ha  c3  hc  hc  ca  ha  ha  c3  hc  hc  ha  
hc  hc  c3  c3  hc  hc  hc  c3  hc  hc  hc  hc  sx  ca  cx  ce  ca  ca  ss  ca  
ca  ha  ca  ca  ca  ca  c3  ha  ca  ca  ha  ha  c3  hc  hc  cp  ha  ha  c3  hc  
hc  cp  c3  hc  hc  ca  ca  c3  hc  hc  ca  ha  ca  ha  c3  hc  hc  ca  ha  ha  
c3  hc  hc  ha  hc  hc  c3  c3  hc  hc  hc  c3  hc  hc  hc  hc  sx  ca  cx  ce  
ca  ca  ss  ca  ca  ha  ca  ca  ca  ca  c3  ha  ca  ca  ha  ha  c3  hc  hc  cp  
ha  ha  c3  hc  hc  cp  c3  hc  hc  ca  ca  c3  hc  hc  ca  ha  ca  ha  c3  hc  
hc  ca  ha  ha  c3  hc  hc  ha  hc  hc  c3  c3  hc  hc  hc  c3  hc  hc  hc  hc  
sx  ca  cx  ce  ca  ca  ss  ca  ca  ha  ca  ca  ca  ca  c3  ha  ca  ca  ha  ha  
c3  hc  hc  cp  ha  ha  c3  hc  hc  cp  c3  hc  hc  ca  ca  c3  hc  hc  ca  ha  
ca  ha  c3  hc  hc  ca  ha  ha  c3  hc  hc  ha  hc  hc  c3  c3  hc  hc  hc  c3  
hc  hc  hc  hc  sx  ca  cx  ce  ca  ca  ss  ca  ca  ha  ca  ca  ca  ca  c3  ha  
ca  ca  ha  ha  c3  hc  hc  cp  ha  ha  c3  hc  hc  cp  c3  hc  hc  ca  ca  c3  
hc  hc  ca  ha  ca  ha  c3  hc  hc  ca  ha  ha  c3  hc  hc  ha  hc  hc  c3  c3  
hc  hc  hc  c3  hc  hc  hc  hc  sx  ca  cx  ce  ca  ca  ss  ca  ca  ha  ca  ca  
ca  ca  c3  ha  ca  ca  ha  ha  c3  hc  hc  cp  ha  ha  c3  hc  hc  cp  c3  hc  
hc  ca  ca  c3  hc  hc  ca  ha  ca  ha  c3  hc  hc  ca  ha  ha  c3  hc  hc  ha  
hc  hc  c3  c3  hc  hc  hc  c3  hc  hc  hc  hc  sx  ca  cx  ce  ca  ca  ss  ca  
ca  ha  ca  ca  ca  ca  c3  ha  ca  ca  ha  ha  c3  hc  hc  cp  ha  ha  c3  hc  
hc  cp  c3  hc  hc  ca  ca  c3  hc  hc  ca  ha  ca  ha  c3  hc  hc  ca  ha  ha  
c3  hc  hc  ha  hc  hc  c3  c3  hc  hc  hc  c3  hc  hc  hc  hc  sx  ca  cx  ce  
ca  ca  ss  ca  ca  ha  ca  ca  ca  ca  c3  ha  ca  ca  ha  ha  c3  hc  hc  cp  
ha  ha  c3  hc  hc  cp  c3  hc  hc  ca  ca  c3  hc  hc  ca  ha  ca  ha  c3  hc  
hc  ca  ha  ha  c3  hc  hc  ha  hc  hc  c3  c3  hc  hc  hc  c3  hc  hc  hc  hc  
sx  ca  cx  ce  ca  ca  ss  ca  ca  ha  ca  ca  ca  ca  c3  ha  ca  ca  ha  ha  
c3  hc  hc  cp  ha  ha  c3  hc  hc  cp  c3  hc  hc  ca  ca  c3  hc  hc  ca  ha  
ca  ha  c3  hc  hc  ca  ha  ha  c3  hc  hc  ha  hc  hc  c3  c3  hc  hc  hc  c3  
hc  hc  hc  hc  sx  ca  cx  ce  ca  ca  ss  ca  ca  ha  ca  ca  ca  ca  c3  ha  
ca  ca  ha  ha  c3  hc  hc  cp  ha  ha  c3  hc  hc  cp  c3  hc  hc  ca  ca  c3  
hc  hc  ca  ha  ca  ha  c3  hc  hc  ca  ha  ha  c3  hc  hc  ha  hc  hc  c3  c3  
hc  hc  hc  c3  hc  hc  hc  hc  sx  ca  cx  ce  ca  ca  ss  ca  ca  ha  ca  ca  
ca  ca  c3  ha  ca  ca  ha  ha  c3  hc  hc  cp  ha  ha  c3  hc  hc  cp  c3  hc  
hc  ca  ca  c3  hc  hc  ca  ha  ca  ha  c3  hc  hc  ca  ha  ha  c3  hc  hc  ha  
hc  hc  c3  c3  hc  hc  hc  c3  hc  hc  hc  hc  sx  ca  cx  ce  ca  ca  ss  ca  
ca  ha  ca  ca  ca  ca  c3  ha  ca  ca  ha  ha  c3  hc  hc  cp  ha  ha  c3  hc  
hc  cp  c3  hc  hc  ca  ca  c3  hc  hc  ca  ha  ca  ha  c3  hc  hc  ca  ha  ha  
c3  hc  hc  ha  hc  hc  c3  c3  hc  hc  hc  c3  hc  hc  hc  hc  sx  ca  cx  ce  
ca  ca  ss  ca  ca  ha  ca  ca  ca  ca  c3  ha  ca  ca  ha  ha  c3  hc  hc  cp  
ha  ha  c3  hc  hc  cp  c3  hc  hc  ca  ca  c3  hc  hc  ca  ha  ca  ha  c3  hc  
hc  ca  ha  ha  c3  hc  hc  ha  hc  hc  c3  c3  hc  hc  hc  c3  hc  hc  hc  hc  
sx  ca  cx  ce  ca  ca  ss  ca  ca  ha  ca  ca  ca  ca  c3  ha  ca  ca  ha  ha  
c3  hc  hc  cp  ha  ha  c3  hc  hc  cp  c3  hc  hc  ca  ca  c3  hc  hc  ca  ha  
ca  ha  c3  hc  hc  ca  ha  ha  c3  hc  hc  ha  hc  hc  c3  c3  hc  hc  hc  c3  
hc  hc  hc  hc  sx  ca  cx  ce  ca  ca  ss  ca  ca  ha  ca  ca  ca  ca  c3  ha  
ca  ca  ha  ha  c3  hc  hc  cp  ha  ha  c3  hc  hc  cp  c3  hc  hc  ca  ca  c3  
hc  hc  ca  ha  ca  ha  c3  hc  hc  ca  ha  ha  c3  hc  hc  ha  hc  hc  c3  c3  
hc  hc  hc  c3  hc  hc  hc  hc  sx  ca  cx  ce  ca  ca  ss  ca  ca  ha  ca  ca  
ca  ca  c3  ha  ca  ca  ha  ha  c3  hc  hc  cp  ha  ha  c3  hc  hc  cp  c3  hc  
hc  ca  ca  c3  hc  hc  ca  ha  ca  ha  c3  hc  hc  ca  ha  ha  c3  hc  hc  ha  
hc  hc  c3  c3  hc  hc  hc  c3  hc  hc  hc  hc  sx  ca  cx  ce  ca  ca  ss  ca  
ca  ha  ca  ca  ca  ca  c3  ha  ca  ca  ha  ha  c3  hc  hc  cp  ha  ha  c3  hc  
hc  cp  c3  hc  hc  ca  ca  c3  hc  hc  ca  ha  ca  ha  c3  hc  hc  ca  ha  ha  
c3  hc  hc  ha  hc  hc  c3  c3  hc  hc  hc  c3  hc  hc  hc  hc  sx  ca  cx  ce  
ca  ca  ss  ca  ca  ha  ca  ca  ca  ca  c3  ha  ca  ca  ha  ha  c3  hc  hc  cp  
ha  ha  c3  hc  hc  cp  c3  hc  hc  ca  ca  c3  hc  hc  ca  ha  ca  ha  c3  hc  
hc  ca  ha  ha  c3  hc  hc  ha  hc  hc  c3  c3  hc  hc  hc  c3  hc  hc  hc  hc  
sx  ca  cx  ce  ca  ca  ss  ca  ca  ha  ca  ca  ca  ca  c3  ha  ca  ca  ha  ha  
c3  hc  hc  cp  ha  ha  c3  hc  hc  cp  c3  hc  hc  ca  ca  c3  hc  hc  ca  ha  
ca  ha  c3  hc  hc  ca  ha  ha  c3  hc  hc  ha  hc  hc  c3  c3  hc  hc  hc  c3  
hc  hc  hc  hc  sx  ca  cx  ce  ca  ca  ss  ca  ca  ha  ca  ca  ca  ca  c3  ha  
ca  ca  ha  ha  c3  hc  hc  cp  ha  ha  c3  hc  hc  cp  c3  hc  hc  ca  ca  c3  
hc  hc  ca  ha  ca  ha  c3  hc  hc  ca  ha  ha  c3  hc  hc  ha  hc  hc  c3  c3  
hc  hc  hc  c3  hc  hc  hc  hc  sx  ca  cx  ce  ca  ca  ss  ca  ca  ha  ca  ca  
ca  ca  c3  ha  ca  ca  ha  ha  c3  hc  hc  cp  ha  ha  c3  hc  hc  cp  c3  hc  
hc  ca  ca  c3  hc  hc  ca  ha  ca  ha  c3  hc  hc  ca  ha  ha  c3  hc  hc  ha  
hc  hc  c3  c3  hc  hc  hc  c3  hc  hc  hc  hc  sx  ca  cx  ce  ca  ca  ss  ca  
ca  ha  ca  ca  ca  ca  c3  ha  ca  ca  ha  ha  c3  hc  hc  cp  ha  ha  c3  hc  
hc  cp  c3  hc  hc  ca  ca  c3  hc  hc  ca  ha  ca  ha  c3  hc  hc  ca  ha  ha  
c3  hc  hc  ha  hc  hc  c3  c3  hc  hc  hc  c3  hc  hc  hc  hc  sx  ca  cx  ce  
ca  ca  ss  ca  ca  ha  ca  ca  ca  ca  c3  ha  ca  ca  ha  ha  c3  hc  hc  cp  
ha  ha  c3  hc  hc  cp  c3  hc  hc  ca  ca  c3  hc  hc  ca  ha  ca  ha  c3  hc  
hc  ca  ha  ha  c3  hc  hc  ha  hc  hc  c3  c3  hc  hc  hc  c3  hc  hc  hc  hc  
sx  ca  cx  ce  ca  ca  ss  ca  ca  ha  ca  ca  ca  ca  c3  ha  ca  ca  ha  ha  
c3  hc  hc  cp  ha  ha  c3  hc  hc  cp  c3  hc  hc  ca  ca  c3  hc  hc  ca  ha  
ca  ha  c3  hc  hc  ca  ha  ha  c3  hc  hc  ha  hc  hc  c3  c3  hc  hc  hc  c3  
hc  hc  hc  hc  sx  ca  cx  ce  ca  ca  ss  ca  ca  ha  ca  ca  ca  ca  c3  ha  
ca  ca  ha  ha  c3  hc  hc  cp  ha  ha  c3  hc  hc  cp  c3  hc  hc  ca  ca  c3  
hc  hc  ca  ha  ca  ha  c3  hc  hc  ca  ha  ha  c3  hc  hc  ha  hc  hc  c3  c3  
hc  hc  hc  c3  hc  hc  hc  hc  sx  ca  cx  ce  ca  ca  ss  ca  ca  ha  ca  ca  
ca  ca  c3  ha  ca  ca  ha  ha  c3  hc  hc  cp  ha  ha  c3  hc  hc  cp  c3  hc  
hc  ca  ca  c3  hc  hc  ca  ha  ca  ha  c3  hc  hc  ca  ha  ha  c3  hc  hc  ha  
hc  hc  c3  c3  hc  hc  hc  c3  hc  hc  hc  hc  sx  ca  cx  ce  ca  ca  ss  ca  
ca  ha  ca  ca  ca  ca  c3  ha  ca  ca  ha  ha  c3  hc  hc  cp  ha  ha  c3  hc  
hc  cp  c3  hc  hc  ca  ca  c3  hc  hc  ca  ha  ca  ha  c3  hc  hc  ca  ha  ha  
c3  hc  hc  ha  hc  hc  c3  c3  hc  hc  hc  c3  hc  hc  hc  hc  sx  ca  cx  ce  
ca  ca  ss  ca  ca  ha  ca  ca  ca  ca  c3  ha  ca  ca  ha  ha  c3  hc  hc  cp  
ha  ha  c3  hc  hc  cp  c3  hc  hc  ca  ca  c3  hc  hc  ca  ha  ca  ha  c3  hc  
hc  ca  ha  ha  c3  hc  hc  ha  hc  hc  c3  c3  hc  hc  hc  c3  hc  hc  hc  hc  
sx  ca  cx  ce  ca  ca  ss  ca  ca  ha  ca  ca  ca  ca  c3  ha  ca  ca  ha  ha  
c3  hc  hc  cp  ha  ha  c3  hc  hc  cp  c3  hc  hc  ca  ca  c3  hc  hc  ca  ha  
ca  ha  c3  hc  hc  ca  ha  ha  c3  hc  hc  ha  hc  hc  c3  c3  hc  hc  hc  c3  
hc  hc  hc  hc  sx  ca  cx  ce  ca  ca  ss  ca  ca  ha  ca  ca  ca  ca  c3  ha  
ca  ca  ha  ha  c3  hc  hc  cp  ha  ha  c3  hc  hc  cp  c3  hc  hc  ca  ca  c3  
hc  hc  ca  ha  ca  ha  c3  hc  hc  ca  ha  ha  c3  hc  hc  ha  hc  hc  c3  c3  
hc  hc  hc  c3  hc  hc  hc  hc  sx  ca  cx  ce  ca  ca  ss  ca  ca  ha  ca  ca  
ca  ca  c3  ha  ca  ca  ha  ha  c3  hc  hc  cp  ha  ha  c3  hc  hc  cp  c3  hc  
hc  ca  ca  c3  hc  hc  ca  ha  ca  ha  c3  hc  hc  ca  ha  ha  c3  hc  hc  ha  
hc  hc  c3  c3  hc  hc  hc  c3  hc  hc  hc  hc  sx  ca  cx  ce  ca  ca  ss  ca  
ca  ha  ca  ca  ca  ca  c3  ha  ca  ca  ha  ha  c3  hc  hc  cp  ha  ha  c3  hc  
hc  cp  c3  hc  hc  ca  ca  c3  hc  hc  ca  ha  ca  ha  c3  hc  hc  ca  ha  ha  
c3  hc  hc  ha  hc  hc  c3  c3  hc  hc  hc  c3  hc  hc  hc  hc  sx  ca  cx  ce  
ca  ca  ss  ca  ca  ha  ca  ca  ca  ca  c3  ha  ca  ca  ha  ha  c3  hc  hc  cp  
ha  ha  c3  hc  hc  cp  c3  hc  hc  ca  ca  c3  hc  hc  ca  ha  ca  ha  c3  hc  
hc  ca  ha  ha  c3  hc  hc  ha  hc  hc  c3  c3  hc  hc  hc  c3  hc  hc  hc  hc  
sx  ca  cx  ce  ca  ca  ss  ca  ca  ha  ca  ca  ca  ca  c3  ha  ca  ca  ha  ha  
c3  hc  hc  cp  ha  ha  c3  hc  hc  cp  c3  hc  hc  ca  ca  c3  hc  hc  ca  ha  
ca  ha  c3  hc  hc  ca  ha  ha  c3  hc  hc  ha  hc  hc  c3  c3  hc  hc  hc  c3  
hc  hc  hc  hc  sx  ca  cx  ce  ca  ca  ss  ca  ca  ha  ca  ca  ca  ca  c3  ha  
ca  ca  ha  ha  c3  hc  hc  cp  ha  ha  c3  hc  hc  cp  c3  hc  hc  ca  ca  c3  
hc  hc  ca  ha  ca  ha  c3  hc  hc  ca  ha  ha  c3  hc  hc  ha  hc  hc  c3  c3  
hc  hc  hc  c3  hc  hc  hc  hc  sx  ca  cx  ce  ca  ca  ss  ca  ca  ha  ca  ca  
ca  ca  c3  ha  ca  ca  ha  ha  c3  hc  hc  cp  ha  ha  c3  hc  hc  cp  c3  hc  
hc  ca  ca  c3  hc  hc  ca  ha  ca  ha  c3  hc  hc  ca  ha  ha  c3  hc  hc  ha  
hc  hc  c3  c3  hc  hc  hc  c3  hc  hc  hc  hc  sx  ca  cx  ce  ca  ca  ss  ca  
ca  ha  ca  ca  ca  ca  c3  ha  ca  ca  ha  ha  c3  hc  hc  cp  ha  ha  c3  hc  
hc  cp  c3  hc  hc  ca  ca  c3  hc  hc  ca  ha  ca  ha  c3  hc  hc  ca  ha  ha  
c3  hc  hc  ha  hc  hc  c3  c3  hc  hc  hc  c3  hc  hc  hc  hc  sx  ca  cx  ce  
ca  ca  ss  ca  ca  ha  ca  ca  ca  ca  c3  ha  ca  ca  ha  ha  c3  hc  hc  cp  
ha  ha  c3  hc  hc  cp  c3  hc  hc  ca  ca  c3  hc  hc  ca  ha  ca  ha  c3  hc  
hc  ca  ha  ha  c3  hc  hc  ha  hc  hc  c3  c3  hc  hc  hc  c3  hc  hc  hc  hc  
sx  ca  cx  ce  ca  ca  ss  ca  ca  ha  ca  ca  ca  ca  c3  ha  ca  ca  ha  ha  
c3  hc  hc  cp  ha  ha  c3  hc  hc  cp  c3  hc  hc  ca  ca  c3  hc  hc  ca  ha  
ca  ha  c3  hc  hc  ca  ha  ha  c3  hc  hc  ha  hc  hc  c3  c3  hc  hc  hc  c3  
hc  hc  hc  hc  sx  ca  cx  ce  ca  ca  ss  ca  ca  ha  ca  ca  ca  ca  c3  ha  
ca  ca  ha  ha  c3  hc  hc  cp  ha  ha  c3  hc  hc  cp  c3  hc  hc  ca  ca  c3  
hc  hc  ca  ha  ca  ha  c3  hc  hc  ca  ha  ha  c3  hc  hc  ha  hc  hc  c3  c3  
hc  hc  hc  c3  hc  hc  hc  hc  sx  ca  cx  ce  ca  ca  ss  ca  ca  ha  ca  ca  
ca  ca  c3  ha  ca  ca  ha  ha  c3  hc  hc  cp  ha  ha  c3  hc  hc  cp  c3  hc  
hc  ca  ca  c3  hc  hc  ca  ha  ca  ha  c3  hc  hc  ca  ha  ha  c3  hc  hc  ha  
hc  hc  c3  c3  hc  hc  hc  c3  hc  hc  hc  hc  sx  ca  cx  ce  ca  ca  ss  ca  
ca  ha  ca  ca  ca  ca  c3  ha  ca  ca  ha  ha  c3  hc  hc  cp  ha  ha  c3  hc  
hc  cp  c3  hc  hc  ca  ca  c3  hc  hc  ca  ha  ca  ha  c3  hc  hc  ca  ha  ha  
c3  hc  hc  ha  hc  hc  c3  c3  hc  hc  hc  c3  hc  hc  hc  hc  sx  ca  cx  ce  
ca  ca  ss  ca  ca  ha  ca  ca  ca  ca  c3  ha  ca  ca  ha  ha  c3  hc  hc  cp  
ha  ha  c3  hc  hc  cp  c3  hc  hc  ca  ca  c3  hc  hc  ca  ha  ca  ha  c3  hc  
hc  ca  ha  ha  c3  hc  hc  ha  hc  hc  c3  c3  hc  hc  hc  c3  hc  hc  hc  hc  
sx  ca  cx  ce  ca  ca  ss  ca  ca  ha  ca  ca  ca  ca  c3  ha  ca  ca  ha  ha  
c3  hc  hc  cp  ha  ha  c3  hc  hc  cp  c3  hc  hc  ca  ca  c3  hc  hc  ca  ha  
ca  ha  c3  hc  hc  ca  ha  ha  c3  hc  hc  ha  hc  hc  c3  c3  hc  hc  hc  c3  
hc  hc  hc  hc  sx  ca  cx  ce  ca  ca  ss  ca  ca  ha  ca  ca  ca  ca  c3  ha  
ca  ca  ha  ha  c3  hc  hc  cp  ha  ha  c3  hc  hc  cp  c3  hc  hc  ca  ca  c3  
hc  hc  ca  ha  ca  ha  c3  hc  hc  ca  ha  ha  c3  hc  hc  ha  hc  hc  c3  c3  
hc  hc  hc  c3  hc  hc  hc  hc  sx  ca  cx  ce  ca  ca  ss  ca  ca  ha  ca  ca  
ca  ca  c3  ha  ca  ca  ha  ha  c3  hc  hc  cp  ha  ha  c3  hc  hc  cp  c3  hc  
hc  ca  ca  c3  hc  hc  ca  ha  ca  ha  c3  hc  hc  ca  ha  ha  c3  hc  hc  ha  
hc  hc  c3  c3  hc  hc  hc  c3  hc  hc  hc  hc  sx  ca  cx  ce  ca  ca  ss  ca  
ca  ha  ca  ca  ca  ca  c3  ha  ca  ca  ha  ha  c3  hc  hc  cp  ha  ha  c3  hc  
hc  cp  c3  hc  hc  ca  ca  c3  hc  hc  ca  ha  ca  ha  c3  hc  hc  ca  ha  ha  
c3  hc  hc  ha  hc  hc  c3  c3  hc  hc  hc  c3  hc  hc  hc  hc  sx  ca  cx  ce  
ca  ca  ss  ca  ca  ha  ca  ca  ca  ca  c3  ha  ca  ca  ha  ha  c3  hc  hc  cp  
ha  ha  c3  hc  hc  cp  c3  hc  hc  ca  ca  c3  hc  hc  ca  ha  ca  ha  c3  hc  
hc  ca  ha  ha  c3  hc  hc  ha  hc  hc  c3  c3  hc  hc  hc  c3  hc  hc  hc  hc  
sx  ca  cx  ce  ca  ca  ss  ca  ca  ha  ca  ca  ca  ca  c3  ha  ca  ca  ha  ha  
c3  hc  hc  cp  ha  ha  c3  hc  hc  cp  c3  hc  hc  ca  ca  c3  hc  hc  ca  ha  
ca  ha  c3  hc  hc  ca  ha  ha  c3  hc  hc  ha  hc  hc  c3  c3  hc  hc  hc  c3  
hc  hc  hc  hc  sx  ca  cx  ce  ca  ca  ss  ca  ca  ha  ca  ca  ca  ca  c3  ha  
ca  ca  ha  ha  c3  hc  hc  cp  ha  ha  c3  hc  hc  cp  c3  hc  hc  ca  ca  c3  
hc  hc  ca  ha  ca  ha  c3  hc  hc  ca  ha  ha  c3  hc  hc  ha  hc  hc  c3  c3  
hc  hc  hc  c3  hc  hc  hc  hc  sx  ca  cx  ce  ca  ca  ss  ca  ca  ha  ca  ca  
ca  ca  c3  ha  ca  ca  ha  ha  c3  hc  hc  cp  ha  ha  c3  hc  hc  cp  c3  hc  
hc  ca  ca  c3  hc  hc  ca  ha  ca  ha  c3  hc  hc  ca  ha  ha  c3  hc  hc  ha  
hc  hc  c3  c3  hc  hc  hc  c3  hc  hc  hc  hc  sx  ca  cx  ce  ca  ca  ss  ca  
ca  ha  ca  ca  ca  ca  c3  ha  ca  ca  ha  ha  c3  hc  hc  cp  ha  ha  c3  hc  
hc  cp  c3  hc  hc  ca  ca  c3  hc  hc  ca  ha  ca  ha  c3  hc  hc  ca  ha  ha  
c3  hc  hc  ha  hc  hc  c3  c3  hc  hc  hc  c3  hc  hc  hc  hc  sx  ca  cx  ce  
ca  ca  ss  ca  ca  ha  ca  ca  ca  ca  c3  ha  ca  ca  ha  ha  c3  hc  hc  cp  
ha  ha  c3  hc  hc  cp  c3  hc  hc  ca  ca  c3  hc  hc  ca  ha  ca  ha  c3  hc  
hc  ca  ha  ha  c3  hc  hc  ha  hc  hc  c3  c3  hc  hc  hc  c3  hc  hc  hc  hc  
sx  ca  cx  ce  ca  ca  ss  ca  ca  ha  ca  ca  ca  ca  c3  ha  ca  ca  ha  ha  
c3  hc  hc  cp  ha  ha  c3  hc  hc  cp  c3  hc  hc  ca  ca  c3  hc  hc  ca  ha  
ca  ha  c3  hc  hc  ca  ha  ha  c3  hc  hc  ha  hc  hc  c3  c3  hc  hc  hc  c3  
hc  hc  hc  hc  sx  ca  cx  ce  ca  ca  ss  ca  ca  ha  ca  ca  ca  ca  c3  ha  
ca  ca  ha  ha  c3  hc  hc  cp  ha  ha  c3  hc  hc  cp  c3  hc  hc  ca  ca  c3  
hc  hc  ca  ha  ca  ha  c3  hc  hc  ca  ha  ha  c3  hc  hc  ha  hc  hc  c3  c3  
hc  hc  hc  c3  hc  hc  hc  hc  sx  ca  cx  ce  ca  ca  ss  ca  ca  ha  ca  ca  
ca  ca  c3  ha  ca  ca  ha  ha  c3  hc  hc  cp  ha  ha  c3  hc  hc  cp  c3  hc  
hc  ca  ca  c3  hc  hc  ca  ha  ca  ha  c3  hc  hc  ca  ha  ha  c3  hc  hc  ha  
hc  hc  c3  c3  hc  hc  hc  c3  hc  hc  hc  hc  sx  ca  cx  ce  ca  ca  ss  ca  
ca  ha  ca  ca  ca  ca  c3  ha  ca  ca  ha  ha  c3  hc  hc  cp  ha  ha  c3  hc  
hc  cp  c3  hc  hc  ca  ca  c3  hc  hc  ca  ha  ca  ha  c3  hc  hc  ca  ha  ha  
c3  hc  hc  ha  hc  hc  c3  c3  hc  hc  hc  c3  hc  hc  hc  hc  sx  ca  cx  ce  
ca  ca  ss  ca  ca  ha  ca  ca  ca  ca  c3  ha  ca  ca  ha  ha  c3  hc  hc  cp  
ha  ha  c3  hc  hc  cp  c3  hc  hc  ca  ca  c3  hc  hc  ca  ha  ca  ha  c3  hc  
hc  ca  ha  ha  c3  hc  hc  ha  hc  hc  c3  c3  hc  hc  hc  c3  hc  hc  hc  hc  
sx  ca  cx  ce  ca  ca  ss  ca  ca  ha  ca  ca  ca  ca  c3  ha  ca  ca  ha  ha  
c3  hc  hc  cp  ha  ha  c3  hc  hc  cp  c3  hc  hc  ca  ca  c3  hc  hc  ca  ha  
ca  ha  c3  hc  hc  ca  ha  ha  c3  hc  hc  ha  hc  hc  c3  c3  hc  hc  hc  c3  
hc  hc  hc  hc  sx  ca  cx  ce  ca  ca  ss  ca  ca  ha  ca  ca  ca  ca  c3  ha  
ca  ca  ha  ha  c3  hc  hc  cp  ha  ha  c3  hc  hc  cp  c3  hc  hc  ca  ca  c3  
hc  hc  ca  ha  ca  ha  c3  hc  hc  ca  ha  ha  c3  hc  hc  ha  hc  hc  c3  c3  
hc  hc  hc  c3  hc  hc  hc  hc  sx  ca  cx  ce  ca  ca  ss  ca  ca  ha  ca  ca  
ca  ca  c3  ha  ca  ca  ha  ha  c3  hc  hc  cp  ha  ha  c3  hc  hc  cp  c3  hc  
hc  ca  ca  c3  hc  hc  ca  ha  ca  ha  c3  hc  hc  ca  ha  ha  c3  hc  hc  ha  
hc  hc  c3  c3  hc  hc  hc  c3  hc  hc  hc  hc  sx  ca  cx  ce  ca  ca  ss  ca  
ca  ha  ca  ca  ca  ca  c3  ha  ca  ca  ha  ha  c3  hc  hc  cp  ha  ha  c3  hc  
hc  cp  c3  hc  hc  ca  ca  c3  hc  hc  ca  ha  ca  ha  c3  hc  hc  ca  ha  ha  
c3  hc  hc  ha  hc  hc  c3  c3  hc  hc  hc  c3  hc  hc  hc  hc  sx  ca  cx  ce  
ca  ca  ss  ca  ca  ha  ca  ca  ca  ca  c3  ha  ca  ca  ha  ha  c3  hc  hc  cp  
ha  ha  c3  hc  hc  cp  c3  hc  hc  ca  ca  c3  hc  hc  ca  ha  ca  ha  c3  hc  
hc  ca  ha  ha  c3  hc  hc  ha  hc  hc  c3  c3  hc  hc  hc  c3  hc  hc  hc  hc  
sx  ca  cx  ce  ca  ca  ss  ca  ca  ha  ca  ca  ca  ca  c3  ha  ca  ca  ha  ha  
c3  hc  hc  cp  ha  ha  c3  hc  hc  cp  c3  hc  hc  ca  ca  c3  hc  hc  ca  ha  
ca  ha  c3  hc  hc  ca  ha  ha  c3  hc  hc  ha  hc  hc  c3  c3  hc  hc  hc  c3  
hc  hc  hc  hc  sx  ca  cx  ce  ca  ca  ss  ca  ca  ha  ca  ca  ca  ca  c3  ha  
ca  ca  ha  ha  c3  hc  hc  cp  ha  ha  c3  hc  hc  cp  c3  hc  hc  ca  ca  c3  
hc  hc  ca  ha  ca  ha  c3  hc  hc  ca  ha  ha  c3  hc  hc  ha  hc  hc  c3  c3  
hc  hc  hc  c3  hc  hc  hc  hc  sx  ca  cx  ce  ca  ca  ss  ca  ca  ha  ca  ca  
ca  ca  c3  ha  ca  ca  ha  ha  c3  hc  hc  cp  ha  ha  c3  hc  hc  cp  c3  hc  
hc  ca  ca  c3  hc  hc  ca  ha  ca  ha  c3  hc  hc  ca  ha  ha  c3  hc  hc  ha  
hc  hc  c3  c3  hc  hc  hc  c3  hc  hc  hc  hc  sx  ca  cx  ce  ca  ca  ss  ca  
ca  ha  ca  ca  ca  ca  c3  ha  ca  ca  ha  ha  c3  hc  hc  cp  ha  ha  c3  hc  
hc  cp  c3  hc  hc  ca  ca  c3  hc  hc  ca  ha  ca  ha  c3  hc  hc  ca  ha  ha  
c3  hc  hc  ha  hc  hc  c3  c3  hc  hc  hc  c3  hc  hc  hc  hc  sx  ca  cx  ce  
ca  ca  ss  ca  ca  ha  ca  ca  ca  ca  c3  ha  ca  ca  ha  ha  c3  hc  hc  cp  
ha  ha  c3  hc  hc  cp  c3  hc  hc  ca  ca  c3  hc  hc  ca  ha  ca  ha  c3  hc  
hc  ca  ha  ha  c3  hc  hc  ha  hc  hc  c3  c3  hc  hc  hc  c3  hc  hc  hc  hc  
sx  ca  cx  ce  ca  ca  ss  ca  ca  ha  ca  ca  ca  ca  c3  ha  ca  ca  ha  ha  
c3  hc  hc  cp  ha  ha  c3  hc  hc  cp  c3  hc  hc  ca  ca  c3  hc  hc  ca  ha  
ca  ha  c3  hc  hc  ca  ha  ha  c3  hc  hc  ha  hc  hc  c3  c3  hc  hc  hc  c3  
hc  hc  hc  hc  sx  ca  cx  ce  ca  ca  ss  ca  ca  ha  ca  ca  ca  ca  c3  ha  
ca  ca  ha  ha  c3  hc  hc  cp  ha  ha  c3  hc  hc  cp  c3  hc  hc  ca  ca  c3  
hc  hc  ca  ha  ca  ha  c3  hc  hc  ca  ha  ha  c3  hc  hc  ha  hc  hc  c3  c3  
hc  hc  hc  c3  hc  hc  hc  hc  sx  ca  cx  ce  ca  ca  ss  ca  ca  ha  ca  ca  
ca  ca  c3  ha  ca  ca  ha  ha  c3  hc  hc  cp  ha  ha  c3  hc  hc  cp  c3  hc  
hc  ca  ca  c3  hc  hc  ca  ha  ca  ha  c3  hc  hc  ca  ha  ha  c3  hc  hc  ha  
hc  hc  c3  c3  hc  hc  hc  c3  hc  hc  hc  hc  sx  ca  cx  ce  ca  ca  ss  ca  
ca  ha  ca  ca  ca  ca  c3  ha  ca  ca  ha  ha  c3  hc  hc  cp  ha  ha  c3  hc  
hc  cp  c3  hc  hc  ca  ca  c3  hc  hc  ca  ha  ca  ha  c3  hc  hc  ca  ha  ha  
c3  hc  hc  ha  hc  hc  c3  c3  hc  hc  hc  c3  hc  hc  hc  hc  sx  ca  cx  ce  
ca  ca  ss  ca  ca  ha  ca  ca  ca  ca  c3  ha  ca  ca  ha  ha  c3  hc  hc  cp  
ha  ha  c3  hc  hc  cp  c3  hc  hc  ca  ca  c3  hc  hc  ca  ha  ca  ha  c3  hc  
hc  ca  ha  ha  c3  hc  hc  ha  hc  hc  c3  c3  hc  hc  hc  c3  hc  hc  hc  hc  
sx  ca  cx  ce  ca  ca  ss  ca  ca  ha  ca  ca  ca  ca  c3  ha  ca  ca  ha  ha  
c3  hc  hc  cp  ha  ha  c3  hc  hc  cp  c3  hc  hc  ca  ca  c3  hc  hc  ca  ha  
ca  ha  c3  hc  hc  ca  ha  ha  c3  hc  hc  ha  hc  hc  c3  c3  hc  hc  hc  c3  
hc  hc  hc  hc  sx  ca  cx  ce  ca  ca  ss  ca  ca  ha  ca  ca  ca  ca  c3  ha  
ca  ca  ha  ha  c3  hc  hc  cp  ha  ha  c3  hc  hc  cp  c3  hc  hc  ca  ca  c3  
hc  hc  ca  ha  ca  ha  c3  hc  hc  ca  ha  ha  c3  hc  hc  ha  hc  hc  c3  c3  
hc  hc  hc  c3  hc  hc  hc  hc  sx  ca  cx  ce  ca  ca  ss  ca  ca  ha  ca  ca  
ca  ca  c3  ha  ca  ca  ha  ha  c3  hc  hc  cp  ha  ha  c3  hc  hc  cp  c3  hc  
hc  ca  ca  c3  hc  hc  ca  ha  ca  ha  c3  hc  hc  ca  ha  ha  c3  hc  hc  ha  
hc  hc  c3  c3  hc  hc  hc  c3  hc  hc  hc  hc  sx  ca  cx  ce  ca  ca  ss  ca  
ca  ha  ca  ca  ca  ca  c3  ha  ca  ca  ha  ha  c3  hc  hc  cp  ha  ha  c3  hc  
hc  cp  c3  hc  hc  ca  ca  c3  hc  hc  ca  ha  ca  ha  c3  hc  hc  ca  ha  ha  
c3  hc  hc  ha  hc  hc  c3  c3  hc  hc  hc  c3  hc  hc  hc  hc  sx  ca  cx  ce  
ca  ca  ss  ca  ca  ha  ca  ca  ca  ca  c3  ha  ca  ca  ha  ha  c3  hc  hc  cp  
ha  ha  c3  hc  hc  cp  c3  hc  hc  ca  ca  c3  hc  hc  ca  ha  ca  ha  c3  hc  
hc  ca  ha  ha  c3  hc  hc  ha  hc  hc  c3  c3  hc  hc  hc  c3  hc  hc  hc  hc  
sx  ca  cx  ce  ca  ca  ss  ca  ca  ha  ca  ca  ca  ca  c3  ha  ca  ca  ha  ha  
c3  hc  hc  cp  ha  ha  c3  hc  hc  cp  c3  hc  hc  ca  ca  c3  hc  hc  ca  ha  
ca  ha  c3  hc  hc  ca  ha  ha  c3  hc  hc  ha  hc  hc  c3  c3  hc  hc  hc  c3  
hc  hc  hc  hc  sx  ca  cx  ce  ca  ca  ss  ca  ca  ha  ca  ca  ca  ca  c3  ha  
ca  ca  ha  ha  c3  hc  hc  cp  ha  ha  c3  hc  hc  cp  c3  hc  hc  ca  ca  c3  
hc  hc  ca  ha  ca  ha  c3  hc  hc  ca  ha  ha  c3  hc  hc  ha  hc  hc  c3  c3  
hc  hc  hc  c3  hc  hc  hc  hc  sx  ca  cx  ce  ca  ca  ss  ca  ca  ha  ca  ca  
ca  ca  c3  ha  ca  ca  ha  ha  c3  hc  hc  cp  ha  ha  c3  hc  hc  cp  c3  hc  
hc  ca  ca  c3  hc  hc  ca  ha  ca  ha  c3  hc  hc  ca  ha  ha  c3  hc  hc  ha  
hc  hc  c3  c3  hc  hc  hc  c3  hc  hc  hc  hc  sx  ca  cx  ce  ca  ca  ss  ca  
ca  ha  ca  ca  ca  ca  c3  ha  ca  ca  ha  ha  c3  hc  hc  cp  ha  ha  c3  hc  
hc  cp  c3  hc  hc  ca  ca  c3  hc  hc  ca  ha  ca  ha  c3  hc  hc  ca  ha  ha  
c3  hc  hc  ha  hc  hc  c3  c3  hc  hc  hc  c3  hc  hc  hc  hc  sx  ca  cx  ce  
ca  ca  ss  ca  ca  ha  ca  ca  ca  ca  c3  ha  ca  ca  ha  ha  c3  hc  hc  cp  
ha  ha  c3  hc  hc  cp  c3  hc  hc  ca  ca  c3  hc  hc  ca  ha  ca  ha  c3  hc  
hc  ca  ha  ha  c3  hc  hc  ha  hc  hc  c3  c3  hc  hc  hc  c3  hc  hc  hc  hc  
sx  ca  cx  ce  ca  ca  ss  ca  ca  ha  ca  ca  ca  ca  c3  ha  ca  ca  ha  ha  
c3  hc  hc  cp  ha  ha  c3  hc  hc  cp  c3  hc  hc  ca  ca  c3  hc  hc  ca  ha  
ca  ha  c3  hc  hc  ca  ha  ha  c3  hc  hc  ha  hc  hc  c3  c3  hc  hc  hc  c3  
hc  hc  hc  hc  sx  ca  cx  ce  ca  ca  ss  ca  ca  ha  ca  ca  ca  ca  c3  ha  
ca  ca  ha  ha  c3  hc  hc  cp  ha  ha  c3  hc  hc  cp  c3  hc  hc  ca  ca  c3  
hc  hc  ca  ha  ca  ha  c3  hc  hc  ca  ha  ha  c3  hc  hc  ha  hc  hc  c3  c3  
hc  hc  hc  c3  hc  hc  hc  hc  sx  ca  cx  ce  ca  ca  ss  ca  ca  ha  ca  ca  
ca  ca  c3  ha  ca  ca  ha  ha  c3  hc  hc  cp  ha  ha  c3  hc  hc  cp  c3  hc  
hc  ca  ca  c3  hc  hc  ca  ha  ca  ha  c3  hc  hc  ca  ha  ha  c3  hc  hc  ha  
hc  hc  c3  c3  hc  hc  hc  c3  hc  hc  hc  hc  sx  ca  cx  ce  ca  ca  ss  ca  
ca  ha  ca  ca  ca  ca  c3  ha  ca  ca  ha  ha  c3  hc  hc  cp  ha  ha  c3  hc  
hc  cp  c3  hc  hc  ca  ca  c3  hc  hc  ca  ha  ca  ha  c3  hc  hc  ca  ha  ha  
c3  hc  hc  ha  hc  hc  c3  c3  hc  hc  hc  c3  hc  hc  hc  hc  sx  ca  cx  ce  
ca  ca  ss  ca  ca  ha  ca  ca  ca  ca  c3  ha  ca  ca  ha  ha  c3  hc  hc  cp  
ha  ha  c3  hc  hc  cp  c3  hc  hc  ca  ca  c3  hc  hc  ca  ha  ca  ha  c3  hc  
hc  ca  ha  ha  c3  hc  hc  ha  hc  hc  c3  c3  hc  hc  hc  c3  hc  hc  hc  hc  
sx  ca  cx  ce  ca  ca  ss  ca  ca  ha  ca  ca  ca  ca  c3  ha  ca  ca  ha  ha  
c3  hc  hc  cp  ha  ha  c3  hc  hc  cp  c3  hc  hc  ca  ca  c3  hc  hc  ca  ha  
ca  ha  c3  hc  hc  ca  ha  ha  c3  hc  hc  ha  hc  hc  c3  c3  hc  hc  hc  c3  
hc  hc  hc  hc  sx  ca  cx  ce  ca  ca  ss  ca  ca  ha  ca  ca  ca  ca  c3  ha  
ca  ca  ha  ha  c3  hc  hc  cp  ha  ha  c3  hc  hc  cp  c3  hc  hc  ca  ca  c3  
hc  hc  ca  ha  ca  ha  c3  hc  hc  ca  ha  ha  c3  hc  hc  ha  hc  hc  c3  c3  
hc  hc  hc  c3  hc  hc  hc  hc  sx  ca  cx  ce  ca  ca  ss  ca  ca  ha  ca  ca  
ca  ca  c3  ha  ca  ca  ha  ha  c3  hc  hc  cp  ha  ha  c3  hc  hc  cp  c3  hc  
hc  ca  ca  c3  hc  hc  ca  ha  ca  ha  c3  hc  hc  ca  ha  ha  c3  hc  hc  ha  
hc  hc  c3  c3  hc  hc  hc  c3  hc  hc  hc  hc  sx  ca  cx  ce  ca  ca  ss  ca  
ca  ha  ca  ca  ca  ca  c3  ha  ca  ca  ha  ha  c3  hc  hc  cp  ha  ha  c3  hc  
hc  cp  c3  hc  hc  ca  ca  c3  hc  hc  ca  ha  ca  ha  c3  hc  hc  ca  ha  ha  
c3  hc  hc  ha  hc  hc  c3  c3  hc  hc  hc  c3  hc  hc  hc  hc  sx  ca  cx  ce  
ca  ca  ss  ca  ca  ha  ca  ca  ca  ca  c3  ha  ca  ca  ha  ha  c3  hc  hc  cp  
ha  ha  c3  hc  hc  cp  c3  hc  hc  ca  ca  c3  hc  hc  ca  ha  ca  ha  c3  hc  
hc  ca  ha  ha  c3  hc  hc  ha  hc  hc  c3  c3  hc  hc  hc  c3  hc  hc  hc  hc  
sx  ca  cx  ce  ca  ca  ss  ca  ca  ha  ca  ca  ca  ca  c3  ha  ca  ca  ha  ha  
c3  hc  hc  cp  ha  ha  c3  hc  hc  cp  c3  hc  hc  ca  ca  c3  hc  hc  ca  ha  
ca  ha  c3  hc  hc  ca  ha  ha  c3  hc  hc  ha  hc  hc  c3  c3  hc  hc  hc  c3  
hc  hc  hc  hc  sx  ca  cx  ce  ca  ca  ss  ca  ca  ha  ca  ca  ca  ca  c3  ha  
ca  ca  ha  ha  c3  hc  hc  cp  ha  ha  c3  hc  hc  cp  c3  hc  hc  ca  ca  c3  
hc  hc  ca  ha  ca  ha  c3  hc  hc  ca  ha  ha  c3  hc  hc  ha  hc  hc  c3  c3  
hc  hc  hc  c3  hc  hc  hc  hc  sx  ca  cx  ce  ca  ca  ss  ca  ca  ha  ca  ca  
ca  ca  c3  ha  ca  ca  ha  ha  c3  hc  hc  cp  ha  ha  c3  hc  hc  cp  c3  hc  
hc  ca  ca  c3  hc  hc  ca  ha  ca  ha  c3  hc  hc  ca  ha  ha  c3  hc  hc  ha  
hc  hc  c3  c3  hc  hc  hc  c3  hc  hc  hc  hc  sx  ca  cx  ce  ca  ca  ss  ca  
ca  ha  ca  ca  ca  ca  c3  ha  ca  ca  ha  ha  c3  hc  hc  cp  ha  ha  c3  hc  
hc  cp  c3  hc  hc  ca  ca  c3  hc  hc  ca  ha  ca  ha  c3  hc  hc  ca  ha  ha  
c3  hc  hc  ha  hc  hc  c3  c3  hc  hc  hc  c3  hc  hc  hc  hc  sx  ca  cx  ce  
ca  ca  ss  ca  ca  ha  ca  ca  ca  ca  c3  ha  ca  ca  ha  ha  c3  hc  hc  cp  
ha  ha  c3  hc  hc  cp  c3  hc  hc  ca  ca  c3  hc  hc  ca  ha  ca  ha  c3  hc  
hc  ca  ha  ha  c3  hc  hc  ha  hc  hc  c3  c3  hc  hc  hc  c3  hc  hc  hc  hc  
sx  ca  cx  ce  ca  ca  ss  ca  ca  ha  ca  ca  ca  ca  c3  ha  ca  ca  ha  ha  
c3  hc  hc  cp  ha  ha  c3  hc  hc  cp  c3  hc  hc  ca  ca  c3  hc  hc  ca  ha  
ca  ha  c3  hc  hc  ca  ha  ha  c3  hc  hc  ha  hc  hc  c3  c3  hc  hc  hc  c3  
hc  hc  hc  hc  sx  ca  cx  ce  ca  ca  ss  ca  ca  ha  ca  ca  ca  ca  c3  ha  
ca  ca  ha  ha  c3  hc  hc  cp  ha  ha  c3  hc  hc  cp  c3  hc  hc  ca  ca  c3  
hc  hc  ca  ha  ca  ha  c3  hc  hc  ca  ha  ha  c3  hc  hc  ha  hc  hc  c3  c3  
hc  hc  hc  c3  hc  hc  hc  hc  sx  ca  cx  ce  ca  ca  ss  ca  ca  ha  ca  ca  
ca  ca  c3  ha  ca  ca  ha  ha  c3  hc  hc  cp  ha  ha  c3  hc  hc  cp  c3  hc  
hc  ca  ca  c3  hc  hc  ca  ha  ca  ha  c3  hc  hc  ca  ha  ha  c3  hc  hc  ha  
hc  hc  c3  c3  hc  hc  hc  c3  hc  hc  hc  hc  sx  ca  cx  ce  ca  ca  ss  ca  
ca  ha  ca  ca  ca  ca  c3  ha  ca  ca  ha  ha  c3  hc  hc  cp  ha  ha  c3  hc  
hc  cp  c3  hc  hc  ca  ca  c3  hc  hc  ca  ha  ca  ha  c3  hc  hc  ca  ha  ha  
c3  hc  hc  ha  hc  hc  c3  c3  hc  hc  hc  c3  hc  hc  hc  hc  sx  ca  cx  ce  
ca  ca  ss  ca  ca  ha  ca  ca  ca  ca  c3  ha  ca  ca  ha  ha  c3  hc  hc  cp  
ha  ha  c3  hc  hc  cp  c3  hc  hc  ca  ca  c3  hc  hc  ca  ha  ca  ha  c3  hc  
hc  ca  ha  ha  c3  hc  hc  ha  hc  hc  c3  c3  hc  hc  hc  c3  hc  hc  hc  hc  
sx  ca  cx  ce  ca  ca  ss  ca  ca  ha  ca  ca  ca  ca  c3  ha  ca  ca  ha  ha  
c3  hc  hc  cp  ha  ha  c3  hc  hc  cp  c3  hc  hc  ca  ca  c3  hc  hc  ca  ha  
ca  ha  c3  hc  hc  ca  ha  ha  c3  hc  hc  ha  hc  hc  c3  c3  hc  hc  hc  c3  
hc  hc  hc  hc  sx  ca  cx  ce  ca  ca  ss  ca  ca  ha  ca  ca  ca  ca  c3  ha  
ca  ca  ha  ha  c3  hc  hc  cp  ha  ha  c3  hc  hc  cp  c3  hc  hc  ca  ca  c3  
hc  hc  ca  ha  ca  ha  c3  hc  hc  ca  ha  ha  c3  hc  hc  ha  hc  hc  c3  c3  
hc  hc  hc  c3  hc  hc  hc  hc  sx  ca  cx  ce  ca  ca  ss  ca  ca  ha  ca  ca  
ca  ca  c3  ha  ca  ca  ha  ha  c3  hc  hc  cp  ha  ha  c3  hc  hc  cp  c3  hc  
hc  ca  ca  c3  hc  hc  ca  ha  ca  ha  c3  hc  hc  ca  ha  ha  c3  hc  hc  ha  
hc  hc  c3  c3  hc  hc  hc  c3  hc  hc  hc  hc  sx  ca  cx  ce  ca  ca  ss  ca  
ca  ha  ca  ca  ca  ca  c3  ha  ca  ca  ha  ha  c3  hc  hc  cp  ha  ha  c3  hc  
hc  cp  c3  hc  hc  ca  ca  c3  hc  hc  ca  ha  ca  ha  c3  hc  hc  ca  ha  ha  
c3  hc  hc  ha  hc  hc  c3  c3  hc  hc  hc  c3  hc  hc  hc  hc  sx  ca  cx  ce  
ca  ca  ss  ca  ca  ha  ca  ca  ca  ca  c3  ha  ca  ca  ha  ha  c3  hc  hc  cp  
ha  ha  c3  hc  hc  cp  c3  hc  hc  ca  ca  c3  hc  hc  ca  ha  ca  ha  c3  hc  
hc  ca  ha  ha  c3  hc  hc  ha  hc  hc  c3  c3  hc  hc  hc  c3  hc  hc  hc  hc  
sx  ca  cx  ce  ca  ca  ss  ca  ca  ha  ca  ca  ca  ca  c3  ha  ca  ca  ha  ha  
c3  hc  hc  cp  ha  ha  c3  hc  hc  cp  c3  hc  hc  ca  ca  c3  hc  hc  ca  ha  
ca  ha  c3  hc  hc  ca  ha  ha  c3  hc  hc  ha  hc  hc  c3  c3  hc  hc  hc  c3  
hc  hc  hc  hc  sx  ca  cx  ce  ca  ca  ss  ca  ca  ha  ca  ca  ca  ca  c3  ha  
ca  ca  ha  ha  c3  hc  hc  cp  ha  ha  c3  hc  hc  cp  c3  hc  hc  ca  ca  c3  
hc  hc  ca  ha  ca  ha  c3  hc  hc  ca  ha  ha  c3  hc  hc  ha  hc  hc  c3  c3  
hc  hc  hc  c3  hc  hc  hc  hc  sx  ca  cx  ce  ca  ca  ss  ca  ca  ha  ca  ca  
ca  ca  c3  ha  ca  ca  ha  ha  c3  hc  hc  cp  ha  ha  c3  hc  hc  cp  c3  hc  
hc  ca  ca  c3  hc  hc  ca  ha  ca  ha  c3  hc  hc  ca  ha  ha  c3  hc  hc  ha  
hc  hc  c3  c3  hc  hc  hc  c3  hc  hc  hc  hc  sx  ca  cx  ce  ca  ca  ss  ca  
ca  ha  ca  ca  ca  ca  c3  ha  ca  ca  ha  ha  c3  hc  hc  cp  ha  ha  c3  hc  
hc  cp  c3  hc  hc  ca  ca  c3  hc  hc  ca  ha  ca  ha  c3  hc  hc  ca  ha  ha  
c3  hc  hc  ha  hc  hc  c3  c3  hc  hc  hc  c3  hc  hc  hc  hc  sx  ca  cx  ce  
ca  ca  ss  ca  ca  ha  ca  ca  ca  ca  c3  ha  ca  ca  ha  ha  c3  hc  hc  cp  
ha  ha  c3  hc  hc  cp  c3  hc  hc  ca  ca  c3  hc  hc  ca  ha  ca  ha  c3  hc  
hc  ca  ha  ha  c3  hc  hc  ha  hc  hc  c3  c3  hc  hc  hc  c3  hc  hc  hc  hc  
sx  ca  cx  ce  ca  ca  ss  ca  ca  ha  ca  ca  ca  ca  c3  ha  ca  ca  ha  ha  
c3  hc  hc  cp  ha  ha  c3  hc  hc  cp  c3  hc  hc  ca  ca  c3  hc  hc  ca  ha  
ca  ha  c3  hc  hc  ca  ha  ha  c3  hc  hc  ha  hc  hc  c3  c3  hc  hc  hc  c3  
hc  hc  hc  hc  sx  ca  cx  ce  ca  ca  ss  ca  ca  ha  ca  ca  ca  ca  c3  ha  
ca  ca  ha  ha  c3  hc  hc  cp  ha  ha  c3  hc  hc  cp  c3  hc  hc  ca  ca  c3  
hc  hc  ca  ha  ca  ha  c3  hc  hc  ca  ha  ha  c3  hc  hc  ha  hc  hc  c3  c3  
hc  hc  hc  c3  hc  hc  hc  hc  sx  ca  cx  ce  ca  ca  ss  ca  ca  ha  ca  ca  
ca  ca  c3  ha  ca  ca  ha  ha  c3  hc  hc  cp  ha  ha  c3  hc  hc  cp  c3  hc  
hc  ca  ca  c3  hc  hc  ca  ha  ca  ha  c3  hc  hc  ca  ha  ha  c3  hc  hc  ha  
hc  hc  c3  c3  hc  hc  hc  c3  hc  hc  hc  hc  sx  ca  cx  ce  ca  ca  ss  ca  
ca  ha  ca  ca  ca  ca  c3  ha  ca  ca  ha  ha  c3  hc  hc  cp  ha  ha  c3  hc  
hc  cp  c3  hc  hc  ca  ca  c3  hc  hc  ca  ha  ca  ha  c3  hc  hc  ca  ha  ha  
c3  hc  hc  ha  hc  hc  c3  c3  hc  hc  hc  c3  hc  hc  hc  hc  sx  ca  cx  ce  
ca  ca  ss  ca  ca  ha  ca  ca  ca  ca  c3  ha  ca  ca  ha  ha  c3  hc  hc  cp  
ha  ha  c3  hc  hc  cp  c3  hc  hc  ca  ca  c3  hc  hc  ca  ha  ca  ha  c3  hc  
hc  ca  ha  ha  c3  hc  hc  ha  hc  hc  c3  c3  hc  hc  hc  c3  hc  hc  hc  hc  
sx  ca  cx  ce  ca  ca  ss  ca  ca  ha  ca  ca  ca  ca  c3  ha  ca  ca  ha  ha  
c3  hc  hc  cp  ha  ha  c3  hc  hc  cp  c3  hc  hc  ca  ca  c3  hc  hc  ca  ha  
ca  ha  c3  hc  hc  ca  ha  ha  c3  hc  hc  ha  hc  hc  c3  c3  hc  hc  hc  c3  
hc  hc  hc  hc  sx  ca  cx  ce  ca  ca  ss  ca  ca  ha  ca  ca  ca  ca  c3  ha  
ca  ca  ha  ha  c3  hc  hc  cp  ha  ha  c3  hc  hc  cp  c3  hc  hc  ca  ca  c3  
hc  hc  ca  ha  ca  ha  c3  hc  hc  ca  ha  ha  c3  hc  hc  ha  hc  hc  c3  c3  
hc  hc  hc  c3  hc  hc  hc  hc  sx  ca  cx  ce  ca  ca  ss  ca  ca  ha  ca  ca  
ca  ca  c3  ha  ca  ca  ha  ha  c3  hc  hc  cp  ha  ha  c3  hc  hc  cp  c3  hc  
hc  ca  ca  c3  hc  hc  ca  ha  ca  ha  c3  hc  hc  ca  ha  ha  c3  hc  hc  ha  
hc  hc  c3  c3  hc  hc  hc  c3  hc  hc  hc  hc  sx  ca  cx  ce  ca  ca  ss  ca  
ca  ha  ca  ca  ca  ca  c3  ha  ca  ca  ha  ha  c3  hc  hc  cp  ha  ha  c3  hc  
hc  cp  c3  hc  hc  ca  ca  c3  hc  hc  ca  ha  ca  ha  c3  hc  hc  ca  ha  ha  
c3  hc  hc  ha  hc  hc  c3  c3  hc  hc  hc  c3  hc  hc  hc  hc  sx  ca  cx  ce  
ca  ca  ss  ca  ca  ha  ca  ca  ca  ca  c3  ha  ca  ca  ha  ha  c3  hc  hc  cp  
ha  ha  c3  hc  hc  cp  c3  hc  hc  ca  ca  c3  hc  hc  ca  ha  ca  ha  c3  hc  
hc  ca  ha  ha  c3  hc  hc  ha  hc  hc  c3  c3  hc  hc  hc  c3  hc  hc  hc  hc  
sx  ca  cx  ce  ca  ca  ss  ca  ca  ha  ca  ca  ca  ca  c3  ha  ca  ca  ha  ha  
c3  hc  hc  cp  ha  ha  c3  hc  hc  cp  c3  hc  hc  ca  ca  c3  hc  hc  ca  ha  
ca  ha  c3  hc  hc  ca  ha  ha  c3  hc  hc  ha  hc  hc  c3  c3  hc  hc  hc  c3  
hc  hc  hc  hc  sx  ca  cx  ce  ca  ca  ss  ca  ca  ha  ca  ca  ca  ca  c3  ha  
ca  ca  ha  ha  c3  hc  hc  cp  ha  ha  c3  hc  hc  cp  c3  hc  hc  ca  ca  c3  
hc  hc  ca  ha  ca  ha  c3  hc  hc  ca  ha  ha  c3  hc  hc  ha  hc  hc  c3  c3  
hc  hc  hc  c3  hc  hc  hc  hc  sx  ca  cx  ce  ca  ca  ss  ca  ca  ha  ca  ca  
ca  ca  c3  ha  ca  ca  ha  ha  c3  hc  hc  cp  ha  ha  c3  hc  hc  cp  c3  hc  
hc  ca  ca  c3  hc  hc  ca  ha  ca  ha  c3  hc  hc  ca  ha  ha  c3  hc  hc  ha  
hc  hc  c3  c3  hc  hc  hc  c3  hc  hc  hc  hc  sx  ca  cx  ce  ca  ca  ss  ca  
ca  ha  ca  ca  ca  ca  c3  ha  ca  ca  ha  ha  c3  hc  hc  cp  ha  ha  c3  hc  
hc  cp  c3  hc  hc  ca  ca  c3  hc  hc  ca  ha  ca  ha  c3  hc  hc  ca  ha  ha  
c3  hc  hc  ha  hc  hc  c3  c3  hc  hc  hc  c3  hc  hc  hc  hc  sx  ca  cx  ce  
ca  ca  ss  ca  ca  ha  ca  ca  ca  ca  c3  ha  ca  ca  ha  ha  c3  hc  hc  cp  
ha  ha  c3  hc  hc  cp  c3  hc  hc  ca  ca  c3  hc  hc  ca  ha  ca  ha  c3  hc  
hc  ca  ha  ha  c3  hc  hc  ha  hc  hc  c3  c3  hc  hc  hc  c3  hc  hc  hc  hc  
sx  ca  cx  ce  ca  ca  ss  ca  ca  ha  ca  ca  ca  ca  c3  ha  ca  ca  ha  ha  
c3  hc  hc  cp  ha  ha  c3  hc  hc  cp  c3  hc  hc  ca  ca  c3  hc  hc  ca  ha  
ca  ha  c3  hc  hc  ca  ha  ha  c3  hc  hc  ha  hc  hc  c3  c3  hc  hc  hc  c3  
hc  hc  hc  hc  sx  ca  cx  ce  ca  ca  ss  ca  ca  ha  ca  ca  ca  ca  c3  ha  
ca  ca  ha  ha  c3  hc  hc  cp  ha  ha  c3  hc  hc  cp  c3  hc  hc  ca  ca  c3  
hc  hc  ca  ha  ca  ha  c3  hc  hc  ca  ha  ha  c3  hc  hc  ha  hc  hc  c3  c3  
hc  hc  hc  c3  hc  hc  hc  hc  sx  ca  cx  ce  ca  ca  ss  ca  ca  ha  ca  ca  
ca  ca  c3  ha  ca  ca  ha  ha  c3  hc  hc  cp  ha  ha  c3  hc  hc  cp  c3  hc  
hc  ca  ca  c3  hc  hc  ca  ha  ca  ha  c3  hc  hc  ca  ha  ha  c3  hc  hc  ha  
hc  hc  c3  c3  hc  hc  hc  c3  hc  hc  hc  hc  
%FLAG TREE_CHAIN_CLASSIFICATION                                                 
%FORMAT(20a4)                                                                   
BLA BLA BLA BLA BLA BLA BLA BLA BLA BLA BLA BLA BLA BLA BLA BLA BLA BLA BLA BLA 
BLA BLA BLA BLA BLA BLA BLA BLA BLA BLA BLA BLA BLA BLA BLA BLA BLA BLA BLA BLA 
BLA BLA BLA BLA BLA BLA BLA BLA BLA BLA BLA BLA BLA BLA BLA BLA BLA BLA BLA BLA 
BLA BLA BLA BLA BLA BLA BLA BLA BLA BLA BLA BLA BLA BLA BLA BLA BLA BLA BLA BLA 
BLA BLA BLA BLA BLA BLA BLA BLA BLA BLA BLA BLA BLA BLA BLA BLA BLA BLA BLA BLA 
BLA BLA BLA BLA BLA BLA BLA BLA BLA BLA BLA BLA BLA BLA BLA BLA BLA BLA BLA BLA 
BLA BLA BLA BLA BLA BLA BLA BLA BLA BLA BLA BLA BLA BLA BLA BLA BLA BLA BLA BLA 
BLA BLA BLA BLA BLA BLA BLA BLA BLA BLA BLA BLA BLA BLA BLA BLA BLA BLA BLA BLA 
BLA BLA BLA BLA BLA BLA BLA BLA BLA BLA BLA BLA BLA BLA BLA BLA BLA BLA BLA BLA 
BLA BLA BLA BLA BLA BLA BLA BLA BLA BLA BLA BLA BLA BLA BLA BLA BLA BLA BLA BLA 
BLA BLA BLA BLA BLA BLA BLA BLA BLA BLA BLA BLA BLA BLA BLA BLA BLA BLA BLA BLA 
BLA BLA BLA BLA BLA BLA BLA BLA BLA BLA BLA BLA BLA BLA BLA BLA BLA BLA BLA BLA 
BLA BLA BLA BLA BLA BLA BLA BLA BLA BLA BLA BLA BLA BLA BLA BLA BLA BLA BLA BLA 
BLA BLA BLA BLA BLA BLA BLA BLA BLA BLA BLA BLA BLA BLA BLA BLA BLA BLA BLA BLA 
BLA BLA BLA BLA BLA BLA BLA BLA BLA BLA BLA BLA BLA BLA BLA BLA BLA BLA BLA BLA 
BLA BLA BLA BLA BLA BLA BLA BLA BLA BLA BLA BLA BLA BLA BLA BLA BLA BLA BLA BLA 
BLA BLA BLA BLA BLA BLA BLA BLA BLA BLA BLA BLA BLA BLA BLA BLA BLA BLA BLA BLA 
BLA BLA BLA BLA BLA BLA BLA BLA BLA BLA BLA BLA BLA BLA BLA BLA BLA BLA BLA BLA 
BLA BLA BLA BLA BLA BLA BLA BLA BLA BLA BLA BLA BLA BLA BLA BLA BLA BLA BLA BLA 
BLA BLA BLA BLA BLA BLA BLA BLA BLA BLA BLA BLA BLA BLA BLA BLA BLA BLA BLA BLA 
BLA BLA BLA BLA BLA BLA BLA BLA BLA BLA BLA BLA BLA BLA BLA BLA BLA BLA BLA BLA 
BLA BLA BLA BLA BLA BLA BLA BLA BLA BLA BLA BLA BLA BLA BLA BLA BLA BLA BLA BLA 
BLA BLA BLA BLA BLA BLA BLA BLA BLA BLA BLA BLA BLA BLA BLA BLA BLA BLA BLA BLA 
BLA BLA BLA BLA BLA BLA BLA BLA BLA BLA BLA BLA BLA BLA BLA BLA BLA BLA BLA BLA 
BLA BLA BLA BLA BLA BLA BLA BLA BLA BLA BLA BLA BLA BLA BLA BLA BLA BLA BLA BLA 
BLA BLA BLA BLA BLA BLA BLA BLA BLA BLA BLA BLA BLA BLA BLA BLA BLA BLA BLA BLA 
BLA BLA BLA BLA BLA BLA BLA BLA BLA BLA BLA BLA BLA BLA BLA BLA BLA BLA BLA BLA 
BLA BLA BLA BLA BLA BLA BLA BLA BLA BLA BLA BLA BLA BLA BLA BLA BLA BLA BLA BLA 
BLA BLA BLA BLA BLA BLA BLA BLA BLA BLA BLA BLA BLA BLA BLA BLA BLA BLA BLA BLA 
BLA BLA BLA BLA BLA BLA BLA BLA BLA BLA BLA BLA BLA BLA BLA BLA BLA BLA BLA BLA 
BLA BLA BLA BLA BLA BLA BLA BLA BLA BLA BLA BLA BLA BLA BLA BLA BLA BLA BLA BLA 
BLA BLA BLA BLA BLA BLA BLA BLA BLA BLA BLA BLA BLA BLA BLA BLA BLA BLA BLA BLA 
BLA BLA BLA BLA BLA BLA BLA BLA BLA BLA BLA BLA BLA BLA BLA BLA BLA BLA BLA BLA 
BLA BLA BLA BLA BLA BLA BLA BLA BLA BLA BLA BLA BLA BLA BLA BLA BLA BLA BLA BLA 
BLA BLA BLA BLA BLA BLA BLA BLA BLA BLA BLA BLA BLA BLA BLA BLA BLA BLA BLA BLA 
BLA BLA BLA BLA BLA BLA BLA BLA BLA BLA BLA BLA BLA BLA BLA BLA BLA BLA BLA BLA 
BLA BLA BLA BLA BLA BLA BLA BLA BLA BLA BLA BLA BLA BLA BLA BLA BLA BLA BLA BLA 
BLA BLA BLA BLA BLA BLA BLA BLA BLA BLA BLA BLA BLA BLA BLA BLA BLA BLA BLA BLA 
BLA BLA BLA BLA BLA BLA BLA BLA BLA BLA BLA BLA BLA BLA BLA BLA BLA BLA BLA BLA 
BLA BLA BLA BLA BLA BLA BLA BLA BLA BLA BLA BLA BLA BLA BLA BLA BLA BLA BLA BLA 
BLA BLA BLA BLA BLA BLA BLA BLA BLA BLA BLA BLA BLA BLA BLA BLA BLA BLA BLA BLA 
BLA BLA BLA BLA BLA BLA BLA BLA BLA BLA BLA BLA BLA BLA BLA BLA BLA BLA BLA BLA 
BLA BLA BLA BLA BLA BLA BLA BLA BLA BLA BLA BLA BLA BLA BLA BLA BLA BLA BLA BLA 
BLA BLA BLA BLA BLA BLA BLA BLA BLA BLA BLA BLA BLA BLA BLA BLA BLA BLA BLA BLA 
BLA BLA BLA BLA BLA BLA BLA BLA BLA BLA BLA BLA BLA BLA BLA BLA BLA BLA BLA BLA 
BLA BLA BLA BLA BLA BLA BLA BLA BLA BLA BLA BLA BLA BLA BLA BLA BLA BLA BLA BLA 
BLA BLA BLA BLA BLA BLA BLA BLA BLA BLA BLA BLA BLA BLA BLA BLA BLA BLA BLA BLA 
BLA BLA BLA BLA BLA BLA BLA BLA BLA BLA BLA BLA BLA BLA BLA BLA BLA BLA BLA BLA 
BLA BLA BLA BLA BLA BLA BLA BLA BLA BLA BLA BLA BLA BLA BLA BLA BLA BLA BLA BLA 
BLA BLA BLA BLA BLA BLA BLA BLA BLA BLA BLA BLA BLA BLA BLA BLA BLA BLA BLA BLA 
BLA BLA BLA BLA BLA BLA BLA BLA BLA BLA BLA BLA BLA BLA BLA BLA BLA BLA BLA BLA 
BLA BLA BLA BLA BLA BLA BLA BLA BLA BLA BLA BLA BLA BLA BLA BLA BLA BLA BLA BLA 
BLA BLA BLA BLA BLA BLA BLA BLA BLA BLA BLA BLA BLA BLA BLA BLA BLA BLA BLA BLA 
BLA BLA BLA BLA BLA BLA BLA BLA BLA BLA BLA BLA BLA BLA BLA BLA BLA BLA BLA BLA 
BLA BLA BLA BLA BLA BLA BLA BLA BLA BLA BLA BLA BLA BLA BLA BLA BLA BLA BLA BLA 
BLA BLA BLA BLA BLA BLA BLA BLA BLA BLA BLA BLA BLA BLA BLA BLA BLA BLA BLA BLA 
BLA BLA BLA BLA BLA BLA BLA BLA BLA BLA BLA BLA BLA BLA BLA BLA BLA BLA BLA BLA 
BLA BLA BLA BLA BLA BLA BLA BLA BLA BLA BLA BLA BLA BLA BLA BLA BLA BLA BLA BLA 
BLA BLA BLA BLA BLA BLA BLA BLA BLA BLA BLA BLA BLA BLA BLA BLA BLA BLA BLA BLA 
BLA BLA BLA BLA BLA BLA BLA BLA BLA BLA BLA BLA BLA BLA BLA BLA BLA BLA BLA BLA 
BLA BLA BLA BLA BLA BLA BLA BLA BLA BLA BLA BLA BLA BLA BLA BLA BLA BLA BLA BLA 
BLA BLA BLA BLA BLA BLA BLA BLA BLA BLA BLA BLA BLA BLA BLA BLA BLA BLA BLA BLA 
BLA BLA BLA BLA BLA BLA BLA BLA BLA BLA BLA BLA BLA BLA BLA BLA BLA BLA BLA BLA 
BLA BLA BLA BLA BLA BLA BLA BLA BLA BLA BLA BLA BLA BLA BLA BLA BLA BLA BLA BLA 
BLA BLA BLA BLA BLA BLA BLA BLA BLA BLA BLA BLA BLA BLA BLA BLA BLA BLA BLA BLA 
BLA BLA BLA BLA BLA BLA BLA BLA BLA BLA BLA BLA BLA BLA BLA BLA BLA BLA BLA BLA 
BLA BLA BLA BLA BLA BLA BLA BLA BLA BLA BLA BLA BLA BLA BLA BLA BLA BLA BLA BLA 
BLA BLA BLA BLA BLA BLA BLA BLA BLA BLA BLA BLA BLA BLA BLA BLA BLA BLA BLA BLA 
BLA BLA BLA BLA BLA BLA BLA BLA BLA BLA BLA BLA BLA BLA BLA BLA BLA BLA BLA BLA 
BLA BLA BLA BLA BLA BLA BLA BLA BLA BLA BLA BLA BLA BLA BLA BLA BLA BLA BLA BLA 
BLA BLA BLA BLA BLA BLA BLA BLA BLA BLA BLA BLA BLA BLA BLA BLA BLA BLA BLA BLA 
BLA BLA BLA BLA BLA BLA BLA BLA BLA BLA BLA BLA BLA BLA BLA BLA BLA BLA BLA BLA 
BLA BLA BLA BLA BLA BLA BLA BLA BLA BLA BLA BLA BLA BLA BLA BLA BLA BLA BLA BLA 
BLA BLA BLA BLA BLA BLA BLA BLA BLA BLA BLA BLA BLA BLA BLA BLA BLA BLA BLA BLA 
BLA BLA BLA BLA BLA BLA BLA BLA BLA BLA BLA BLA BLA BLA BLA BLA BLA BLA BLA BLA 
BLA BLA BLA BLA BLA BLA BLA BLA BLA BLA BLA BLA BLA BLA BLA BLA BLA BLA BLA BLA 
BLA BLA BLA BLA BLA BLA BLA BLA BLA BLA BLA BLA BLA BLA BLA BLA BLA BLA BLA BLA 
BLA BLA BLA BLA BLA BLA BLA BLA BLA BLA BLA BLA BLA BLA BLA BLA BLA BLA BLA BLA 
BLA BLA BLA BLA BLA BLA BLA BLA BLA BLA BLA BLA BLA BLA BLA BLA BLA BLA BLA BLA 
BLA BLA BLA BLA BLA BLA BLA BLA BLA BLA BLA BLA BLA BLA BLA BLA BLA BLA BLA BLA 
BLA BLA BLA BLA BLA BLA BLA BLA BLA BLA BLA BLA BLA BLA BLA BLA BLA BLA BLA BLA 
BLA BLA BLA BLA BLA BLA BLA BLA BLA BLA BLA BLA BLA BLA BLA BLA BLA BLA BLA BLA 
BLA BLA BLA BLA BLA BLA BLA BLA BLA BLA BLA BLA BLA BLA BLA BLA BLA BLA BLA BLA 
BLA BLA BLA BLA BLA BLA BLA BLA BLA BLA BLA BLA BLA BLA BLA BLA BLA BLA BLA BLA 
BLA BLA BLA BLA BLA BLA BLA BLA BLA BLA BLA BLA BLA BLA BLA BLA BLA BLA BLA BLA 
BLA BLA BLA BLA BLA BLA BLA BLA BLA BLA BLA BLA BLA BLA BLA BLA BLA BLA BLA BLA 
BLA BLA BLA BLA BLA BLA BLA BLA BLA BLA BLA BLA BLA BLA BLA BLA BLA BLA BLA BLA 
BLA BLA BLA BLA BLA BLA BLA BLA BLA BLA BLA BLA BLA BLA BLA BLA BLA BLA BLA BLA 
BLA BLA BLA BLA BLA BLA BLA BLA BLA BLA BLA BLA BLA BLA BLA BLA BLA BLA BLA BLA 
BLA BLA BLA BLA BLA BLA BLA BLA BLA BLA BLA BLA BLA BLA BLA BLA BLA BLA BLA BLA 
BLA BLA BLA BLA BLA BLA BLA BLA BLA BLA BLA BLA BLA BLA BLA BLA BLA BLA BLA BLA 
BLA BLA BLA BLA BLA BLA BLA BLA BLA BLA BLA BLA BLA BLA BLA BLA BLA BLA BLA BLA 
BLA BLA BLA BLA BLA BLA BLA BLA BLA BLA BLA BLA BLA BLA BLA BLA BLA BLA BLA BLA 
BLA BLA BLA BLA BLA BLA BLA BLA BLA BLA BLA BLA BLA BLA BLA BLA BLA BLA BLA BLA 
BLA BLA BLA BLA BLA BLA BLA BLA BLA BLA BLA BLA BLA BLA BLA BLA BLA BLA BLA BLA 
BLA BLA BLA BLA BLA BLA BLA BLA BLA BLA BLA BLA BLA BLA BLA BLA BLA BLA BLA BLA 
BLA BLA BLA BLA BLA BLA BLA BLA BLA BLA BLA BLA BLA BLA BLA BLA BLA BLA BLA BLA 
BLA BLA BLA BLA BLA BLA BLA BLA BLA BLA BLA BLA BLA BLA BLA BLA BLA BLA BLA BLA 
BLA BLA BLA BLA BLA BLA BLA BLA BLA BLA BLA BLA BLA BLA BLA BLA BLA BLA BLA BLA 
BLA BLA BLA BLA BLA BLA BLA BLA BLA BLA BLA BLA BLA BLA BLA BLA BLA BLA BLA BLA 
BLA BLA BLA BLA BLA BLA BLA BLA BLA BLA BLA BLA BLA BLA BLA BLA BLA BLA BLA BLA 
BLA BLA BLA BLA BLA BLA BLA BLA BLA BLA BLA BLA BLA BLA BLA BLA BLA BLA BLA BLA 
BLA BLA BLA BLA BLA BLA BLA BLA BLA BLA BLA BLA BLA BLA BLA BLA BLA BLA BLA BLA 
BLA BLA BLA BLA BLA BLA BLA BLA BLA BLA BLA BLA BLA BLA BLA BLA BLA BLA BLA BLA 
BLA BLA BLA BLA BLA BLA BLA BLA BLA BLA BLA BLA BLA BLA BLA BLA BLA BLA BLA BLA 
BLA BLA BLA BLA BLA BLA BLA BLA BLA BLA BLA BLA BLA BLA BLA BLA BLA BLA BLA BLA 
BLA BLA BLA BLA BLA BLA BLA BLA BLA BLA BLA BLA BLA BLA BLA BLA BLA BLA BLA BLA 
BLA BLA BLA BLA BLA BLA BLA BLA BLA BLA BLA BLA BLA BLA BLA BLA BLA BLA BLA BLA 
BLA BLA BLA BLA BLA BLA BLA BLA BLA BLA BLA BLA BLA BLA BLA BLA BLA BLA BLA BLA 
BLA BLA BLA BLA BLA BLA BLA BLA BLA BLA BLA BLA BLA BLA BLA BLA BLA BLA BLA BLA 
BLA BLA BLA BLA BLA BLA BLA BLA BLA BLA BLA BLA BLA BLA BLA BLA BLA BLA BLA BLA 
BLA BLA BLA BLA BLA BLA BLA BLA BLA BLA BLA BLA BLA BLA BLA BLA BLA BLA BLA BLA 
BLA BLA BLA BLA BLA BLA BLA BLA BLA BLA BLA BLA BLA BLA BLA BLA BLA BLA BLA BLA 
BLA BLA BLA BLA BLA BLA BLA BLA BLA BLA BLA BLA BLA BLA BLA BLA BLA BLA BLA BLA 
BLA BLA BLA BLA BLA BLA BLA BLA BLA BLA BLA BLA BLA BLA BLA BLA BLA BLA BLA BLA 
BLA BLA BLA BLA BLA BLA BLA BLA BLA BLA BLA BLA BLA BLA BLA BLA BLA BLA BLA BLA 
BLA BLA BLA BLA BLA BLA BLA BLA BLA BLA BLA BLA BLA BLA BLA BLA BLA BLA BLA BLA 
BLA BLA BLA BLA BLA BLA BLA BLA BLA BLA BLA BLA BLA BLA BLA BLA BLA BLA BLA BLA 
BLA BLA BLA BLA BLA BLA BLA BLA BLA BLA BLA BLA BLA BLA BLA BLA BLA BLA BLA BLA 
BLA BLA BLA BLA BLA BLA BLA BLA BLA BLA BLA BLA BLA BLA BLA BLA BLA BLA BLA BLA 
BLA BLA BLA BLA BLA BLA BLA BLA BLA BLA BLA BLA BLA BLA BLA BLA BLA BLA BLA BLA 
BLA BLA BLA BLA BLA BLA BLA BLA BLA BLA BLA BLA BLA BLA BLA BLA BLA BLA BLA BLA 
BLA BLA BLA BLA BLA BLA BLA BLA BLA BLA BLA BLA BLA BLA BLA BLA BLA BLA BLA BLA 
BLA BLA BLA BLA BLA BLA BLA BLA BLA BLA BLA BLA BLA BLA BLA BLA BLA BLA BLA BLA 
BLA BLA BLA BLA BLA BLA BLA BLA BLA BLA BLA BLA BLA BLA BLA BLA BLA BLA BLA BLA 
BLA BLA BLA BLA BLA BLA BLA BLA BLA BLA BLA BLA BLA BLA BLA BLA BLA BLA BLA BLA 
BLA BLA BLA BLA BLA BLA BLA BLA BLA BLA BLA BLA BLA BLA BLA BLA BLA BLA BLA BLA 
BLA BLA BLA BLA BLA BLA BLA BLA BLA BLA BLA BLA BLA BLA BLA BLA BLA BLA BLA BLA 
BLA BLA BLA BLA BLA BLA BLA BLA BLA BLA BLA BLA BLA BLA BLA BLA BLA BLA BLA BLA 
BLA BLA BLA BLA BLA BLA BLA BLA BLA BLA BLA BLA BLA BLA BLA BLA BLA BLA BLA BLA 
BLA BLA BLA BLA BLA BLA BLA BLA BLA BLA BLA BLA BLA BLA BLA BLA BLA BLA BLA BLA 
BLA BLA BLA BLA BLA BLA BLA BLA BLA BLA BLA BLA BLA BLA BLA BLA BLA BLA BLA BLA 
BLA BLA BLA BLA BLA BLA BLA BLA BLA BLA BLA BLA BLA BLA BLA BLA BLA BLA BLA BLA 
BLA BLA BLA BLA BLA BLA BLA BLA BLA BLA BLA BLA BLA BLA BLA BLA BLA BLA BLA BLA 
BLA BLA BLA BLA BLA BLA BLA BLA BLA BLA BLA BLA BLA BLA BLA BLA BLA BLA BLA BLA 
BLA BLA BLA BLA BLA BLA BLA BLA BLA BLA BLA BLA BLA BLA BLA BLA BLA BLA BLA BLA 
BLA BLA BLA BLA BLA BLA BLA BLA BLA BLA BLA BLA BLA BLA BLA BLA BLA BLA BLA BLA 
BLA BLA BLA BLA BLA BLA BLA BLA BLA BLA BLA BLA BLA BLA BLA BLA BLA BLA BLA BLA 
BLA BLA BLA BLA BLA BLA BLA BLA BLA BLA BLA BLA BLA BLA BLA BLA BLA BLA BLA BLA 
BLA BLA BLA BLA BLA BLA BLA BLA BLA BLA BLA BLA BLA BLA BLA BLA BLA BLA BLA BLA 
BLA BLA BLA BLA BLA BLA BLA BLA BLA BLA BLA BLA BLA BLA BLA BLA BLA BLA BLA BLA 
BLA BLA BLA BLA BLA BLA BLA BLA BLA BLA BLA BLA BLA BLA BLA BLA BLA BLA BLA BLA 
BLA BLA BLA BLA BLA BLA BLA BLA BLA BLA BLA BLA BLA BLA BLA BLA BLA BLA BLA BLA 
BLA BLA BLA BLA BLA BLA BLA BLA BLA BLA BLA BLA BLA BLA BLA BLA BLA BLA BLA BLA 
BLA BLA BLA BLA BLA BLA BLA BLA BLA BLA BLA BLA BLA BLA BLA BLA BLA BLA BLA BLA 
BLA BLA BLA BLA BLA BLA BLA BLA BLA BLA BLA BLA BLA BLA BLA BLA BLA BLA BLA BLA 
BLA BLA BLA BLA BLA BLA BLA BLA BLA BLA BLA BLA BLA BLA BLA BLA BLA BLA BLA BLA 
BLA BLA BLA BLA BLA BLA BLA BLA BLA BLA BLA BLA BLA BLA BLA BLA BLA BLA BLA BLA 
BLA BLA BLA BLA BLA BLA BLA BLA BLA BLA BLA BLA BLA BLA BLA BLA BLA BLA BLA BLA 
BLA BLA BLA BLA BLA BLA BLA BLA BLA BLA BLA BLA BLA BLA BLA BLA BLA BLA BLA BLA 
BLA BLA BLA BLA BLA BLA BLA BLA BLA BLA BLA BLA BLA BLA BLA BLA BLA BLA BLA BLA 
BLA BLA BLA BLA BLA BLA BLA BLA BLA BLA BLA BLA BLA BLA BLA BLA BLA BLA BLA BLA 
BLA BLA BLA BLA BLA BLA BLA BLA BLA BLA BLA BLA BLA BLA BLA BLA BLA BLA BLA BLA 
BLA BLA BLA BLA BLA BLA BLA BLA BLA BLA BLA BLA BLA BLA BLA BLA BLA BLA BLA BLA 
BLA BLA BLA BLA BLA BLA BLA BLA BLA BLA BLA BLA BLA BLA BLA BLA BLA BLA BLA BLA 
BLA BLA BLA BLA BLA BLA BLA BLA BLA BLA BLA BLA BLA BLA BLA BLA BLA BLA BLA BLA 
BLA BLA BLA BLA BLA BLA BLA BLA BLA BLA BLA BLA BLA BLA BLA BLA BLA BLA BLA BLA 
BLA BLA BLA BLA BLA BLA BLA BLA BLA BLA BLA BLA BLA BLA BLA BLA BLA BLA BLA BLA 
BLA BLA BLA BLA BLA BLA BLA BLA BLA BLA BLA BLA BLA BLA BLA BLA BLA BLA BLA BLA 
BLA BLA BLA BLA BLA BLA BLA BLA BLA BLA BLA BLA BLA BLA BLA BLA BLA BLA BLA BLA 
BLA BLA BLA BLA BLA BLA BLA BLA BLA BLA BLA BLA BLA BLA BLA BLA BLA BLA BLA BLA 
BLA BLA BLA BLA BLA BLA BLA BLA BLA BLA BLA BLA BLA BLA BLA BLA BLA BLA BLA BLA 
BLA BLA BLA BLA BLA BLA BLA BLA BLA BLA BLA BLA BLA BLA BLA BLA BLA BLA BLA BLA 
BLA BLA BLA BLA BLA BLA BLA BLA BLA BLA BLA BLA BLA BLA BLA BLA BLA BLA BLA BLA 
BLA BLA BLA BLA BLA BLA BLA BLA BLA BLA BLA BLA BLA BLA BLA BLA BLA BLA BLA BLA 
BLA BLA BLA BLA BLA BLA BLA BLA BLA BLA BLA BLA BLA BLA BLA BLA BLA BLA BLA BLA 
BLA BLA BLA BLA BLA BLA BLA BLA BLA BLA BLA BLA BLA BLA BLA BLA BLA BLA BLA BLA 
BLA BLA BLA BLA BLA BLA BLA BLA BLA BLA BLA BLA BLA BLA BLA BLA BLA BLA BLA BLA 
BLA BLA BLA BLA BLA BLA BLA BLA BLA BLA BLA BLA BLA BLA BLA BLA BLA BLA BLA BLA 
BLA BLA BLA BLA BLA BLA BLA BLA BLA BLA BLA BLA BLA BLA BLA BLA BLA BLA BLA BLA 
BLA BLA BLA BLA BLA BLA BLA BLA BLA BLA BLA BLA BLA BLA BLA BLA BLA BLA BLA BLA 
BLA BLA BLA BLA BLA BLA BLA BLA BLA BLA BLA BLA BLA BLA BLA BLA BLA BLA BLA BLA 
BLA BLA BLA BLA BLA BLA BLA BLA BLA BLA BLA BLA BLA BLA BLA BLA BLA BLA BLA BLA 
BLA BLA BLA BLA BLA BLA BLA BLA BLA BLA BLA BLA BLA BLA BLA BLA BLA BLA BLA BLA 
BLA BLA BLA BLA BLA BLA BLA BLA BLA BLA BLA BLA BLA BLA BLA BLA BLA BLA BLA BLA 
BLA BLA BLA BLA BLA BLA BLA BLA BLA BLA BLA BLA BLA BLA BLA BLA BLA BLA BLA BLA 
BLA BLA BLA BLA BLA BLA BLA BLA BLA BLA BLA BLA BLA BLA BLA BLA BLA BLA BLA BLA 
BLA BLA BLA BLA BLA BLA BLA BLA BLA BLA BLA BLA BLA BLA BLA BLA BLA BLA BLA BLA 
BLA BLA BLA BLA BLA BLA BLA BLA BLA BLA BLA BLA BLA BLA BLA BLA BLA BLA BLA BLA 
BLA BLA BLA BLA BLA BLA BLA BLA BLA BLA BLA BLA BLA BLA BLA BLA BLA BLA BLA BLA 
BLA BLA BLA BLA BLA BLA BLA BLA BLA BLA BLA BLA BLA BLA BLA BLA BLA BLA BLA BLA 
BLA BLA BLA BLA BLA BLA BLA BLA BLA BLA BLA BLA BLA BLA BLA BLA BLA BLA BLA BLA 
BLA BLA BLA BLA BLA BLA BLA BLA BLA BLA BLA BLA BLA BLA BLA BLA BLA BLA BLA BLA 
BLA BLA BLA BLA BLA BLA BLA BLA BLA BLA BLA BLA BLA BLA BLA BLA BLA BLA BLA BLA 
BLA BLA BLA BLA BLA BLA BLA BLA BLA BLA BLA BLA BLA BLA BLA BLA BLA BLA BLA BLA 
BLA BLA BLA BLA BLA BLA BLA BLA BLA BLA BLA BLA BLA BLA BLA BLA BLA BLA BLA BLA 
BLA BLA BLA BLA BLA BLA BLA BLA BLA BLA BLA BLA BLA BLA BLA BLA BLA BLA BLA BLA 
BLA BLA BLA BLA BLA BLA BLA BLA BLA BLA BLA BLA BLA BLA BLA BLA BLA BLA BLA BLA 
BLA BLA BLA BLA BLA BLA BLA BLA BLA BLA BLA BLA BLA BLA BLA BLA BLA BLA BLA BLA 
BLA BLA BLA BLA BLA BLA BLA BLA BLA BLA BLA BLA BLA BLA BLA BLA BLA BLA BLA BLA 
BLA BLA BLA BLA BLA BLA BLA BLA BLA BLA BLA BLA BLA BLA BLA BLA BLA BLA BLA BLA 
BLA BLA BLA BLA BLA BLA BLA BLA BLA BLA BLA BLA BLA BLA BLA BLA BLA BLA BLA BLA 
BLA BLA BLA BLA BLA BLA BLA BLA BLA BLA BLA BLA BLA BLA BLA BLA BLA BLA BLA BLA 
BLA BLA BLA BLA BLA BLA BLA BLA BLA BLA BLA BLA BLA BLA BLA BLA BLA BLA BLA BLA 
BLA BLA BLA BLA BLA BLA BLA BLA BLA BLA BLA BLA BLA BLA BLA BLA BLA BLA BLA BLA 
BLA BLA BLA BLA BLA BLA BLA BLA BLA BLA BLA BLA BLA BLA BLA BLA BLA BLA BLA BLA 
BLA BLA BLA BLA BLA BLA BLA BLA BLA BLA BLA BLA BLA BLA BLA BLA BLA BLA BLA BLA 
BLA BLA BLA BLA BLA BLA BLA BLA BLA BLA BLA BLA BLA BLA BLA BLA BLA BLA BLA BLA 
BLA BLA BLA BLA BLA BLA BLA BLA BLA BLA BLA BLA BLA BLA BLA BLA BLA BLA BLA BLA 
BLA BLA BLA BLA BLA BLA BLA BLA BLA BLA BLA BLA BLA BLA BLA BLA BLA BLA BLA BLA 
BLA BLA BLA BLA BLA BLA BLA BLA BLA BLA BLA BLA BLA BLA BLA BLA BLA BLA BLA BLA 
BLA BLA BLA BLA BLA BLA BLA BLA BLA BLA BLA BLA BLA BLA BLA BLA BLA BLA BLA BLA 
BLA BLA BLA BLA BLA BLA BLA BLA BLA BLA BLA BLA BLA BLA BLA BLA BLA BLA BLA BLA 
BLA BLA BLA BLA BLA BLA BLA BLA BLA BLA BLA BLA BLA BLA BLA BLA BLA BLA BLA BLA 
BLA BLA BLA BLA BLA BLA BLA BLA BLA BLA BLA BLA BLA BLA BLA BLA BLA BLA BLA BLA 
BLA BLA BLA BLA BLA BLA BLA BLA BLA BLA BLA BLA BLA BLA BLA BLA BLA BLA BLA BLA 
BLA BLA BLA BLA BLA BLA BLA BLA BLA BLA BLA BLA BLA BLA BLA BLA BLA BLA BLA BLA 
BLA BLA BLA BLA BLA BLA BLA BLA BLA BLA BLA BLA BLA BLA BLA BLA BLA BLA BLA BLA 
BLA BLA BLA BLA BLA BLA BLA BLA BLA BLA BLA BLA BLA BLA BLA BLA BLA BLA BLA BLA 
BLA BLA BLA BLA BLA BLA BLA BLA BLA BLA BLA BLA BLA BLA BLA BLA BLA BLA BLA BLA 
BLA BLA BLA BLA BLA BLA BLA BLA BLA BLA BLA BLA BLA BLA BLA BLA BLA BLA BLA BLA 
BLA BLA BLA BLA BLA BLA BLA BLA BLA BLA BLA BLA BLA BLA BLA BLA BLA BLA BLA BLA 
BLA BLA BLA BLA BLA BLA BLA BLA BLA BLA BLA BLA BLA BLA BLA BLA BLA BLA BLA BLA 
BLA BLA BLA BLA BLA BLA BLA BLA BLA BLA BLA BLA BLA BLA BLA BLA BLA BLA BLA BLA 
BLA BLA BLA BLA BLA BLA BLA BLA BLA BLA BLA BLA BLA BLA BLA BLA BLA BLA BLA BLA 
BLA BLA BLA BLA BLA BLA BLA BLA BLA BLA BLA BLA BLA BLA BLA BLA BLA BLA BLA BLA 
BLA BLA BLA BLA BLA BLA BLA BLA BLA BLA BLA BLA BLA BLA BLA BLA BLA BLA BLA BLA 
BLA BLA BLA BLA BLA BLA BLA BLA BLA BLA BLA BLA BLA BLA BLA BLA BLA BLA BLA BLA 
BLA BLA BLA BLA BLA BLA BLA BLA BLA BLA BLA BLA BLA BLA BLA BLA BLA BLA BLA BLA 
BLA BLA BLA BLA BLA BLA BLA BLA BLA BLA BLA BLA BLA BLA BLA BLA BLA BLA BLA BLA 
BLA BLA BLA BLA BLA BLA BLA BLA BLA BLA BLA BLA BLA BLA BLA BLA BLA BLA BLA BLA 
BLA BLA BLA BLA BLA BLA BLA BLA BLA BLA BLA BLA BLA BLA BLA BLA BLA BLA BLA BLA 
BLA BLA BLA BLA BLA BLA BLA BLA BLA BLA BLA BLA BLA BLA BLA BLA BLA BLA BLA BLA 
BLA BLA BLA BLA BLA BLA BLA BLA BLA BLA BLA BLA BLA BLA BLA BLA BLA BLA BLA BLA 
BLA BLA BLA BLA BLA BLA BLA BLA BLA BLA BLA BLA BLA BLA BLA BLA BLA BLA BLA BLA 
BLA BLA BLA BLA BLA BLA BLA BLA BLA BLA BLA BLA BLA BLA BLA BLA BLA BLA BLA BLA 
BLA BLA BLA BLA BLA BLA BLA BLA BLA BLA BLA BLA BLA BLA BLA BLA BLA BLA BLA BLA 
BLA BLA BLA BLA BLA BLA BLA BLA BLA BLA BLA BLA BLA BLA BLA BLA BLA BLA BLA BLA 
BLA BLA BLA BLA BLA BLA BLA BLA BLA BLA BLA BLA BLA BLA BLA BLA BLA BLA BLA BLA 
BLA BLA BLA BLA BLA BLA BLA BLA BLA BLA BLA BLA BLA BLA BLA BLA BLA BLA BLA BLA 
BLA BLA BLA BLA BLA BLA BLA BLA BLA BLA BLA BLA BLA BLA BLA BLA BLA BLA BLA BLA 
BLA BLA BLA BLA BLA BLA BLA BLA BLA BLA BLA BLA BLA BLA BLA BLA BLA BLA BLA BLA 
BLA BLA BLA BLA BLA BLA BLA BLA BLA BLA BLA BLA BLA BLA BLA BLA BLA BLA BLA BLA 
BLA BLA BLA BLA BLA BLA BLA BLA BLA BLA BLA BLA BLA BLA BLA BLA BLA BLA BLA BLA 
BLA BLA BLA BLA BLA BLA BLA BLA BLA BLA BLA BLA BLA BLA BLA BLA BLA BLA BLA BLA 
BLA BLA BLA BLA BLA BLA BLA BLA BLA BLA BLA BLA BLA BLA BLA BLA BLA BLA BLA BLA 
BLA BLA BLA BLA BLA BLA BLA BLA BLA BLA BLA BLA BLA BLA BLA BLA BLA BLA BLA BLA 
BLA BLA BLA BLA BLA BLA BLA BLA BLA BLA BLA BLA BLA BLA BLA BLA BLA BLA BLA BLA 
BLA BLA BLA BLA BLA BLA BLA BLA BLA BLA BLA BLA BLA BLA BLA BLA BLA BLA BLA BLA 
BLA BLA BLA BLA BLA BLA BLA BLA BLA BLA BLA BLA BLA BLA BLA BLA BLA BLA BLA BLA 
BLA BLA BLA BLA BLA BLA BLA BLA BLA BLA BLA BLA BLA BLA BLA BLA BLA BLA BLA BLA 
BLA BLA BLA BLA BLA BLA BLA BLA BLA BLA BLA BLA BLA BLA BLA BLA BLA BLA BLA BLA 
BLA BLA BLA BLA BLA BLA BLA BLA BLA BLA BLA BLA BLA BLA BLA BLA BLA BLA BLA BLA 
BLA BLA BLA BLA BLA BLA BLA BLA BLA BLA BLA BLA BLA BLA BLA BLA BLA BLA BLA BLA 
BLA BLA BLA BLA BLA BLA BLA BLA BLA BLA BLA BLA BLA BLA BLA BLA BLA BLA BLA BLA 
BLA BLA BLA BLA BLA BLA BLA BLA BLA BLA BLA BLA BLA BLA BLA BLA BLA BLA BLA BLA 
BLA BLA BLA BLA BLA BLA BLA BLA BLA BLA BLA BLA BLA BLA BLA BLA BLA BLA BLA BLA 
BLA BLA BLA BLA BLA BLA BLA BLA BLA BLA BLA BLA BLA BLA BLA BLA BLA BLA BLA BLA 
BLA BLA BLA BLA BLA BLA BLA BLA BLA BLA BLA BLA BLA BLA BLA BLA BLA BLA BLA BLA 
BLA BLA BLA BLA BLA BLA BLA BLA BLA BLA BLA BLA BLA BLA BLA BLA BLA BLA BLA BLA 
BLA BLA BLA BLA BLA BLA BLA BLA BLA BLA BLA BLA BLA BLA BLA BLA BLA BLA BLA BLA 
BLA BLA BLA BLA BLA BLA BLA BLA BLA BLA BLA BLA BLA BLA BLA BLA BLA BLA BLA BLA 
BLA BLA BLA BLA BLA BLA BLA BLA BLA BLA BLA BLA BLA BLA BLA BLA BLA BLA BLA BLA 
BLA BLA BLA BLA BLA BLA BLA BLA BLA BLA BLA BLA BLA BLA BLA BLA BLA BLA BLA BLA 
BLA BLA BLA BLA BLA BLA BLA BLA BLA BLA BLA BLA BLA BLA BLA BLA BLA BLA BLA BLA 
BLA BLA BLA BLA BLA BLA BLA BLA BLA BLA BLA BLA BLA BLA BLA BLA BLA BLA BLA BLA 
BLA BLA BLA BLA BLA BLA BLA BLA BLA BLA BLA BLA BLA BLA BLA BLA BLA BLA BLA BLA 
BLA BLA BLA BLA BLA BLA BLA BLA BLA BLA BLA BLA BLA BLA BLA BLA BLA BLA BLA BLA 
BLA BLA BLA BLA BLA BLA BLA BLA BLA BLA BLA BLA BLA BLA BLA BLA BLA BLA BLA BLA 
BLA BLA BLA BLA BLA BLA BLA BLA BLA BLA BLA BLA BLA BLA BLA BLA BLA BLA BLA BLA 
BLA BLA BLA BLA BLA BLA BLA BLA BLA BLA BLA BLA BLA BLA BLA BLA BLA BLA BLA BLA 
BLA BLA BLA BLA BLA BLA BLA BLA BLA BLA BLA BLA BLA BLA BLA BLA BLA BLA BLA BLA 
BLA BLA BLA BLA BLA BLA BLA BLA BLA BLA BLA BLA BLA BLA BLA BLA BLA BLA BLA BLA 
BLA BLA BLA BLA BLA BLA BLA BLA BLA BLA BLA BLA BLA BLA BLA BLA BLA BLA BLA BLA 
BLA BLA BLA BLA BLA BLA BLA BLA BLA BLA BLA BLA BLA BLA BLA BLA BLA BLA BLA BLA 
BLA BLA BLA BLA BLA BLA BLA BLA BLA BLA BLA BLA BLA BLA BLA BLA BLA BLA BLA BLA 
BLA BLA BLA BLA BLA BLA BLA BLA BLA BLA BLA BLA BLA BLA BLA BLA BLA BLA BLA BLA 
BLA BLA BLA BLA BLA BLA BLA BLA BLA BLA BLA BLA BLA BLA BLA BLA BLA BLA BLA BLA 
BLA BLA BLA BLA BLA BLA BLA BLA BLA BLA BLA BLA BLA BLA BLA BLA BLA BLA BLA BLA 
BLA BLA BLA BLA BLA BLA BLA BLA BLA BLA BLA BLA BLA BLA BLA BLA BLA BLA BLA BLA 
BLA BLA BLA BLA BLA BLA BLA BLA BLA BLA BLA BLA BLA BLA BLA BLA BLA BLA BLA BLA 
BLA BLA BLA BLA BLA BLA BLA BLA BLA BLA BLA BLA BLA BLA BLA BLA BLA BLA BLA BLA 
BLA BLA BLA BLA BLA BLA BLA BLA BLA BLA BLA BLA BLA BLA BLA BLA BLA BLA BLA BLA 
BLA BLA BLA BLA BLA BLA BLA BLA BLA BLA BLA BLA BLA BLA BLA BLA BLA BLA BLA BLA 
BLA BLA BLA BLA BLA BLA BLA BLA BLA BLA BLA BLA BLA BLA BLA BLA BLA BLA BLA BLA 
BLA BLA BLA BLA BLA BLA BLA BLA BLA BLA BLA BLA BLA BLA BLA BLA BLA BLA BLA BLA 
BLA BLA BLA BLA BLA BLA BLA BLA BLA BLA BLA BLA BLA BLA BLA BLA BLA BLA BLA BLA 
BLA BLA BLA BLA BLA BLA BLA BLA BLA BLA BLA BLA BLA BLA BLA BLA BLA BLA BLA BLA 
BLA BLA BLA BLA BLA BLA BLA BLA BLA BLA BLA BLA BLA BLA BLA BLA BLA BLA BLA BLA 
BLA BLA BLA BLA BLA BLA BLA BLA BLA BLA BLA BLA BLA BLA BLA BLA BLA BLA BLA BLA 
BLA BLA BLA BLA BLA BLA BLA BLA BLA BLA BLA BLA BLA BLA BLA BLA BLA BLA BLA BLA 
BLA BLA BLA BLA BLA BLA BLA BLA BLA BLA BLA BLA BLA BLA BLA BLA BLA BLA BLA BLA 
BLA BLA BLA BLA BLA BLA BLA BLA BLA BLA BLA BLA BLA BLA BLA BLA BLA BLA BLA BLA 
BLA BLA BLA BLA BLA BLA BLA BLA BLA BLA BLA BLA BLA BLA BLA BLA BLA BLA BLA BLA 
BLA BLA BLA BLA BLA BLA BLA BLA BLA BLA BLA BLA BLA BLA BLA BLA BLA BLA BLA BLA 
BLA BLA BLA BLA BLA BLA BLA BLA BLA BLA BLA BLA BLA BLA BLA BLA BLA BLA BLA BLA 
BLA BLA BLA BLA BLA BLA BLA BLA BLA BLA BLA BLA BLA BLA BLA BLA BLA BLA BLA BLA 
BLA BLA BLA BLA BLA BLA BLA BLA BLA BLA BLA BLA BLA BLA BLA BLA BLA BLA BLA BLA 
BLA BLA BLA BLA BLA BLA BLA BLA BLA BLA BLA BLA BLA BLA BLA BLA BLA BLA BLA BLA 
BLA BLA BLA BLA BLA BLA BLA BLA BLA BLA BLA BLA BLA BLA BLA BLA BLA BLA BLA BLA 
BLA BLA BLA BLA BLA BLA BLA BLA BLA BLA BLA BLA BLA BLA BLA BLA BLA BLA BLA BLA 
BLA BLA BLA BLA BLA BLA BLA BLA BLA BLA BLA BLA BLA BLA BLA BLA BLA BLA BLA BLA 
BLA BLA BLA BLA BLA BLA BLA BLA BLA BLA BLA BLA BLA BLA BLA BLA BLA BLA BLA BLA 
BLA BLA BLA BLA BLA BLA BLA BLA BLA BLA BLA BLA BLA BLA BLA BLA BLA BLA BLA BLA 
BLA BLA BLA BLA BLA BLA BLA BLA BLA BLA BLA BLA BLA BLA BLA BLA BLA BLA BLA BLA 
BLA BLA BLA BLA BLA BLA BLA BLA BLA BLA BLA BLA BLA BLA BLA BLA BLA BLA BLA BLA 
BLA BLA BLA BLA BLA BLA BLA BLA BLA BLA BLA BLA BLA BLA BLA BLA BLA BLA BLA BLA 
BLA BLA BLA BLA BLA BLA BLA BLA BLA BLA BLA BLA BLA BLA BLA BLA BLA BLA BLA BLA 
BLA BLA BLA BLA BLA BLA BLA BLA BLA BLA BLA BLA BLA BLA BLA BLA BLA BLA BLA BLA 
BLA BLA BLA BLA BLA BLA BLA BLA BLA BLA BLA BLA BLA BLA BLA BLA BLA BLA BLA BLA 
BLA BLA BLA BLA BLA BLA BLA BLA BLA BLA BLA BLA BLA BLA BLA BLA BLA BLA BLA BLA 
BLA BLA BLA BLA BLA BLA BLA BLA BLA BLA BLA BLA BLA BLA BLA BLA BLA BLA BLA BLA 
BLA BLA BLA BLA BLA BLA BLA BLA BLA BLA BLA BLA BLA BLA BLA BLA BLA BLA BLA BLA 
BLA BLA BLA BLA BLA BLA BLA BLA BLA BLA BLA BLA BLA BLA BLA BLA BLA BLA BLA BLA 
BLA BLA BLA BLA BLA BLA BLA BLA BLA BLA BLA BLA BLA BLA BLA BLA BLA BLA BLA BLA 
BLA BLA BLA BLA BLA BLA BLA BLA BLA BLA BLA BLA BLA BLA BLA BLA BLA BLA BLA BLA 
BLA BLA BLA BLA BLA BLA BLA BLA BLA BLA BLA BLA BLA BLA BLA BLA BLA BLA BLA BLA 
BLA BLA BLA BLA BLA BLA BLA BLA BLA BLA BLA BLA BLA BLA BLA BLA BLA BLA BLA BLA 
BLA BLA BLA BLA BLA BLA BLA BLA BLA BLA BLA BLA BLA BLA BLA BLA BLA BLA BLA BLA 
BLA BLA BLA BLA BLA BLA BLA BLA BLA BLA BLA BLA BLA BLA BLA BLA BLA BLA BLA BLA 
BLA BLA BLA BLA BLA BLA BLA BLA BLA BLA BLA BLA BLA BLA BLA BLA BLA BLA BLA BLA 
BLA BLA BLA BLA BLA BLA BLA BLA BLA BLA BLA BLA BLA BLA BLA BLA BLA BLA BLA BLA 
BLA BLA BLA BLA BLA BLA BLA BLA BLA BLA BLA BLA BLA BLA BLA BLA BLA BLA BLA BLA 
BLA BLA BLA BLA BLA BLA BLA BLA BLA BLA BLA BLA BLA BLA BLA BLA BLA BLA BLA BLA 
BLA BLA BLA BLA BLA BLA BLA BLA BLA BLA BLA BLA BLA BLA BLA BLA BLA BLA BLA BLA 
BLA BLA BLA BLA BLA BLA BLA BLA BLA BLA BLA BLA BLA BLA BLA BLA BLA BLA BLA BLA 
BLA BLA BLA BLA BLA BLA BLA BLA BLA BLA BLA BLA BLA BLA BLA BLA BLA BLA BLA BLA 
BLA BLA BLA BLA BLA BLA BLA BLA BLA BLA BLA BLA BLA BLA BLA BLA BLA BLA BLA BLA 
BLA BLA BLA BLA BLA BLA BLA BLA BLA BLA BLA BLA BLA BLA BLA BLA BLA BLA BLA BLA 
BLA BLA BLA BLA BLA BLA BLA BLA BLA BLA BLA BLA BLA BLA BLA BLA BLA BLA BLA BLA 
BLA BLA BLA BLA BLA BLA BLA BLA BLA BLA BLA BLA BLA BLA BLA BLA BLA BLA BLA BLA 
BLA BLA BLA BLA BLA BLA BLA BLA BLA BLA BLA BLA BLA BLA BLA BLA BLA BLA BLA BLA 
BLA BLA BLA BLA BLA BLA BLA BLA BLA BLA BLA BLA BLA BLA BLA BLA BLA BLA BLA BLA 
BLA BLA BLA BLA BLA BLA BLA BLA BLA BLA BLA BLA BLA BLA BLA BLA BLA BLA BLA BLA 
BLA BLA BLA BLA BLA BLA BLA BLA BLA BLA BLA BLA BLA BLA BLA BLA BLA BLA BLA BLA 
BLA BLA BLA BLA BLA BLA BLA BLA BLA BLA BLA BLA BLA BLA BLA BLA BLA BLA BLA BLA 
BLA BLA BLA BLA BLA BLA BLA BLA BLA BLA BLA BLA BLA BLA BLA BLA BLA BLA BLA BLA 
BLA BLA BLA BLA BLA BLA BLA BLA BLA BLA BLA BLA BLA BLA BLA BLA BLA BLA BLA BLA 
BLA BLA BLA BLA BLA BLA BLA BLA BLA BLA BLA BLA BLA BLA BLA BLA BLA BLA BLA BLA 
BLA BLA BLA BLA BLA BLA BLA BLA BLA BLA BLA BLA BLA BLA BLA BLA BLA BLA BLA BLA 
BLA BLA BLA BLA BLA BLA BLA BLA BLA BLA BLA BLA BLA BLA BLA BLA BLA BLA BLA BLA 
BLA BLA BLA BLA BLA BLA BLA BLA BLA BLA BLA BLA BLA BLA BLA BLA BLA BLA BLA BLA 
BLA BLA BLA BLA BLA BLA BLA BLA BLA BLA BLA BLA BLA BLA BLA BLA BLA BLA BLA BLA 
BLA BLA BLA BLA BLA BLA BLA BLA BLA BLA BLA BLA BLA BLA BLA BLA BLA BLA BLA BLA 
BLA BLA BLA BLA BLA BLA BLA BLA BLA BLA BLA BLA BLA BLA BLA BLA BLA BLA BLA BLA 
BLA BLA BLA BLA BLA BLA BLA BLA BLA BLA BLA BLA BLA BLA BLA BLA BLA BLA BLA BLA 
BLA BLA BLA BLA BLA BLA BLA BLA BLA BLA BLA BLA BLA BLA BLA BLA BLA BLA BLA BLA 
BLA BLA BLA BLA BLA BLA BLA BLA BLA BLA BLA BLA BLA BLA BLA BLA BLA BLA BLA BLA 
BLA BLA BLA BLA BLA BLA BLA BLA BLA BLA BLA BLA BLA BLA BLA BLA BLA BLA BLA BLA 
BLA BLA BLA BLA BLA BLA BLA BLA BLA BLA BLA BLA BLA BLA BLA BLA BLA BLA BLA BLA 
BLA BLA BLA BLA BLA BLA BLA BLA BLA BLA BLA BLA BLA BLA BLA BLA BLA BLA BLA BLA 
BLA BLA BLA BLA BLA BLA BLA BLA BLA BLA BLA BLA BLA BLA BLA BLA BLA BLA BLA BLA 
BLA BLA BLA BLA BLA BLA BLA BLA BLA BLA BLA BLA BLA BLA BLA BLA BLA BLA BLA BLA 
BLA BLA BLA BLA BLA BLA BLA BLA BLA BLA BLA BLA BLA BLA BLA BLA BLA BLA BLA BLA 
BLA BLA BLA BLA BLA BLA BLA BLA BLA BLA BLA BLA BLA BLA BLA BLA BLA BLA BLA BLA 
BLA BLA BLA BLA BLA BLA BLA BLA BLA BLA BLA BLA BLA BLA BLA BLA BLA BLA BLA BLA 
BLA BLA BLA BLA BLA BLA BLA BLA BLA BLA BLA BLA BLA BLA BLA BLA BLA BLA BLA BLA 
BLA BLA BLA BLA BLA BLA BLA BLA BLA BLA BLA BLA BLA BLA BLA BLA BLA BLA BLA BLA 
BLA BLA BLA BLA BLA BLA BLA BLA BLA BLA BLA BLA BLA BLA BLA BLA BLA BLA BLA BLA 
BLA BLA BLA BLA BLA BLA BLA BLA BLA BLA BLA BLA BLA BLA BLA BLA BLA BLA BLA BLA 
BLA BLA BLA BLA BLA BLA BLA BLA BLA BLA BLA BLA BLA BLA BLA BLA BLA BLA BLA BLA 
BLA BLA BLA BLA BLA BLA BLA BLA BLA BLA BLA BLA BLA BLA BLA BLA BLA BLA BLA BLA 
BLA BLA BLA BLA BLA BLA BLA BLA BLA BLA BLA BLA BLA BLA BLA BLA BLA BLA BLA BLA 
BLA BLA BLA BLA BLA BLA BLA BLA BLA BLA BLA BLA BLA BLA BLA BLA BLA BLA BLA BLA 
BLA BLA BLA BLA BLA BLA BLA BLA BLA BLA BLA BLA BLA BLA BLA BLA BLA BLA BLA BLA 
BLA BLA BLA BLA BLA BLA BLA BLA BLA BLA BLA BLA BLA BLA BLA BLA BLA BLA BLA BLA 
BLA BLA BLA BLA BLA BLA BLA BLA BLA BLA BLA BLA BLA BLA BLA BLA BLA BLA BLA BLA 
BLA BLA BLA BLA BLA BLA BLA BLA BLA BLA BLA BLA BLA BLA BLA BLA BLA BLA BLA BLA 
BLA BLA BLA BLA BLA BLA BLA BLA BLA BLA BLA BLA BLA BLA BLA BLA BLA BLA BLA BLA 
BLA BLA BLA BLA BLA BLA BLA BLA BLA BLA BLA BLA BLA BLA BLA BLA BLA BLA BLA BLA 
BLA BLA BLA BLA BLA BLA BLA BLA BLA BLA BLA BLA BLA BLA BLA BLA BLA BLA BLA BLA 
BLA BLA BLA BLA BLA BLA BLA BLA BLA BLA BLA BLA BLA BLA BLA BLA BLA BLA BLA BLA 
BLA BLA BLA BLA BLA BLA BLA BLA BLA BLA BLA BLA BLA BLA BLA BLA BLA BLA BLA BLA 
BLA BLA BLA BLA BLA BLA BLA BLA BLA BLA BLA BLA BLA BLA BLA BLA BLA BLA BLA BLA 
BLA BLA BLA BLA BLA BLA BLA BLA BLA BLA BLA BLA BLA BLA BLA BLA BLA BLA BLA BLA 
BLA BLA BLA BLA BLA BLA BLA BLA BLA BLA BLA BLA BLA BLA BLA BLA BLA BLA BLA BLA 
BLA BLA BLA BLA BLA BLA BLA BLA BLA BLA BLA BLA BLA BLA BLA BLA BLA BLA BLA BLA 
BLA BLA BLA BLA BLA BLA BLA BLA BLA BLA BLA BLA BLA BLA BLA BLA BLA BLA BLA BLA 
BLA BLA BLA BLA BLA BLA BLA BLA BLA BLA BLA BLA BLA BLA BLA BLA BLA BLA BLA BLA 
BLA BLA BLA BLA BLA BLA BLA BLA BLA BLA BLA BLA BLA BLA BLA BLA BLA BLA BLA BLA 
BLA BLA BLA BLA BLA BLA BLA BLA BLA BLA BLA BLA BLA BLA BLA BLA BLA BLA BLA BLA 
BLA BLA BLA BLA BLA BLA BLA BLA BLA BLA BLA BLA BLA BLA BLA BLA BLA BLA BLA BLA 
BLA BLA BLA BLA BLA BLA BLA BLA BLA BLA BLA BLA BLA BLA BLA BLA BLA BLA BLA BLA 
BLA BLA BLA BLA BLA BLA BLA BLA BLA BLA BLA BLA BLA BLA BLA BLA BLA BLA BLA BLA 
BLA BLA BLA BLA BLA BLA BLA BLA BLA BLA BLA BLA BLA BLA BLA BLA BLA BLA BLA BLA 
BLA BLA BLA BLA BLA BLA BLA BLA BLA BLA BLA BLA BLA BLA BLA BLA BLA BLA BLA BLA 
BLA BLA BLA BLA BLA BLA BLA BLA BLA BLA BLA BLA BLA BLA BLA BLA BLA BLA BLA BLA 
BLA BLA BLA BLA BLA BLA BLA BLA BLA BLA BLA BLA BLA BLA BLA BLA BLA BLA BLA BLA 
BLA BLA BLA BLA BLA BLA BLA BLA BLA BLA BLA BLA BLA BLA BLA BLA BLA BLA BLA BLA 
BLA BLA BLA BLA BLA BLA BLA BLA BLA BLA BLA BLA BLA BLA BLA BLA BLA BLA BLA BLA 
BLA BLA BLA BLA BLA BLA BLA BLA BLA BLA BLA BLA BLA BLA BLA BLA BLA BLA BLA BLA 
BLA BLA BLA BLA BLA BLA BLA BLA BLA BLA BLA BLA BLA BLA BLA BLA BLA BLA BLA BLA 
BLA BLA BLA BLA BLA BLA BLA BLA BLA BLA BLA BLA BLA BLA BLA BLA BLA BLA BLA BLA 
BLA BLA BLA BLA BLA BLA BLA BLA BLA BLA BLA BLA BLA BLA BLA BLA BLA BLA BLA BLA 
BLA BLA BLA BLA BLA BLA BLA BLA BLA BLA BLA BLA BLA BLA BLA BLA BLA BLA BLA BLA 
BLA BLA BLA BLA BLA BLA BLA BLA BLA BLA BLA BLA BLA BLA BLA BLA BLA BLA BLA BLA 
BLA BLA BLA BLA BLA BLA BLA BLA BLA BLA BLA BLA BLA BLA BLA BLA BLA BLA BLA BLA 
BLA BLA BLA BLA BLA BLA BLA BLA BLA BLA BLA BLA BLA BLA BLA BLA BLA BLA BLA BLA 
BLA BLA BLA BLA BLA BLA BLA BLA BLA BLA BLA BLA BLA BLA BLA BLA BLA BLA BLA BLA 
BLA BLA BLA BLA BLA BLA BLA BLA BLA BLA BLA BLA BLA BLA BLA BLA BLA BLA BLA BLA 
BLA BLA BLA BLA BLA BLA BLA BLA BLA BLA BLA BLA BLA BLA BLA BLA BLA BLA BLA BLA 
BLA BLA BLA BLA BLA BLA BLA BLA BLA BLA BLA BLA BLA BLA BLA BLA BLA BLA BLA BLA 
BLA BLA BLA BLA BLA BLA BLA BLA BLA BLA BLA BLA BLA BLA BLA BLA BLA BLA BLA BLA 
BLA BLA BLA BLA BLA BLA BLA BLA BLA BLA BLA BLA BLA BLA BLA BLA BLA BLA BLA BLA 
BLA BLA BLA BLA BLA BLA BLA BLA BLA BLA BLA BLA BLA BLA BLA BLA BLA BLA BLA BLA 
BLA BLA BLA BLA BLA BLA BLA BLA BLA BLA BLA BLA BLA BLA BLA BLA BLA BLA BLA BLA 
BLA BLA BLA BLA BLA BLA BLA BLA BLA BLA BLA BLA BLA BLA BLA BLA BLA BLA BLA BLA 
BLA BLA BLA BLA BLA BLA BLA BLA BLA BLA BLA BLA BLA BLA BLA BLA BLA BLA BLA BLA 
BLA BLA BLA BLA BLA BLA BLA BLA BLA BLA BLA BLA BLA BLA BLA BLA BLA BLA BLA BLA 
BLA BLA BLA BLA BLA BLA BLA BLA BLA BLA BLA BLA BLA BLA BLA BLA BLA BLA BLA BLA 
BLA BLA BLA BLA BLA BLA BLA BLA BLA BLA BLA BLA BLA BLA BLA BLA BLA BLA BLA BLA 
BLA BLA BLA BLA BLA BLA BLA BLA BLA BLA BLA BLA BLA BLA BLA BLA BLA BLA BLA BLA 
BLA BLA BLA BLA BLA BLA BLA BLA BLA BLA BLA BLA BLA BLA BLA BLA BLA BLA BLA BLA 
BLA BLA BLA BLA BLA BLA BLA BLA BLA BLA BLA BLA BLA BLA BLA BLA BLA BLA BLA BLA 
BLA BLA BLA BLA BLA BLA BLA BLA BLA BLA BLA BLA BLA BLA BLA BLA BLA BLA BLA BLA 
BLA BLA BLA BLA BLA BLA BLA BLA BLA BLA BLA BLA BLA BLA BLA BLA BLA BLA BLA BLA 
BLA BLA BLA BLA BLA BLA BLA BLA BLA BLA BLA BLA BLA BLA BLA BLA BLA BLA BLA BLA 
BLA BLA BLA BLA BLA BLA BLA BLA BLA BLA BLA BLA BLA BLA BLA BLA BLA BLA BLA BLA 
BLA BLA BLA BLA BLA BLA BLA BLA BLA BLA BLA BLA BLA BLA BLA BLA BLA BLA BLA BLA 
BLA BLA BLA BLA BLA BLA BLA BLA BLA BLA BLA BLA BLA BLA BLA BLA BLA BLA BLA BLA 
BLA BLA BLA BLA BLA BLA BLA BLA BLA BLA BLA BLA BLA BLA BLA BLA BLA BLA BLA BLA 
BLA BLA BLA BLA BLA BLA BLA BLA BLA BLA BLA BLA BLA BLA BLA BLA BLA BLA BLA BLA 
BLA BLA BLA BLA BLA BLA BLA BLA BLA BLA BLA BLA BLA BLA BLA BLA BLA BLA BLA BLA 
BLA BLA BLA BLA BLA BLA BLA BLA BLA BLA BLA BLA BLA BLA BLA BLA BLA BLA BLA BLA 
BLA BLA BLA BLA BLA BLA BLA BLA BLA BLA BLA BLA BLA BLA BLA BLA BLA BLA BLA BLA 
BLA BLA BLA BLA BLA BLA BLA BLA BLA BLA BLA BLA BLA BLA BLA BLA BLA BLA BLA BLA 
BLA BLA BLA BLA BLA BLA BLA BLA BLA BLA BLA BLA BLA BLA BLA BLA BLA BLA BLA BLA 
BLA BLA BLA BLA BLA BLA BLA BLA BLA BLA BLA BLA BLA BLA BLA BLA BLA BLA BLA BLA 
BLA BLA BLA BLA BLA BLA BLA BLA BLA BLA BLA BLA BLA BLA BLA BLA BLA BLA BLA BLA 
BLA BLA BLA BLA BLA BLA BLA BLA BLA BLA BLA BLA BLA BLA BLA BLA BLA BLA BLA BLA 
BLA BLA BLA BLA BLA BLA BLA BLA BLA BLA BLA BLA BLA BLA BLA BLA BLA BLA BLA BLA 
BLA BLA BLA BLA BLA BLA BLA BLA BLA BLA BLA BLA BLA BLA BLA BLA BLA BLA BLA BLA 
BLA BLA BLA BLA BLA BLA BLA BLA BLA BLA BLA BLA BLA BLA BLA BLA BLA BLA BLA BLA 
BLA BLA BLA BLA BLA BLA BLA BLA BLA BLA BLA BLA BLA BLA BLA BLA BLA BLA BLA BLA 
BLA BLA BLA BLA BLA BLA BLA BLA BLA BLA BLA BLA BLA BLA BLA BLA BLA BLA BLA BLA 
BLA BLA BLA BLA BLA BLA BLA BLA BLA BLA BLA BLA BLA BLA BLA BLA BLA BLA BLA BLA 
BLA BLA BLA BLA BLA BLA BLA BLA BLA BLA BLA BLA BLA BLA BLA BLA BLA BLA BLA BLA 
BLA BLA BLA BLA BLA BLA BLA BLA BLA BLA BLA BLA BLA BLA BLA BLA BLA BLA BLA BLA 
BLA BLA BLA BLA BLA BLA BLA BLA BLA BLA BLA BLA BLA BLA BLA BLA BLA BLA BLA BLA 
BLA BLA BLA BLA BLA BLA BLA BLA BLA BLA BLA BLA BLA BLA BLA BLA BLA BLA BLA BLA 
BLA BLA BLA BLA BLA BLA BLA BLA BLA BLA BLA BLA BLA BLA BLA BLA BLA BLA BLA BLA 
BLA BLA BLA BLA BLA BLA BLA BLA BLA BLA BLA BLA BLA BLA BLA BLA BLA BLA BLA BLA 
BLA BLA BLA BLA BLA BLA BLA BLA BLA BLA BLA BLA BLA BLA BLA BLA BLA BLA BLA BLA 
BLA BLA BLA BLA BLA BLA BLA BLA BLA BLA BLA BLA BLA BLA BLA BLA BLA BLA BLA BLA 
BLA BLA BLA BLA BLA BLA BLA BLA BLA BLA BLA BLA BLA BLA BLA BLA BLA BLA BLA BLA 
BLA BLA BLA BLA BLA BLA BLA BLA BLA BLA BLA BLA BLA BLA BLA BLA BLA BLA BLA BLA 
BLA BLA BLA BLA BLA BLA BLA BLA BLA BLA BLA BLA BLA BLA BLA BLA BLA BLA BLA BLA 
BLA BLA BLA BLA BLA BLA BLA BLA BLA BLA BLA BLA BLA BLA BLA BLA BLA BLA BLA BLA 
BLA BLA BLA BLA BLA BLA BLA BLA BLA BLA BLA BLA BLA BLA BLA BLA BLA BLA BLA BLA 
BLA BLA BLA BLA BLA BLA BLA BLA BLA BLA BLA BLA BLA BLA BLA BLA BLA BLA BLA BLA 
BLA BLA BLA BLA BLA BLA BLA BLA BLA BLA BLA BLA BLA BLA BLA BLA BLA BLA BLA BLA 
BLA BLA BLA BLA BLA BLA BLA BLA BLA BLA BLA BLA BLA BLA BLA BLA BLA BLA BLA BLA 
BLA BLA BLA BLA BLA BLA BLA BLA BLA BLA BLA BLA BLA BLA BLA BLA BLA BLA BLA BLA 
BLA BLA BLA BLA BLA BLA BLA BLA BLA BLA BLA BLA BLA BLA BLA BLA BLA BLA BLA BLA 
BLA BLA BLA BLA BLA BLA BLA BLA BLA BLA BLA BLA BLA BLA BLA BLA BLA BLA BLA BLA 
BLA BLA BLA BLA BLA BLA BLA BLA BLA BLA BLA BLA BLA BLA BLA BLA BLA BLA BLA BLA 
BLA BLA BLA BLA BLA BLA BLA BLA BLA BLA BLA BLA BLA BLA BLA BLA BLA BLA BLA BLA 
BLA BLA BLA BLA BLA BLA BLA BLA BLA BLA BLA BLA BLA BLA BLA BLA BLA BLA BLA BLA 
BLA BLA BLA BLA BLA BLA BLA BLA BLA BLA BLA BLA BLA BLA BLA BLA BLA BLA BLA BLA 
BLA BLA BLA BLA BLA BLA BLA BLA BLA BLA BLA BLA BLA BLA BLA BLA BLA BLA BLA BLA 
BLA BLA BLA BLA BLA BLA BLA BLA BLA BLA BLA BLA BLA BLA BLA BLA BLA BLA BLA BLA 
BLA BLA BLA BLA BLA BLA BLA BLA BLA BLA BLA BLA BLA BLA BLA BLA BLA BLA BLA BLA 
BLA BLA BLA BLA BLA BLA BLA BLA BLA BLA BLA BLA BLA BLA BLA BLA BLA BLA BLA BLA 
BLA BLA BLA BLA BLA BLA BLA BLA BLA BLA BLA BLA BLA BLA BLA BLA BLA BLA BLA BLA 
BLA BLA BLA BLA BLA BLA BLA BLA BLA BLA BLA BLA BLA BLA BLA BLA BLA BLA BLA BLA 
BLA BLA BLA BLA BLA BLA BLA BLA BLA BLA BLA BLA BLA BLA BLA BLA BLA BLA BLA BLA 
BLA BLA BLA BLA BLA BLA BLA BLA BLA BLA BLA BLA BLA BLA BLA BLA BLA BLA BLA BLA 
BLA BLA BLA BLA BLA BLA BLA BLA BLA BLA BLA BLA BLA BLA BLA BLA BLA BLA BLA BLA 
BLA BLA BLA BLA BLA BLA BLA BLA BLA BLA BLA BLA BLA BLA BLA BLA BLA BLA BLA BLA 
BLA BLA BLA BLA BLA BLA BLA BLA BLA BLA BLA BLA BLA BLA BLA BLA BLA BLA BLA BLA 
BLA BLA BLA BLA BLA BLA BLA BLA BLA BLA BLA BLA BLA BLA BLA BLA BLA BLA BLA BLA 
BLA BLA BLA BLA BLA BLA BLA BLA BLA BLA BLA BLA BLA BLA BLA BLA BLA BLA BLA BLA 
BLA BLA BLA BLA BLA BLA BLA BLA BLA BLA BLA BLA BLA BLA BLA BLA BLA BLA BLA BLA 
BLA BLA BLA BLA BLA BLA BLA BLA BLA BLA BLA BLA BLA BLA BLA BLA BLA BLA BLA BLA 
BLA BLA BLA BLA BLA BLA BLA BLA BLA BLA BLA BLA BLA BLA BLA BLA BLA BLA BLA BLA 
BLA BLA BLA BLA BLA BLA BLA BLA BLA BLA BLA BLA BLA BLA BLA BLA BLA BLA BLA BLA 
BLA BLA BLA BLA BLA BLA BLA BLA BLA BLA BLA BLA BLA BLA BLA BLA BLA BLA BLA BLA 
BLA BLA BLA BLA BLA BLA BLA BLA BLA BLA BLA BLA BLA BLA BLA BLA BLA BLA BLA BLA 
BLA BLA BLA BLA BLA BLA BLA BLA BLA BLA BLA BLA BLA BLA BLA BLA BLA BLA BLA BLA 
BLA BLA BLA BLA BLA BLA BLA BLA BLA BLA BLA BLA BLA BLA BLA BLA BLA BLA BLA BLA 
BLA BLA BLA BLA BLA BLA BLA BLA BLA BLA BLA BLA BLA BLA BLA BLA BLA BLA BLA BLA 
BLA BLA BLA BLA BLA BLA BLA BLA BLA BLA BLA BLA BLA BLA BLA BLA BLA BLA BLA BLA 
BLA BLA BLA BLA BLA BLA BLA BLA BLA BLA BLA BLA BLA BLA BLA BLA BLA BLA BLA BLA 
BLA BLA BLA BLA BLA BLA BLA BLA BLA BLA BLA BLA BLA BLA BLA BLA BLA BLA BLA BLA 
BLA BLA BLA BLA BLA BLA BLA BLA BLA BLA BLA BLA BLA BLA BLA BLA BLA BLA BLA BLA 
BLA BLA BLA BLA BLA BLA BLA BLA BLA BLA BLA BLA BLA BLA BLA BLA BLA BLA BLA BLA 
BLA BLA BLA BLA BLA BLA BLA BLA BLA BLA BLA BLA BLA BLA BLA BLA BLA BLA BLA BLA 
BLA BLA BLA BLA BLA BLA BLA BLA BLA BLA BLA BLA BLA BLA BLA BLA BLA BLA BLA BLA 
BLA BLA BLA BLA BLA BLA BLA BLA BLA BLA BLA BLA BLA BLA BLA BLA BLA BLA BLA BLA 
BLA BLA BLA BLA BLA BLA BLA BLA BLA BLA BLA BLA BLA BLA BLA BLA BLA BLA BLA BLA 
BLA BLA BLA BLA BLA BLA BLA BLA BLA BLA BLA BLA BLA BLA BLA BLA BLA BLA BLA BLA 
BLA BLA BLA BLA BLA BLA BLA BLA BLA BLA BLA BLA BLA BLA BLA BLA BLA BLA BLA BLA 
BLA BLA BLA BLA BLA BLA BLA BLA BLA BLA BLA BLA BLA BLA BLA BLA BLA BLA BLA BLA 
BLA BLA BLA BLA BLA BLA BLA BLA BLA BLA BLA BLA BLA BLA BLA BLA BLA BLA BLA BLA 
BLA BLA BLA BLA BLA BLA BLA BLA BLA BLA BLA BLA BLA BLA BLA BLA BLA BLA BLA BLA 
BLA BLA BLA BLA BLA BLA BLA BLA BLA BLA BLA BLA BLA BLA BLA BLA BLA BLA BLA BLA 
BLA BLA BLA BLA BLA BLA BLA BLA BLA BLA BLA BLA BLA BLA BLA BLA BLA BLA BLA BLA 
BLA BLA BLA BLA BLA BLA BLA BLA BLA BLA BLA BLA BLA BLA BLA BLA BLA BLA BLA BLA 
BLA BLA BLA BLA BLA BLA BLA BLA BLA BLA BLA BLA BLA BLA BLA BLA BLA BLA BLA BLA 
BLA BLA BLA BLA BLA BLA BLA BLA BLA BLA BLA BLA BLA BLA BLA BLA BLA BLA BLA BLA 
BLA BLA BLA BLA BLA BLA BLA BLA BLA BLA BLA BLA BLA BLA BLA BLA BLA BLA BLA BLA 
BLA BLA BLA BLA BLA BLA BLA BLA BLA BLA BLA BLA BLA BLA BLA BLA BLA BLA BLA BLA 
BLA BLA BLA BLA BLA BLA BLA BLA BLA BLA BLA BLA BLA BLA BLA BLA BLA BLA BLA BLA 
BLA BLA BLA BLA BLA BLA BLA BLA BLA BLA BLA BLA BLA BLA BLA BLA BLA BLA BLA BLA 
BLA BLA BLA BLA BLA BLA BLA BLA BLA BLA BLA BLA BLA BLA BLA BLA BLA BLA BLA BLA 
BLA BLA BLA BLA BLA BLA BLA BLA BLA BLA BLA BLA BLA BLA BLA BLA BLA BLA BLA BLA 
BLA BLA BLA BLA BLA BLA BLA BLA BLA BLA BLA BLA BLA BLA BLA BLA BLA BLA BLA BLA 
BLA BLA BLA BLA BLA BLA BLA BLA BLA BLA BLA BLA BLA BLA BLA BLA BLA BLA BLA BLA 
BLA BLA BLA BLA BLA BLA BLA BLA BLA BLA BLA BLA BLA BLA BLA BLA BLA BLA BLA BLA 
BLA BLA BLA BLA BLA BLA BLA BLA BLA BLA BLA BLA BLA BLA BLA BLA BLA BLA BLA BLA 
BLA BLA BLA BLA BLA BLA BLA BLA BLA BLA BLA BLA BLA BLA BLA BLA BLA BLA BLA BLA 
BLA BLA BLA BLA BLA BLA BLA BLA BLA BLA BLA BLA BLA BLA BLA BLA BLA BLA BLA BLA 
BLA BLA BLA BLA BLA BLA BLA BLA BLA BLA BLA BLA BLA BLA BLA BLA BLA BLA BLA BLA 
BLA BLA BLA BLA BLA BLA BLA BLA BLA BLA BLA BLA BLA BLA BLA BLA BLA BLA BLA BLA 
BLA BLA BLA BLA BLA BLA BLA BLA BLA BLA BLA BLA BLA BLA BLA BLA BLA BLA BLA BLA 
BLA BLA BLA BLA BLA BLA BLA BLA BLA BLA BLA BLA BLA BLA BLA BLA BLA BLA BLA BLA 
BLA BLA BLA BLA BLA BLA BLA BLA BLA BLA BLA BLA BLA BLA BLA BLA BLA BLA BLA BLA 
BLA BLA BLA BLA BLA BLA BLA BLA BLA BLA BLA BLA BLA BLA BLA BLA BLA BLA BLA BLA 
BLA BLA BLA BLA BLA BLA BLA BLA BLA BLA BLA BLA BLA BLA BLA BLA BLA BLA BLA BLA 
BLA BLA BLA BLA BLA BLA BLA BLA BLA BLA BLA BLA BLA BLA BLA BLA BLA BLA BLA BLA 
BLA BLA BLA BLA BLA BLA BLA BLA BLA BLA BLA BLA BLA BLA BLA BLA BLA BLA BLA BLA 
BLA BLA BLA BLA BLA BLA BLA BLA BLA BLA BLA BLA BLA BLA BLA BLA BLA BLA BLA BLA 
BLA BLA BLA BLA BLA BLA BLA BLA BLA BLA BLA BLA BLA BLA BLA BLA BLA BLA BLA BLA 
BLA BLA BLA BLA BLA BLA BLA BLA BLA BLA BLA BLA BLA BLA BLA BLA BLA BLA BLA BLA 
BLA BLA BLA BLA BLA BLA BLA BLA BLA BLA BLA BLA BLA BLA BLA BLA BLA BLA BLA BLA 
BLA BLA BLA BLA BLA BLA BLA BLA BLA BLA BLA BLA BLA BLA BLA BLA BLA BLA BLA BLA 
BLA BLA BLA BLA BLA BLA BLA BLA BLA BLA BLA BLA BLA BLA BLA BLA BLA BLA BLA BLA 
BLA BLA BLA BLA BLA BLA BLA BLA BLA BLA BLA BLA BLA BLA BLA BLA BLA BLA BLA BLA 
BLA BLA BLA BLA BLA BLA BLA BLA BLA BLA BLA BLA BLA BLA BLA BLA BLA BLA BLA BLA 
BLA BLA BLA BLA BLA BLA BLA BLA BLA BLA BLA BLA BLA BLA BLA BLA BLA BLA BLA BLA 
BLA BLA BLA BLA BLA BLA BLA BLA BLA BLA BLA BLA BLA BLA BLA BLA BLA BLA BLA BLA 
BLA BLA BLA BLA BLA BLA BLA BLA BLA BLA BLA BLA BLA BLA BLA BLA BLA BLA BLA BLA 
BLA BLA BLA BLA BLA BLA BLA BLA BLA BLA BLA BLA BLA BLA BLA BLA BLA BLA BLA BLA 
BLA BLA BLA BLA BLA BLA BLA BLA BLA BLA BLA BLA BLA BLA BLA BLA BLA BLA BLA BLA 
BLA BLA BLA BLA BLA BLA BLA BLA BLA BLA BLA BLA BLA BLA BLA BLA BLA BLA BLA BLA 
BLA BLA BLA BLA BLA BLA BLA BLA BLA BLA BLA BLA BLA BLA BLA BLA BLA BLA BLA BLA 
BLA BLA BLA BLA BLA BLA BLA BLA BLA BLA BLA BLA BLA BLA BLA BLA BLA BLA BLA BLA 
BLA BLA BLA BLA BLA BLA BLA BLA BLA BLA BLA BLA BLA BLA BLA BLA BLA BLA BLA BLA 
BLA BLA BLA BLA BLA BLA BLA BLA BLA BLA BLA BLA BLA BLA BLA BLA BLA BLA BLA BLA 
BLA BLA BLA BLA BLA BLA BLA BLA BLA BLA BLA BLA BLA BLA BLA BLA BLA BLA BLA BLA 
BLA BLA BLA BLA BLA BLA BLA BLA BLA BLA BLA BLA BLA BLA BLA BLA BLA BLA BLA BLA 
BLA BLA BLA BLA BLA BLA BLA BLA BLA BLA BLA BLA BLA BLA BLA BLA BLA BLA BLA BLA 
BLA BLA BLA BLA BLA BLA BLA BLA BLA BLA BLA BLA BLA BLA BLA BLA BLA BLA BLA BLA 
BLA BLA BLA BLA BLA BLA BLA BLA BLA BLA BLA BLA BLA BLA BLA BLA BLA BLA BLA BLA 
BLA BLA BLA BLA BLA BLA BLA BLA BLA BLA BLA BLA BLA BLA BLA BLA BLA BLA BLA BLA 
BLA BLA BLA BLA BLA BLA BLA BLA BLA BLA BLA BLA BLA BLA BLA BLA BLA BLA BLA BLA 
BLA BLA BLA BLA BLA BLA BLA BLA BLA BLA BLA BLA BLA BLA BLA BLA BLA BLA BLA BLA 
BLA BLA BLA BLA BLA BLA BLA BLA BLA BLA BLA BLA BLA BLA BLA BLA BLA BLA BLA BLA 
BLA BLA BLA BLA BLA BLA BLA BLA BLA BLA BLA BLA BLA BLA BLA BLA BLA BLA BLA BLA 
BLA BLA BLA BLA BLA BLA BLA BLA BLA BLA BLA BLA BLA BLA BLA BLA BLA BLA BLA BLA 
BLA BLA BLA BLA BLA BLA BLA BLA BLA BLA BLA BLA BLA BLA BLA BLA BLA BLA BLA BLA 
BLA BLA BLA BLA BLA BLA BLA BLA BLA BLA BLA BLA BLA BLA BLA BLA BLA BLA BLA BLA 
BLA BLA BLA BLA BLA BLA BLA BLA BLA BLA BLA BLA BLA BLA BLA BLA BLA BLA BLA BLA 
BLA BLA BLA BLA BLA BLA BLA BLA BLA BLA BLA BLA BLA BLA BLA BLA BLA BLA BLA BLA 
BLA BLA BLA BLA BLA BLA BLA BLA BLA BLA BLA BLA BLA BLA BLA BLA BLA BLA BLA BLA 
BLA BLA BLA BLA BLA BLA BLA BLA BLA BLA BLA BLA BLA BLA BLA BLA BLA BLA BLA BLA 
BLA BLA BLA BLA BLA BLA BLA BLA BLA BLA BLA BLA BLA BLA BLA BLA BLA BLA BLA BLA 
BLA BLA BLA BLA BLA BLA BLA BLA BLA BLA BLA BLA BLA BLA BLA BLA BLA BLA BLA BLA 
BLA BLA BLA BLA BLA BLA BLA BLA BLA BLA BLA BLA BLA BLA BLA BLA BLA BLA BLA BLA 
BLA BLA BLA BLA BLA BLA BLA BLA BLA BLA BLA BLA BLA BLA BLA BLA BLA BLA BLA BLA 
BLA BLA BLA BLA BLA BLA BLA BLA BLA BLA BLA BLA BLA BLA BLA BLA BLA BLA BLA BLA 
BLA BLA BLA BLA BLA BLA BLA BLA BLA BLA BLA BLA BLA BLA BLA BLA BLA BLA BLA BLA 
BLA BLA BLA BLA BLA BLA BLA BLA BLA BLA BLA BLA BLA BLA BLA BLA BLA BLA BLA BLA 
BLA BLA BLA BLA BLA BLA BLA BLA BLA BLA BLA BLA BLA BLA BLA BLA BLA BLA BLA BLA 
BLA BLA BLA BLA BLA BLA BLA BLA BLA BLA BLA BLA BLA BLA BLA BLA BLA BLA BLA BLA 
BLA BLA BLA BLA BLA BLA BLA BLA BLA BLA BLA BLA BLA BLA BLA BLA BLA BLA BLA BLA 
BLA BLA BLA BLA BLA BLA BLA BLA BLA BLA BLA BLA BLA BLA BLA BLA BLA BLA BLA BLA 
BLA BLA BLA BLA BLA BLA BLA BLA BLA BLA BLA BLA BLA BLA BLA BLA BLA BLA BLA BLA 
BLA BLA BLA BLA BLA BLA BLA BLA BLA BLA BLA BLA BLA BLA BLA BLA BLA BLA BLA BLA 
BLA BLA BLA BLA BLA BLA BLA BLA BLA BLA BLA BLA BLA BLA BLA BLA BLA BLA BLA BLA 
BLA BLA BLA BLA BLA BLA BLA BLA BLA BLA BLA BLA BLA BLA BLA BLA BLA BLA BLA BLA 
BLA BLA BLA BLA BLA BLA BLA BLA BLA BLA BLA BLA BLA BLA BLA BLA BLA BLA BLA BLA 
BLA BLA BLA BLA BLA BLA BLA BLA BLA BLA BLA BLA BLA BLA BLA BLA BLA BLA BLA BLA 
BLA BLA BLA BLA BLA BLA BLA BLA BLA BLA BLA BLA BLA BLA BLA BLA BLA BLA BLA BLA 
BLA BLA BLA BLA BLA BLA BLA BLA BLA BLA BLA BLA BLA BLA BLA BLA BLA BLA BLA BLA 
BLA BLA BLA BLA BLA BLA BLA BLA BLA BLA BLA BLA BLA BLA BLA BLA BLA BLA BLA BLA 
BLA BLA BLA BLA BLA BLA BLA BLA BLA BLA BLA BLA BLA BLA BLA BLA BLA BLA BLA BLA 
BLA BLA BLA BLA BLA BLA BLA BLA BLA BLA BLA BLA BLA BLA BLA BLA BLA BLA BLA BLA 
BLA BLA BLA BLA BLA BLA BLA BLA BLA BLA BLA BLA BLA BLA BLA BLA BLA BLA BLA BLA 
BLA BLA BLA BLA BLA BLA BLA BLA BLA BLA BLA BLA BLA BLA BLA BLA BLA BLA BLA BLA 
BLA BLA BLA BLA BLA BLA BLA BLA BLA BLA BLA BLA BLA BLA BLA BLA BLA BLA BLA BLA 
BLA BLA BLA BLA BLA BLA BLA BLA BLA BLA BLA BLA BLA BLA BLA BLA BLA BLA BLA BLA 
BLA BLA BLA BLA BLA BLA BLA BLA BLA BLA BLA BLA BLA BLA BLA BLA BLA BLA BLA BLA 
BLA BLA BLA BLA BLA BLA BLA BLA BLA BLA BLA BLA BLA BLA BLA BLA BLA BLA BLA BLA 
BLA BLA BLA BLA BLA BLA BLA BLA BLA BLA BLA BLA BLA BLA BLA BLA BLA BLA BLA BLA 
BLA BLA BLA BLA BLA BLA BLA BLA BLA BLA BLA BLA BLA BLA BLA BLA BLA BLA BLA BLA 
BLA BLA BLA BLA BLA BLA BLA BLA BLA BLA BLA BLA BLA BLA BLA BLA BLA BLA BLA BLA 
BLA BLA BLA BLA BLA BLA BLA BLA BLA BLA BLA BLA BLA BLA BLA BLA BLA BLA BLA BLA 
BLA BLA BLA BLA BLA BLA BLA BLA BLA BLA BLA BLA BLA BLA BLA BLA BLA BLA BLA BLA 
BLA BLA BLA BLA BLA BLA BLA BLA BLA BLA BLA BLA BLA BLA BLA BLA BLA BLA BLA BLA 
BLA BLA BLA BLA BLA BLA BLA BLA BLA BLA BLA BLA BLA BLA BLA BLA BLA BLA BLA BLA 
BLA BLA BLA BLA BLA BLA BLA BLA BLA BLA BLA BLA BLA BLA BLA BLA BLA BLA BLA BLA 
BLA BLA BLA BLA BLA BLA BLA BLA BLA BLA BLA BLA BLA BLA BLA BLA BLA BLA BLA BLA 
BLA BLA BLA BLA BLA BLA BLA BLA BLA BLA BLA BLA BLA BLA BLA BLA BLA BLA BLA BLA 
BLA BLA BLA BLA BLA BLA BLA BLA BLA BLA BLA BLA BLA BLA BLA BLA BLA BLA BLA BLA 
BLA BLA BLA BLA BLA BLA BLA BLA BLA BLA BLA BLA BLA BLA BLA BLA BLA BLA BLA BLA 
BLA BLA BLA BLA BLA BLA BLA BLA BLA BLA BLA BLA BLA BLA BLA BLA BLA BLA BLA BLA 
BLA BLA BLA BLA BLA BLA BLA BLA BLA BLA BLA BLA BLA BLA BLA BLA BLA BLA BLA BLA 
BLA BLA BLA BLA BLA BLA BLA BLA BLA BLA BLA BLA BLA BLA BLA BLA BLA BLA BLA BLA 
BLA BLA BLA BLA BLA BLA BLA BLA BLA BLA BLA BLA BLA BLA BLA BLA BLA BLA BLA BLA 
BLA BLA BLA BLA BLA BLA BLA BLA BLA BLA BLA BLA BLA BLA BLA BLA BLA BLA BLA BLA 
BLA BLA BLA BLA BLA BLA BLA BLA BLA BLA BLA BLA BLA BLA BLA BLA BLA BLA BLA BLA 
BLA BLA BLA BLA BLA BLA BLA BLA BLA BLA BLA BLA BLA BLA BLA BLA BLA BLA BLA BLA 
BLA BLA BLA BLA BLA BLA BLA BLA BLA BLA BLA BLA BLA BLA BLA BLA BLA BLA BLA BLA 
BLA BLA BLA BLA BLA BLA BLA BLA BLA BLA BLA BLA BLA BLA BLA BLA BLA BLA BLA BLA 
BLA BLA BLA BLA BLA BLA BLA BLA BLA BLA BLA BLA BLA BLA BLA BLA BLA BLA BLA BLA 
BLA BLA BLA BLA BLA BLA BLA BLA BLA BLA BLA BLA BLA BLA BLA BLA BLA BLA BLA BLA 
BLA BLA BLA BLA BLA BLA BLA BLA BLA BLA BLA BLA BLA BLA BLA BLA BLA BLA BLA BLA 
BLA BLA BLA BLA BLA BLA BLA BLA BLA BLA BLA BLA BLA BLA BLA BLA BLA BLA BLA BLA 
BLA BLA BLA BLA BLA BLA BLA BLA BLA BLA BLA BLA BLA BLA BLA BLA BLA BLA BLA BLA 
BLA BLA BLA BLA BLA BLA BLA BLA BLA BLA BLA BLA BLA BLA BLA BLA BLA BLA BLA BLA 
BLA BLA BLA BLA BLA BLA BLA BLA BLA BLA BLA BLA BLA BLA BLA BLA BLA BLA BLA BLA 
BLA BLA BLA BLA BLA BLA BLA BLA BLA BLA BLA BLA BLA BLA BLA BLA BLA BLA BLA BLA 
BLA BLA BLA BLA BLA BLA BLA BLA BLA BLA BLA BLA BLA BLA BLA BLA BLA BLA BLA BLA 
BLA BLA BLA BLA BLA BLA BLA BLA BLA BLA BLA BLA BLA BLA BLA BLA BLA BLA BLA BLA 
BLA BLA BLA BLA BLA BLA BLA BLA BLA BLA BLA BLA BLA BLA BLA BLA BLA BLA BLA BLA 
BLA BLA BLA BLA BLA BLA BLA BLA BLA BLA BLA BLA BLA BLA BLA BLA BLA BLA BLA BLA 
BLA BLA BLA BLA BLA BLA BLA BLA BLA BLA BLA BLA BLA BLA BLA BLA BLA BLA BLA BLA 
BLA BLA BLA BLA BLA BLA BLA BLA BLA BLA BLA BLA BLA BLA BLA BLA BLA BLA BLA BLA 
BLA BLA BLA BLA BLA BLA BLA BLA BLA BLA BLA BLA BLA BLA BLA BLA BLA BLA BLA BLA 
BLA BLA BLA BLA BLA BLA BLA BLA BLA BLA BLA BLA BLA BLA BLA BLA BLA BLA BLA BLA 
BLA BLA BLA BLA BLA BLA BLA BLA BLA BLA BLA BLA BLA BLA BLA BLA BLA BLA BLA BLA 
BLA BLA BLA BLA BLA BLA BLA BLA BLA BLA BLA BLA BLA BLA BLA BLA BLA BLA BLA BLA 
BLA BLA BLA BLA BLA BLA BLA BLA BLA BLA BLA BLA BLA BLA BLA BLA BLA BLA BLA BLA 
BLA BLA BLA BLA BLA BLA BLA BLA BLA BLA BLA BLA BLA BLA BLA BLA BLA BLA BLA BLA 
BLA BLA BLA BLA BLA BLA BLA BLA BLA BLA BLA BLA BLA BLA BLA BLA BLA BLA BLA BLA 
BLA BLA BLA BLA BLA BLA BLA BLA BLA BLA BLA BLA BLA BLA BLA BLA BLA BLA BLA BLA 
BLA BLA BLA BLA BLA BLA BLA BLA BLA BLA BLA BLA BLA BLA BLA BLA BLA BLA BLA BLA 
BLA BLA BLA BLA BLA BLA BLA BLA BLA BLA BLA BLA BLA BLA BLA BLA BLA BLA BLA BLA 
BLA BLA BLA BLA BLA BLA BLA BLA BLA BLA BLA BLA BLA BLA BLA BLA BLA BLA BLA BLA 
BLA BLA BLA BLA BLA BLA BLA BLA BLA BLA BLA BLA BLA BLA BLA BLA BLA BLA BLA BLA 
BLA BLA BLA BLA BLA BLA BLA BLA BLA BLA BLA BLA BLA BLA BLA BLA BLA BLA BLA BLA 
BLA BLA BLA BLA BLA BLA BLA BLA BLA BLA BLA BLA BLA BLA BLA BLA BLA BLA BLA BLA 
BLA BLA BLA BLA BLA BLA BLA BLA BLA BLA BLA BLA BLA BLA BLA BLA BLA BLA BLA BLA 
BLA BLA BLA BLA BLA BLA BLA BLA BLA BLA BLA BLA BLA BLA BLA BLA BLA BLA BLA BLA 
BLA BLA BLA BLA BLA BLA BLA BLA BLA BLA BLA BLA BLA BLA BLA BLA BLA BLA BLA BLA 
BLA BLA BLA BLA BLA BLA BLA BLA BLA BLA BLA BLA BLA BLA BLA BLA BLA BLA BLA BLA 
BLA BLA BLA BLA BLA BLA BLA BLA BLA BLA BLA BLA BLA BLA BLA BLA BLA BLA BLA BLA 
BLA BLA BLA BLA BLA BLA BLA BLA BLA BLA BLA BLA BLA BLA BLA BLA BLA BLA BLA BLA 
BLA BLA BLA BLA BLA BLA BLA BLA BLA BLA BLA BLA BLA BLA BLA BLA BLA BLA BLA BLA 
BLA BLA BLA BLA BLA BLA BLA BLA BLA BLA BLA BLA BLA BLA BLA BLA BLA BLA BLA BLA 
BLA BLA BLA BLA BLA BLA BLA BLA BLA BLA BLA BLA BLA BLA BLA BLA BLA BLA BLA BLA 
BLA BLA BLA BLA BLA BLA BLA BLA BLA BLA BLA BLA BLA BLA BLA BLA BLA BLA BLA BLA 
BLA BLA BLA BLA BLA BLA BLA BLA BLA BLA BLA BLA BLA BLA BLA BLA BLA BLA BLA BLA 
BLA BLA BLA BLA BLA BLA BLA BLA BLA BLA BLA BLA BLA BLA BLA BLA BLA BLA BLA BLA 
BLA BLA BLA BLA BLA BLA BLA BLA BLA BLA BLA BLA BLA BLA BLA BLA BLA BLA BLA BLA 
BLA BLA BLA BLA BLA BLA BLA BLA BLA BLA BLA BLA BLA BLA BLA BLA BLA BLA BLA BLA 
BLA BLA BLA BLA BLA BLA BLA BLA BLA BLA BLA BLA BLA BLA BLA BLA BLA BLA BLA BLA 
BLA BLA BLA BLA BLA BLA BLA BLA BLA BLA BLA BLA BLA BLA BLA BLA BLA BLA BLA BLA 
BLA BLA BLA BLA BLA BLA BLA BLA BLA BLA BLA BLA BLA BLA BLA BLA BLA BLA BLA BLA 
BLA BLA BLA BLA BLA BLA BLA BLA BLA BLA BLA BLA BLA BLA BLA BLA BLA BLA BLA BLA 
BLA BLA BLA BLA BLA BLA BLA BLA BLA BLA BLA BLA BLA BLA BLA BLA BLA BLA BLA BLA 
BLA BLA BLA BLA BLA BLA BLA BLA BLA BLA BLA BLA BLA BLA BLA BLA BLA BLA BLA BLA 
BLA BLA BLA BLA BLA BLA BLA BLA BLA BLA BLA BLA BLA BLA BLA BLA BLA BLA BLA BLA 
BLA BLA BLA BLA BLA BLA BLA BLA BLA BLA BLA BLA BLA BLA BLA BLA BLA BLA BLA BLA 
BLA BLA BLA BLA BLA BLA BLA BLA BLA BLA BLA BLA BLA BLA BLA BLA BLA BLA BLA BLA 
BLA BLA BLA BLA BLA BLA BLA BLA BLA BLA BLA BLA BLA BLA BLA BLA BLA BLA BLA BLA 
BLA BLA BLA BLA BLA BLA BLA BLA BLA BLA BLA BLA BLA BLA BLA BLA BLA BLA BLA BLA 
BLA BLA BLA BLA BLA BLA BLA BLA BLA BLA BLA BLA BLA BLA BLA BLA BLA BLA BLA BLA 
BLA BLA BLA BLA BLA BLA BLA BLA BLA BLA BLA BLA BLA BLA BLA BLA BLA BLA BLA BLA 
BLA BLA BLA BLA BLA BLA BLA BLA BLA BLA BLA BLA BLA BLA BLA BLA BLA BLA BLA BLA 
BLA BLA BLA BLA BLA BLA BLA BLA BLA BLA BLA BLA BLA BLA BLA BLA BLA BLA BLA BLA 
BLA BLA BLA BLA BLA BLA BLA BLA BLA BLA BLA BLA BLA BLA BLA BLA BLA BLA BLA BLA 
BLA BLA BLA BLA BLA BLA BLA BLA BLA BLA BLA BLA BLA BLA BLA BLA BLA BLA BLA BLA 
BLA BLA BLA BLA BLA BLA BLA BLA BLA BLA BLA BLA BLA BLA BLA BLA BLA BLA BLA BLA 
BLA BLA BLA BLA BLA BLA BLA BLA BLA BLA BLA BLA BLA BLA BLA BLA BLA BLA BLA BLA 
BLA BLA BLA BLA BLA BLA BLA BLA BLA BLA BLA BLA BLA BLA BLA BLA BLA BLA BLA BLA 
BLA BLA BLA BLA BLA BLA BLA BLA BLA BLA BLA BLA BLA BLA BLA BLA BLA BLA BLA BLA 
BLA BLA BLA BLA BLA BLA BLA BLA BLA BLA BLA BLA BLA BLA BLA BLA BLA BLA BLA BLA 
BLA BLA BLA BLA BLA BLA BLA BLA BLA BLA BLA BLA BLA BLA BLA BLA BLA BLA BLA BLA 
BLA BLA BLA BLA BLA BLA BLA BLA BLA BLA BLA BLA BLA BLA BLA BLA BLA BLA BLA BLA 
BLA BLA BLA BLA BLA BLA BLA BLA BLA BLA BLA BLA BLA BLA BLA BLA BLA BLA BLA BLA 
BLA BLA BLA BLA BLA BLA BLA BLA BLA BLA BLA BLA BLA BLA BLA BLA BLA BLA BLA BLA 
BLA BLA BLA BLA BLA BLA BLA BLA BLA BLA BLA BLA BLA BLA BLA BLA BLA BLA BLA BLA 
BLA BLA BLA BLA BLA BLA BLA BLA BLA BLA BLA BLA BLA BLA BLA BLA BLA BLA BLA BLA 
BLA BLA BLA BLA BLA BLA BLA BLA BLA BLA BLA BLA BLA BLA BLA BLA BLA BLA BLA BLA 
BLA BLA BLA BLA BLA BLA BLA BLA BLA BLA BLA BLA BLA BLA BLA BLA BLA BLA BLA BLA 
BLA BLA BLA BLA BLA BLA BLA BLA BLA BLA BLA BLA BLA BLA BLA BLA BLA BLA BLA BLA 
BLA BLA BLA BLA BLA BLA BLA BLA BLA BLA BLA BLA BLA BLA BLA BLA BLA BLA BLA BLA 
BLA BLA BLA BLA BLA BLA BLA BLA BLA BLA BLA BLA BLA BLA BLA BLA BLA BLA BLA BLA 
BLA BLA BLA BLA BLA BLA BLA BLA BLA BLA BLA BLA BLA BLA BLA BLA BLA BLA BLA BLA 
BLA BLA BLA BLA BLA BLA BLA BLA BLA BLA BLA BLA BLA BLA BLA BLA BLA BLA BLA BLA 
BLA BLA BLA BLA BLA BLA BLA BLA BLA BLA BLA BLA BLA BLA BLA BLA BLA BLA BLA BLA 
BLA BLA BLA BLA BLA BLA BLA BLA BLA BLA BLA BLA BLA BLA BLA BLA BLA BLA BLA BLA 
BLA BLA BLA BLA BLA BLA BLA BLA BLA BLA BLA BLA BLA BLA BLA BLA BLA BLA BLA BLA 
BLA BLA BLA BLA BLA BLA BLA BLA BLA BLA BLA BLA BLA BLA BLA BLA BLA BLA BLA BLA 
BLA BLA BLA BLA BLA BLA BLA BLA BLA BLA BLA BLA BLA BLA BLA BLA BLA BLA BLA BLA 
BLA BLA BLA BLA BLA BLA BLA BLA BLA BLA BLA BLA BLA BLA BLA BLA BLA BLA BLA BLA 
BLA BLA BLA BLA BLA BLA BLA BLA BLA BLA BLA BLA BLA BLA BLA BLA BLA BLA BLA BLA 
BLA BLA BLA BLA BLA BLA BLA BLA BLA BLA BLA BLA BLA BLA BLA BLA BLA BLA BLA BLA 
BLA BLA BLA BLA BLA BLA BLA BLA BLA BLA BLA BLA BLA BLA BLA BLA BLA BLA BLA BLA 
BLA BLA BLA BLA BLA BLA BLA BLA BLA BLA BLA BLA BLA BLA BLA BLA BLA BLA BLA BLA 
BLA BLA BLA BLA BLA BLA BLA BLA BLA BLA BLA BLA BLA BLA BLA BLA BLA BLA BLA BLA 
BLA BLA BLA BLA BLA BLA BLA BLA BLA BLA BLA BLA BLA BLA BLA BLA BLA BLA BLA BLA 
BLA BLA BLA BLA BLA BLA BLA BLA BLA BLA BLA BLA BLA BLA BLA BLA BLA BLA BLA BLA 
BLA BLA BLA BLA BLA BLA BLA BLA BLA BLA BLA BLA BLA BLA BLA BLA BLA BLA BLA BLA 
BLA BLA BLA BLA BLA BLA BLA BLA BLA BLA BLA BLA BLA BLA BLA BLA BLA BLA BLA BLA 
BLA BLA BLA BLA BLA BLA BLA BLA BLA BLA BLA BLA BLA BLA BLA BLA BLA BLA BLA BLA 
BLA BLA BLA BLA BLA BLA BLA BLA BLA BLA BLA BLA BLA BLA BLA BLA BLA BLA BLA BLA 
BLA BLA BLA BLA BLA BLA BLA BLA BLA BLA BLA BLA BLA BLA BLA BLA BLA BLA BLA BLA 
BLA BLA BLA BLA BLA BLA BLA BLA BLA BLA BLA BLA BLA BLA BLA BLA BLA BLA BLA BLA 
BLA BLA BLA BLA BLA BLA BLA BLA BLA BLA BLA BLA BLA BLA BLA BLA BLA BLA BLA BLA 
BLA BLA BLA BLA BLA BLA BLA BLA BLA BLA BLA BLA BLA BLA BLA BLA BLA BLA BLA BLA 
BLA BLA BLA BLA BLA BLA BLA BLA BLA BLA BLA BLA BLA BLA BLA BLA BLA BLA BLA BLA 
BLA BLA BLA BLA BLA BLA BLA BLA BLA BLA BLA BLA BLA BLA BLA BLA BLA BLA BLA BLA 
BLA BLA BLA BLA BLA BLA BLA BLA BLA BLA BLA BLA BLA BLA BLA BLA BLA BLA BLA BLA 
BLA BLA BLA BLA BLA BLA BLA BLA BLA BLA BLA BLA BLA BLA BLA BLA BLA BLA BLA BLA 
BLA BLA BLA BLA BLA BLA BLA BLA BLA BLA BLA BLA BLA BLA BLA BLA BLA BLA BLA BLA 
BLA BLA BLA BLA BLA BLA BLA BLA BLA BLA BLA BLA BLA BLA BLA BLA BLA BLA BLA BLA 
BLA BLA BLA BLA BLA BLA BLA BLA BLA BLA BLA BLA BLA BLA BLA BLA BLA BLA BLA BLA 
BLA BLA BLA BLA BLA BLA BLA BLA BLA BLA BLA BLA BLA BLA BLA BLA BLA BLA BLA BLA 
BLA BLA BLA BLA BLA BLA BLA BLA BLA BLA BLA BLA BLA BLA BLA BLA BLA BLA BLA BLA 
BLA BLA BLA BLA BLA BLA BLA BLA BLA BLA BLA BLA BLA BLA BLA BLA BLA BLA BLA BLA 
BLA BLA BLA BLA BLA BLA BLA BLA BLA BLA BLA BLA BLA BLA BLA BLA BLA BLA BLA BLA 
BLA BLA BLA BLA BLA BLA BLA BLA BLA BLA BLA BLA BLA BLA BLA BLA BLA BLA BLA BLA 
BLA BLA BLA BLA BLA BLA BLA BLA BLA BLA BLA BLA BLA BLA BLA BLA BLA BLA BLA BLA 
BLA BLA BLA BLA BLA BLA BLA BLA BLA BLA BLA BLA BLA BLA BLA BLA BLA BLA BLA BLA 
BLA BLA BLA BLA BLA BLA BLA BLA BLA BLA BLA BLA BLA BLA BLA BLA BLA BLA BLA BLA 
BLA BLA BLA BLA BLA BLA BLA BLA BLA BLA BLA BLA BLA BLA BLA BLA BLA BLA BLA BLA 
BLA BLA BLA BLA BLA BLA BLA BLA BLA BLA BLA BLA BLA BLA BLA BLA BLA BLA BLA BLA 
BLA BLA BLA BLA BLA BLA BLA BLA BLA BLA BLA BLA BLA BLA BLA BLA BLA BLA BLA BLA 
BLA BLA BLA BLA BLA BLA BLA BLA BLA BLA BLA BLA BLA BLA BLA BLA BLA BLA BLA BLA 
BLA BLA BLA BLA BLA BLA BLA BLA BLA BLA BLA BLA BLA BLA BLA BLA BLA BLA BLA BLA 
BLA BLA BLA BLA BLA BLA BLA BLA BLA BLA BLA BLA BLA BLA BLA BLA BLA BLA BLA BLA 
BLA BLA BLA BLA BLA BLA BLA BLA BLA BLA BLA BLA BLA BLA BLA BLA BLA BLA BLA BLA 
BLA BLA BLA BLA BLA BLA BLA BLA BLA BLA BLA BLA BLA BLA BLA BLA BLA BLA BLA BLA 
BLA BLA BLA BLA BLA BLA BLA BLA BLA BLA BLA BLA BLA BLA BLA BLA BLA BLA BLA BLA 
BLA BLA BLA BLA BLA BLA BLA BLA BLA BLA BLA BLA BLA BLA BLA BLA BLA BLA BLA BLA 
BLA BLA BLA BLA BLA BLA BLA BLA BLA BLA BLA BLA BLA BLA BLA BLA BLA BLA BLA BLA 
BLA BLA BLA BLA BLA BLA BLA BLA BLA BLA BLA BLA BLA BLA BLA BLA BLA BLA BLA BLA 
BLA BLA BLA BLA BLA BLA BLA BLA BLA BLA BLA BLA BLA BLA BLA BLA BLA BLA BLA BLA 
BLA BLA BLA BLA BLA BLA BLA BLA BLA BLA BLA BLA BLA BLA BLA BLA BLA BLA BLA BLA 
BLA BLA BLA BLA BLA BLA BLA BLA BLA BLA BLA BLA BLA BLA BLA BLA BLA BLA BLA BLA 
BLA BLA BLA BLA BLA BLA BLA BLA BLA BLA BLA BLA BLA BLA BLA BLA BLA BLA BLA BLA 
BLA BLA BLA BLA BLA BLA BLA BLA BLA BLA BLA BLA BLA BLA BLA BLA BLA BLA BLA BLA 
BLA BLA BLA BLA BLA BLA BLA BLA BLA BLA BLA BLA BLA BLA BLA BLA BLA BLA BLA BLA 
BLA BLA BLA BLA BLA BLA BLA BLA BLA BLA BLA BLA BLA BLA BLA BLA BLA BLA BLA BLA 
BLA BLA BLA BLA BLA BLA BLA BLA BLA BLA BLA BLA BLA BLA BLA BLA BLA BLA BLA BLA 
BLA BLA BLA BLA BLA BLA BLA BLA BLA BLA BLA BLA BLA BLA BLA BLA BLA BLA BLA BLA 
BLA BLA BLA BLA BLA BLA BLA BLA BLA BLA BLA BLA BLA BLA BLA BLA BLA BLA BLA BLA 
BLA BLA BLA BLA BLA BLA BLA BLA BLA BLA BLA BLA BLA BLA BLA BLA BLA BLA BLA BLA 
BLA BLA BLA BLA BLA BLA BLA BLA BLA BLA BLA BLA BLA BLA BLA BLA BLA BLA BLA BLA 
BLA BLA BLA BLA BLA BLA BLA BLA BLA BLA BLA BLA BLA BLA BLA BLA BLA BLA BLA BLA 
BLA BLA BLA BLA BLA BLA BLA BLA BLA BLA BLA BLA BLA BLA BLA BLA BLA BLA BLA BLA 
BLA BLA BLA BLA BLA BLA BLA BLA BLA BLA BLA BLA BLA BLA BLA BLA BLA BLA BLA BLA 
BLA BLA BLA BLA BLA BLA BLA BLA BLA BLA BLA BLA BLA BLA BLA BLA BLA BLA BLA BLA 
BLA BLA BLA BLA BLA BLA BLA BLA BLA BLA BLA BLA BLA BLA BLA BLA BLA BLA BLA BLA 
BLA BLA BLA BLA BLA BLA BLA BLA BLA BLA BLA BLA BLA BLA BLA BLA BLA BLA BLA BLA 
BLA BLA BLA BLA BLA BLA BLA BLA BLA BLA BLA BLA BLA BLA BLA BLA BLA BLA BLA BLA 
BLA BLA BLA BLA BLA BLA BLA BLA BLA BLA BLA BLA BLA BLA BLA BLA BLA BLA BLA BLA 
BLA BLA BLA BLA BLA BLA BLA BLA BLA BLA BLA BLA BLA BLA BLA BLA BLA BLA BLA BLA 
BLA BLA BLA BLA BLA BLA BLA BLA BLA BLA BLA BLA BLA BLA BLA BLA BLA BLA BLA BLA 
BLA BLA BLA BLA BLA BLA BLA BLA BLA BLA BLA BLA BLA BLA BLA BLA BLA BLA BLA BLA 
BLA BLA BLA BLA BLA BLA BLA BLA BLA BLA BLA BLA BLA BLA BLA BLA BLA BLA BLA BLA 
BLA BLA BLA BLA BLA BLA BLA BLA BLA BLA BLA BLA BLA BLA BLA BLA BLA BLA BLA BLA 
BLA BLA BLA BLA BLA BLA BLA BLA BLA BLA BLA BLA BLA BLA BLA BLA BLA BLA BLA BLA 
BLA BLA BLA BLA BLA BLA BLA BLA BLA BLA BLA BLA BLA BLA BLA BLA BLA BLA BLA BLA 
BLA BLA BLA BLA BLA BLA BLA BLA BLA BLA BLA BLA BLA BLA BLA BLA BLA BLA BLA BLA 
BLA BLA BLA BLA BLA BLA BLA BLA BLA BLA BLA BLA BLA BLA BLA BLA BLA BLA BLA BLA 
BLA BLA BLA BLA BLA BLA BLA BLA BLA BLA BLA BLA BLA BLA BLA BLA BLA BLA BLA BLA 
BLA BLA BLA BLA BLA BLA BLA BLA BLA BLA BLA BLA BLA BLA BLA BLA BLA BLA BLA BLA 
BLA BLA BLA BLA BLA BLA BLA BLA BLA BLA BLA BLA BLA BLA BLA BLA BLA BLA BLA BLA 
BLA BLA BLA BLA BLA BLA BLA BLA BLA BLA BLA BLA BLA BLA BLA BLA BLA BLA BLA BLA 
BLA BLA BLA BLA BLA BLA BLA BLA BLA BLA BLA BLA BLA BLA BLA BLA BLA BLA BLA BLA 
BLA BLA BLA BLA BLA BLA BLA BLA BLA BLA BLA BLA BLA BLA BLA BLA BLA BLA BLA BLA 
BLA BLA BLA BLA BLA BLA BLA BLA BLA BLA BLA BLA BLA BLA BLA BLA BLA BLA BLA BLA 
BLA BLA BLA BLA BLA BLA BLA BLA BLA BLA BLA BLA BLA BLA BLA BLA BLA BLA BLA BLA 
BLA BLA BLA BLA BLA BLA BLA BLA BLA BLA BLA BLA BLA BLA BLA BLA BLA BLA BLA BLA 
BLA BLA BLA BLA BLA BLA BLA BLA BLA BLA BLA BLA BLA BLA BLA BLA BLA BLA BLA BLA 
BLA BLA BLA BLA BLA BLA BLA BLA BLA BLA BLA BLA BLA BLA BLA BLA BLA BLA BLA BLA 
BLA BLA BLA BLA BLA BLA BLA BLA BLA BLA BLA BLA BLA BLA BLA BLA BLA BLA BLA BLA 
BLA BLA BLA BLA BLA BLA BLA BLA BLA BLA BLA BLA BLA BLA BLA BLA BLA BLA BLA BLA 
BLA BLA BLA BLA BLA BLA BLA BLA BLA BLA BLA BLA BLA BLA BLA BLA BLA BLA BLA BLA 
BLA BLA BLA BLA BLA BLA BLA BLA BLA BLA BLA BLA BLA BLA BLA BLA BLA BLA BLA BLA 
BLA BLA BLA BLA BLA BLA BLA BLA BLA BLA BLA BLA BLA BLA BLA BLA BLA BLA BLA BLA 
BLA BLA BLA BLA BLA BLA BLA BLA BLA BLA BLA BLA BLA BLA BLA BLA BLA BLA BLA BLA 
BLA BLA BLA BLA BLA BLA BLA BLA BLA BLA BLA BLA BLA BLA BLA BLA BLA BLA BLA BLA 
BLA BLA BLA BLA BLA BLA BLA BLA BLA BLA BLA BLA BLA BLA BLA BLA BLA BLA BLA BLA 
BLA BLA BLA BLA BLA BLA BLA BLA BLA BLA BLA BLA BLA BLA BLA BLA BLA BLA BLA BLA 
BLA BLA BLA BLA BLA BLA BLA BLA BLA BLA BLA BLA BLA BLA BLA BLA BLA BLA BLA BLA 
BLA BLA BLA BLA BLA BLA BLA BLA BLA BLA BLA BLA BLA BLA BLA BLA BLA BLA BLA BLA 
BLA BLA BLA BLA BLA BLA BLA BLA BLA BLA BLA BLA BLA BLA BLA BLA BLA BLA BLA BLA 
BLA BLA BLA BLA BLA BLA BLA BLA BLA BLA BLA BLA BLA BLA BLA BLA BLA BLA BLA BLA 
BLA BLA BLA BLA BLA BLA BLA BLA BLA BLA BLA BLA BLA BLA BLA BLA BLA BLA BLA BLA 
BLA BLA BLA BLA BLA BLA BLA BLA BLA BLA BLA BLA BLA BLA BLA BLA BLA BLA BLA BLA 
BLA BLA BLA BLA BLA BLA BLA BLA BLA BLA BLA BLA BLA BLA BLA BLA BLA BLA BLA BLA 
BLA BLA BLA BLA BLA BLA BLA BLA BLA BLA BLA BLA BLA BLA BLA BLA BLA BLA BLA BLA 
BLA BLA BLA BLA BLA BLA BLA BLA BLA BLA BLA BLA BLA BLA BLA BLA BLA BLA BLA BLA 
BLA BLA BLA BLA BLA BLA BLA BLA BLA BLA BLA BLA BLA BLA BLA BLA BLA BLA BLA BLA 
BLA BLA BLA BLA BLA BLA BLA BLA BLA BLA BLA BLA BLA BLA BLA BLA BLA BLA BLA BLA 
BLA BLA BLA BLA BLA BLA BLA BLA BLA BLA BLA BLA BLA BLA BLA BLA BLA BLA BLA BLA 
BLA BLA BLA BLA BLA BLA BLA BLA BLA BLA BLA BLA BLA BLA BLA BLA BLA BLA BLA BLA 
BLA BLA BLA BLA BLA BLA BLA BLA BLA BLA BLA BLA BLA BLA BLA BLA BLA BLA BLA BLA 
BLA BLA BLA BLA BLA BLA BLA BLA BLA BLA BLA BLA BLA BLA BLA BLA BLA BLA BLA BLA 
BLA BLA BLA BLA BLA BLA BLA BLA BLA BLA BLA BLA BLA BLA BLA BLA BLA BLA BLA BLA 
BLA BLA BLA BLA BLA BLA BLA BLA BLA BLA BLA BLA BLA BLA BLA BLA BLA BLA BLA BLA 
BLA BLA BLA BLA BLA BLA BLA BLA BLA BLA BLA BLA BLA BLA BLA BLA BLA BLA BLA BLA 
BLA BLA BLA BLA BLA BLA BLA BLA BLA BLA BLA BLA BLA BLA BLA BLA BLA BLA BLA BLA 
BLA BLA BLA BLA BLA BLA BLA BLA BLA BLA BLA BLA BLA BLA BLA BLA BLA BLA BLA BLA 
BLA BLA BLA BLA BLA BLA BLA BLA BLA BLA BLA BLA BLA BLA BLA BLA BLA BLA BLA BLA 
BLA BLA BLA BLA BLA BLA BLA BLA BLA BLA BLA BLA BLA BLA BLA BLA BLA BLA BLA BLA 
BLA BLA BLA BLA BLA BLA BLA BLA BLA BLA BLA BLA BLA BLA BLA BLA BLA BLA BLA BLA 
BLA BLA BLA BLA BLA BLA BLA BLA BLA BLA BLA BLA BLA BLA BLA BLA BLA BLA BLA BLA 
BLA BLA BLA BLA BLA BLA BLA BLA BLA BLA BLA BLA BLA BLA BLA BLA BLA BLA BLA BLA 
BLA BLA BLA BLA BLA BLA BLA BLA BLA BLA BLA BLA BLA BLA BLA BLA BLA BLA BLA BLA 
BLA BLA BLA BLA BLA BLA BLA BLA BLA BLA BLA BLA BLA BLA BLA BLA BLA BLA BLA BLA 
BLA BLA BLA BLA BLA BLA BLA BLA BLA BLA BLA BLA BLA BLA BLA BLA BLA BLA BLA BLA 
BLA BLA BLA BLA BLA BLA BLA BLA BLA BLA BLA BLA BLA BLA BLA BLA BLA BLA BLA BLA 
BLA BLA BLA BLA BLA BLA BLA BLA BLA BLA BLA BLA BLA BLA BLA BLA BLA BLA BLA BLA 
BLA BLA BLA BLA BLA BLA BLA BLA BLA BLA BLA BLA BLA BLA BLA BLA BLA BLA BLA BLA 
BLA BLA BLA BLA BLA BLA BLA BLA BLA BLA BLA BLA BLA BLA BLA BLA BLA BLA BLA BLA 
BLA BLA BLA BLA BLA BLA BLA BLA BLA BLA BLA BLA BLA BLA BLA BLA BLA BLA BLA BLA 
BLA BLA BLA BLA BLA BLA BLA BLA BLA BLA BLA BLA BLA BLA BLA BLA BLA BLA BLA BLA 
BLA BLA BLA BLA BLA BLA BLA BLA BLA BLA BLA BLA BLA BLA BLA BLA BLA BLA BLA BLA 
BLA BLA BLA BLA BLA BLA BLA BLA BLA BLA BLA BLA BLA BLA BLA BLA BLA BLA BLA BLA 
BLA BLA BLA BLA BLA BLA BLA BLA BLA BLA BLA BLA BLA BLA BLA BLA BLA BLA BLA BLA 
BLA BLA BLA BLA BLA BLA BLA BLA BLA BLA BLA BLA BLA BLA BLA BLA BLA BLA BLA BLA 
BLA BLA BLA BLA BLA BLA BLA BLA BLA BLA BLA BLA BLA BLA BLA BLA BLA BLA BLA BLA 
BLA BLA BLA BLA BLA BLA BLA BLA BLA BLA BLA BLA BLA BLA BLA BLA BLA BLA BLA BLA 
BLA BLA BLA BLA BLA BLA BLA BLA BLA BLA BLA BLA BLA BLA BLA BLA BLA BLA BLA BLA 
BLA BLA BLA BLA BLA BLA BLA BLA BLA BLA BLA BLA BLA BLA BLA BLA BLA BLA BLA BLA 
BLA BLA BLA BLA BLA BLA BLA BLA BLA BLA BLA BLA BLA BLA BLA BLA BLA BLA BLA BLA 
BLA BLA BLA BLA BLA BLA BLA BLA BLA BLA BLA BLA BLA BLA BLA BLA BLA BLA BLA BLA 
BLA BLA BLA BLA BLA BLA BLA BLA BLA BLA BLA BLA BLA BLA BLA BLA BLA BLA BLA BLA 
BLA BLA BLA BLA BLA BLA BLA BLA BLA BLA BLA BLA BLA BLA BLA BLA BLA BLA BLA BLA 
BLA BLA BLA BLA BLA BLA BLA BLA BLA BLA BLA BLA BLA BLA BLA BLA BLA BLA BLA BLA 
BLA BLA BLA BLA BLA BLA BLA BLA BLA BLA BLA BLA BLA BLA BLA BLA BLA BLA BLA BLA 
BLA BLA BLA BLA BLA BLA BLA BLA BLA BLA BLA BLA BLA BLA BLA BLA BLA BLA BLA BLA 
BLA BLA BLA BLA BLA BLA BLA BLA BLA BLA BLA BLA BLA BLA BLA BLA BLA BLA BLA BLA 
BLA BLA BLA BLA BLA BLA BLA BLA BLA BLA BLA BLA BLA BLA BLA BLA BLA BLA BLA BLA 
BLA BLA BLA BLA BLA BLA BLA BLA BLA BLA BLA BLA BLA BLA BLA BLA BLA BLA BLA BLA 
BLA BLA BLA BLA BLA BLA BLA BLA BLA BLA BLA BLA BLA BLA BLA BLA BLA BLA BLA BLA 
BLA BLA BLA BLA BLA BLA BLA BLA BLA BLA BLA BLA BLA BLA BLA BLA BLA BLA BLA BLA 
BLA BLA BLA BLA BLA BLA BLA BLA BLA BLA BLA BLA BLA BLA BLA BLA BLA BLA BLA BLA 
BLA BLA BLA BLA BLA BLA BLA BLA BLA BLA BLA BLA BLA BLA BLA BLA BLA BLA BLA BLA 
BLA BLA BLA BLA BLA BLA BLA BLA BLA BLA BLA BLA BLA BLA BLA BLA BLA BLA BLA BLA 
BLA BLA BLA BLA BLA BLA BLA BLA BLA BLA BLA BLA BLA BLA BLA BLA BLA BLA BLA BLA 
BLA BLA BLA BLA BLA BLA BLA BLA BLA BLA BLA BLA BLA BLA BLA BLA BLA BLA BLA BLA 
BLA BLA BLA BLA BLA BLA BLA BLA BLA BLA BLA BLA BLA BLA BLA BLA BLA BLA BLA BLA 
BLA BLA BLA BLA BLA BLA BLA BLA BLA BLA BLA BLA BLA BLA BLA BLA BLA BLA BLA BLA 
BLA BLA BLA BLA BLA BLA BLA BLA BLA BLA BLA BLA BLA BLA BLA BLA BLA BLA BLA BLA 
BLA BLA BLA BLA BLA BLA BLA BLA BLA BLA BLA BLA BLA BLA BLA BLA BLA BLA BLA BLA 
BLA BLA BLA BLA BLA BLA BLA BLA BLA BLA BLA BLA BLA BLA BLA BLA BLA BLA BLA BLA 
BLA BLA BLA BLA BLA BLA BLA BLA BLA BLA BLA BLA BLA BLA BLA BLA BLA BLA BLA BLA 
BLA BLA BLA BLA BLA BLA BLA BLA BLA BLA BLA BLA BLA BLA BLA BLA BLA BLA BLA BLA 
BLA BLA BLA BLA BLA BLA BLA BLA BLA BLA BLA BLA BLA BLA BLA BLA BLA BLA BLA BLA 
BLA BLA BLA BLA BLA BLA BLA BLA BLA BLA BLA BLA BLA BLA BLA BLA BLA BLA BLA BLA 
BLA BLA BLA BLA BLA BLA BLA BLA BLA BLA BLA BLA BLA BLA BLA BLA BLA BLA BLA BLA 
BLA BLA BLA BLA BLA BLA BLA BLA BLA BLA BLA BLA BLA BLA BLA BLA BLA BLA BLA BLA 
BLA BLA BLA BLA BLA BLA BLA BLA BLA BLA BLA BLA BLA BLA BLA BLA BLA BLA BLA BLA 
BLA BLA BLA BLA BLA BLA BLA BLA BLA BLA BLA BLA BLA BLA BLA BLA BLA BLA BLA BLA 
BLA BLA BLA BLA BLA BLA BLA BLA BLA BLA BLA BLA BLA BLA BLA BLA BLA BLA BLA BLA 
BLA BLA BLA BLA BLA BLA BLA BLA BLA BLA BLA BLA BLA BLA BLA BLA BLA BLA BLA BLA 
BLA BLA BLA BLA BLA BLA BLA BLA BLA BLA BLA BLA BLA BLA BLA BLA BLA BLA BLA BLA 
BLA BLA BLA BLA BLA BLA BLA BLA BLA BLA BLA BLA BLA BLA BLA BLA BLA BLA BLA BLA 
BLA BLA BLA BLA BLA BLA BLA BLA BLA BLA BLA BLA BLA BLA BLA BLA BLA BLA BLA BLA 
BLA BLA BLA BLA BLA BLA BLA BLA BLA BLA BLA BLA BLA BLA BLA BLA BLA BLA BLA BLA 
BLA BLA BLA BLA BLA BLA BLA BLA BLA BLA BLA BLA BLA BLA BLA BLA BLA BLA BLA BLA 
BLA BLA BLA BLA BLA BLA BLA BLA BLA BLA BLA BLA BLA BLA BLA BLA BLA BLA BLA BLA 
BLA BLA BLA BLA BLA BLA BLA BLA BLA BLA BLA BLA BLA BLA BLA BLA BLA BLA BLA BLA 
BLA BLA BLA BLA BLA BLA BLA BLA BLA BLA BLA BLA BLA BLA BLA BLA BLA BLA BLA BLA 
BLA BLA BLA BLA BLA BLA BLA BLA BLA BLA BLA BLA BLA BLA BLA BLA BLA BLA BLA BLA 
BLA BLA BLA BLA BLA BLA BLA BLA BLA BLA BLA BLA BLA BLA BLA BLA BLA BLA BLA BLA 
BLA BLA BLA BLA BLA BLA BLA BLA BLA BLA BLA BLA BLA BLA BLA BLA BLA BLA BLA BLA 
BLA BLA BLA BLA BLA BLA BLA BLA BLA BLA BLA BLA BLA BLA BLA BLA BLA BLA BLA BLA 
BLA BLA BLA BLA BLA BLA BLA BLA BLA BLA BLA BLA BLA BLA BLA BLA BLA BLA BLA BLA 
BLA BLA BLA BLA BLA BLA BLA BLA BLA BLA BLA BLA BLA BLA BLA BLA BLA BLA BLA BLA 
BLA BLA BLA BLA BLA BLA BLA BLA BLA BLA BLA BLA BLA BLA BLA BLA BLA BLA BLA BLA 
BLA BLA BLA BLA BLA BLA BLA BLA BLA BLA BLA BLA BLA BLA BLA BLA BLA BLA BLA BLA 
BLA BLA BLA BLA BLA BLA BLA BLA BLA BLA BLA BLA BLA BLA BLA BLA BLA BLA BLA BLA 
BLA BLA BLA BLA BLA BLA BLA BLA BLA BLA BLA BLA BLA BLA BLA BLA BLA BLA BLA BLA 
BLA BLA BLA BLA BLA BLA BLA BLA BLA BLA BLA BLA BLA BLA BLA BLA BLA BLA BLA BLA 
BLA BLA BLA BLA BLA BLA BLA BLA BLA BLA BLA BLA BLA BLA BLA BLA BLA BLA BLA BLA 
BLA BLA BLA BLA BLA BLA BLA BLA BLA BLA BLA BLA BLA BLA BLA BLA BLA BLA BLA BLA 
BLA BLA BLA BLA BLA BLA BLA BLA BLA BLA BLA BLA BLA BLA BLA BLA BLA BLA BLA BLA 
BLA BLA BLA BLA BLA BLA BLA BLA BLA BLA BLA BLA BLA BLA BLA BLA BLA BLA BLA BLA 
BLA BLA BLA BLA BLA BLA BLA BLA BLA BLA BLA BLA BLA BLA BLA BLA BLA BLA BLA BLA 
BLA BLA BLA BLA BLA BLA BLA BLA BLA BLA BLA BLA BLA BLA BLA BLA BLA BLA BLA BLA 
BLA BLA BLA BLA BLA BLA BLA BLA BLA BLA BLA BLA BLA BLA BLA BLA BLA BLA BLA BLA 
BLA BLA BLA BLA BLA BLA BLA BLA BLA BLA BLA BLA BLA BLA BLA BLA BLA BLA BLA BLA 
BLA BLA BLA BLA BLA BLA BLA BLA BLA BLA BLA BLA BLA BLA BLA BLA BLA BLA BLA BLA 
BLA BLA BLA BLA BLA BLA BLA BLA BLA BLA BLA BLA BLA BLA BLA BLA BLA BLA BLA BLA 
BLA BLA BLA BLA BLA BLA BLA BLA BLA BLA BLA BLA BLA BLA BLA BLA BLA BLA BLA BLA 
BLA BLA BLA BLA BLA BLA BLA BLA BLA BLA BLA BLA BLA BLA BLA BLA BLA BLA BLA BLA 
BLA BLA BLA BLA BLA BLA BLA BLA BLA BLA BLA BLA BLA BLA BLA BLA BLA BLA BLA BLA 
BLA BLA BLA BLA BLA BLA BLA BLA BLA BLA BLA BLA BLA BLA BLA BLA BLA BLA BLA BLA 
BLA BLA BLA BLA BLA BLA BLA BLA BLA BLA BLA BLA BLA BLA BLA BLA BLA BLA BLA BLA 
BLA BLA BLA BLA BLA BLA BLA BLA BLA BLA BLA BLA BLA BLA BLA BLA BLA BLA BLA BLA 
BLA BLA BLA BLA BLA BLA BLA BLA BLA BLA BLA BLA BLA BLA BLA BLA BLA BLA BLA BLA 
BLA BLA BLA BLA BLA BLA BLA BLA BLA BLA BLA BLA BLA BLA BLA BLA BLA BLA BLA BLA 
BLA BLA BLA BLA BLA BLA BLA BLA BLA BLA BLA BLA BLA BLA BLA BLA BLA BLA BLA BLA 
BLA BLA BLA BLA BLA BLA BLA BLA BLA BLA BLA BLA BLA BLA BLA BLA BLA BLA BLA BLA 
BLA BLA BLA BLA BLA BLA BLA BLA BLA BLA BLA BLA BLA BLA BLA BLA BLA BLA BLA BLA 
BLA BLA BLA BLA BLA BLA BLA BLA BLA BLA BLA BLA BLA BLA BLA BLA BLA BLA BLA BLA 
BLA BLA BLA BLA BLA BLA BLA BLA BLA BLA BLA BLA BLA BLA BLA BLA BLA BLA BLA BLA 
BLA BLA BLA BLA BLA BLA BLA BLA BLA BLA BLA BLA BLA BLA BLA BLA BLA BLA BLA BLA 
BLA BLA BLA BLA BLA BLA BLA BLA BLA BLA BLA BLA BLA BLA BLA BLA BLA BLA BLA BLA 
BLA BLA BLA BLA BLA BLA BLA BLA BLA BLA BLA BLA BLA BLA BLA BLA BLA BLA BLA BLA 
BLA BLA BLA BLA BLA BLA BLA BLA BLA BLA BLA BLA BLA BLA BLA BLA BLA BLA BLA BLA 
BLA BLA BLA BLA BLA BLA BLA BLA BLA BLA BLA BLA BLA BLA BLA BLA BLA BLA BLA BLA 
BLA BLA BLA BLA BLA BLA BLA BLA BLA BLA BLA BLA BLA BLA BLA BLA BLA BLA BLA BLA 
BLA BLA BLA BLA BLA BLA BLA BLA BLA BLA BLA BLA BLA BLA BLA BLA BLA BLA BLA BLA 
BLA BLA BLA BLA BLA BLA BLA BLA BLA BLA BLA BLA BLA BLA BLA BLA BLA BLA BLA BLA 
BLA BLA BLA BLA BLA BLA BLA BLA BLA BLA BLA BLA BLA BLA BLA BLA BLA BLA BLA BLA 
BLA BLA BLA BLA BLA BLA BLA BLA BLA BLA BLA BLA BLA BLA BLA BLA BLA BLA BLA BLA 
BLA BLA BLA BLA BLA BLA BLA BLA BLA BLA BLA BLA BLA BLA BLA BLA BLA BLA BLA BLA 
BLA BLA BLA BLA BLA BLA BLA BLA BLA BLA BLA BLA BLA BLA BLA BLA BLA BLA BLA BLA 
BLA BLA BLA BLA BLA BLA BLA BLA BLA BLA BLA BLA BLA BLA BLA BLA BLA BLA BLA BLA 
BLA BLA BLA BLA BLA BLA BLA BLA BLA BLA BLA BLA BLA BLA BLA BLA BLA BLA BLA BLA 
BLA BLA BLA BLA BLA BLA BLA BLA BLA BLA BLA BLA BLA BLA BLA BLA BLA BLA BLA BLA 
BLA BLA BLA BLA BLA BLA BLA BLA BLA BLA BLA BLA BLA BLA BLA BLA BLA BLA BLA BLA 
BLA BLA BLA BLA BLA BLA BLA BLA BLA BLA BLA BLA BLA BLA BLA BLA BLA BLA BLA BLA 
BLA BLA BLA BLA BLA BLA BLA BLA BLA BLA BLA BLA BLA BLA BLA BLA BLA BLA BLA BLA 
BLA BLA BLA BLA BLA BLA BLA BLA BLA BLA BLA BLA BLA BLA BLA BLA BLA BLA BLA BLA 
BLA BLA BLA BLA BLA BLA BLA BLA BLA BLA BLA BLA BLA BLA BLA BLA BLA BLA BLA BLA 
BLA BLA BLA BLA BLA BLA BLA BLA BLA BLA BLA BLA BLA BLA BLA BLA BLA BLA BLA BLA 
BLA BLA BLA BLA BLA BLA BLA BLA BLA BLA BLA BLA BLA BLA BLA BLA BLA BLA BLA BLA 
BLA BLA BLA BLA BLA BLA BLA BLA BLA BLA BLA BLA BLA BLA BLA BLA BLA BLA BLA BLA 
BLA BLA BLA BLA BLA BLA BLA BLA BLA BLA BLA BLA BLA BLA BLA BLA BLA BLA BLA BLA 
BLA BLA BLA BLA BLA BLA BLA BLA BLA BLA BLA BLA BLA BLA BLA BLA BLA BLA BLA BLA 
BLA BLA BLA BLA BLA BLA BLA BLA BLA BLA BLA BLA BLA BLA BLA BLA BLA BLA BLA BLA 
BLA BLA BLA BLA BLA BLA BLA BLA BLA BLA BLA BLA BLA BLA BLA BLA BLA BLA BLA BLA 
BLA BLA BLA BLA BLA BLA BLA BLA BLA BLA BLA BLA BLA BLA BLA BLA BLA BLA BLA BLA 
BLA BLA BLA BLA BLA BLA BLA BLA BLA BLA BLA BLA BLA BLA BLA BLA BLA BLA BLA BLA 
BLA BLA BLA BLA BLA BLA BLA BLA BLA BLA BLA BLA BLA BLA BLA BLA BLA BLA BLA BLA 
BLA BLA BLA BLA BLA BLA BLA BLA BLA BLA BLA BLA BLA BLA BLA BLA BLA BLA BLA BLA 
BLA BLA BLA BLA BLA BLA BLA BLA BLA BLA BLA BLA BLA BLA BLA BLA BLA BLA BLA BLA 
BLA BLA BLA BLA BLA BLA BLA BLA BLA BLA BLA BLA BLA BLA BLA BLA BLA BLA BLA BLA 
BLA BLA BLA BLA BLA BLA BLA BLA BLA BLA BLA BLA BLA BLA BLA BLA BLA BLA BLA BLA 
BLA BLA BLA BLA BLA BLA BLA BLA BLA BLA BLA BLA BLA BLA BLA BLA BLA BLA BLA BLA 
BLA BLA BLA BLA BLA BLA BLA BLA BLA BLA BLA BLA BLA BLA BLA BLA BLA BLA BLA BLA 
BLA BLA BLA BLA BLA BLA BLA BLA BLA BLA BLA BLA 
%FLAG JOIN_ARRAY                                                                
%FORMAT(10I8)                                                                   
       0       0       0       0       0       0       0       0       0       0
       0       0       0       0       0       0       0       0       0       0
       0       0       0       0       0       0       0       0       0       0
       0       0       0       0       0       0       0       0       0       0
       0       0       0       0       0       0       0       0       0       0
       0       0       0       0       0       0       0       0       0       0
       0       0       0       0       0       0       0       0       0       0
       0       0       0       0       0       0       0       0       0       0
       0       0       0       0       0       0       0       0       0       0
       0       0       0       0       0       0       0       0       0       0
       0       0       0       0       0       0       0       0       0       0
       0       0       0       0       0       0       0       0       0       0
       0       0       0       0       0       0       0       0       0       0
       0       0       0       0       0       0       0       0       0       0
       0       0       0       0       0       0       0       0       0       0
       0       0       0       0       0       0       0       0       0       0
       0       0       0       0       0       0       0       0       0       0
       0       0       0       0       0       0       0       0       0       0
       0       0       0       0       0       0       0       0       0       0
       0       0       0       0       0       0       0       0       0       0
       0       0       0       0       0       0       0       0       0       0
       0       0       0       0       0       0       0       0       0       0
       0       0       0       0       0       0       0       0       0       0
       0       0       0       0       0       0       0       0       0       0
       0       0       0       0       0       0       0       0       0       0
       0       0       0       0       0       0       0       0       0       0
       0       0       0       0       0       0       0       0       0       0
       0       0       0       0       0       0       0       0       0       0
       0       0       0       0       0       0       0       0       0       0
       0       0       0       0       0       0       0       0       0       0
       0       0       0       0       0       0       0       0       0       0
       0       0       0       0       0       0       0       0       0       0
       0       0       0       0       0       0       0       0       0       0
       0       0       0       0       0       0       0       0       0       0
       0       0       0       0       0       0       0       0       0       0
       0       0       0       0       0       0       0       0       0       0
       0       0       0       0       0       0       0       0       0       0
       0       0       0       0       0       0       0       0       0       0
       0       0       0       0       0       0       0       0       0       0
       0       0       0       0       0       0       0       0       0       0
       0       0       0       0       0       0       0       0       0       0
       0       0       0       0       0       0       0       0       0       0
       0       0       0       0       0       0       0       0       0       0
       0       0       0       0       0       0       0       0       0       0
       0       0       0       0       0       0       0       0       0       0
       0       0       0       0       0       0       0       0       0       0
       0       0       0       0       0       0       0       0       0       0
       0       0       0       0       0       0       0       0       0       0
       0       0       0       0       0       0       0       0       0       0
       0       0       0       0       0       0       0       0       0       0
       0       0       0       0       0       0       0       0       0       0
       0       0       0       0       0       0       0       0       0       0
       0       0       0       0       0       0       0       0       0       0
       0       0       0       0       0       0       0       0       0       0
       0       0       0       0       0       0       0       0       0       0
       0       0       0       0       0       0       0       0       0       0
       0       0       0       0       0       0       0       0       0       0
       0       0       0       0       0       0       0       0       0       0
       0       0       0       0       0       0       0       0       0       0
       0       0       0       0       0       0       0       0       0       0
       0       0       0       0       0       0       0       0       0       0
       0       0       0       0       0       0       0       0       0       0
       0       0       0       0       0       0       0       0       0       0
       0       0       0       0       0       0       0       0       0       0
       0       0       0       0       0       0       0       0       0       0
       0       0       0       0       0       0       0       0       0       0
       0       0       0       0       0       0       0       0       0       0
       0       0       0       0       0       0       0       0       0       0
       0       0       0       0       0       0       0       0       0       0
       0       0       0       0       0       0       0       0       0       0
       0       0       0       0       0       0       0       0       0       0
       0       0       0       0       0       0       0       0       0       0
       0       0       0       0       0       0       0       0       0       0
       0       0       0       0       0       0       0       0       0       0
       0       0       0       0       0       0       0       0       0       0
       0       0       0       0       0       0       0       0       0       0
       0       0       0       0       0       0       0       0       0       0
       0       0       0       0       0       0       0       0       0       0
       0       0       0       0       0       0       0       0       0       0
       0       0       0       0       0       0       0       0       0       0
       0       0       0       0       0       0       0       0       0       0
       0       0       0       0       0       0       0       0       0       0
       0       0       0       0       0       0       0       0       0       0
       0       0       0       0       0       0       0       0       0       0
       0       0       0       0       0       0       0       0       0       0
       0       0       0       0       0       0       0       0       0       0
       0       0       0       0       0       0       0       0       0       0
       0       0       0       0       0       0       0       0       0       0
       0       0       0       0       0       0       0       0       0       0
       0       0       0       0       0       0       0       0       0       0
       0       0       0       0       0       0       0       0       0       0
       0       0       0       0       0       0       0       0       0       0
       0       0       0       0       0       0       0       0       0       0
       0       0       0       0       0       0       0       0       0       0
       0       0       0       0       0       0       0       0       0       0
       0       0       0       0       0       0       0       0       0       0
       0       0       0       0       0       0       0       0       0       0
       0       0       0       0       0       0       0       0       0       0
       0       0       0       0       0       0       0       0       0       0
       0       0       0       0       0       0       0       0       0       0
       0       0       0       0       0       0       0       0       0       0
       0       0       0       0       0       0       0       0       0       0
       0       0       0       0       0       0       0       0       0       0
       0       0       0       0       0       0       0       0       0       0
       0       0       0       0       0       0       0       0       0       0
       0       0       0       0       0       0       0       0       0       0
       0       0       0       0       0       0       0       0       0       0
       0       0       0       0       0       0       0       0       0       0
       0       0       0       0       0       0       0       0       0       0
       0       0       0       0       0       0       0       0       0       0
       0       0       0       0       0       0       0       0       0       0
       0       0       0       0       0       0       0       0       0       0
       0       0       0       0       0       0       0       0       0       0
       0       0       0       0       0       0       0       0       0       0
       0       0       0       0       0       0       0       0       0       0
       0       0       0       0       0       0       0       0       0       0
       0       0       0       0       0       0       0       0       0       0
       0       0       0       0       0       0       0       0       0       0
       0       0       0       0       0       0       0       0       0       0
       0       0       0       0       0       0       0       0       0       0
       0       0       0       0       0       0       0       0       0       0
       0       0       0       0       0       0       0       0       0       0
       0       0       0       0       0       0       0       0       0       0
       0       0       0       0       0       0       0       0       0       0
       0       0       0       0       0       0       0       0       0       0
       0       0       0       0       0       0       0       0       0       0
       0       0       0       0       0       0       0       0       0       0
       0       0       0       0       0       0       0       0       0       0
       0       0       0       0       0       0       0       0       0       0
       0       0       0       0       0       0       0       0       0       0
       0       0       0       0       0       0       0       0       0       0
       0       0       0       0       0       0       0       0       0       0
       0       0       0       0       0       0       0       0       0       0
       0       0       0       0       0       0       0       0       0       0
       0       0       0       0       0       0       0       0       0       0
       0       0       0       0       0       0       0       0       0       0
       0       0       0       0       0       0       0       0       0       0
       0       0       0       0       0       0       0       0       0       0
       0       0       0       0       0       0       0       0       0       0
       0       0       0       0       0       0       0       0       0       0
       0       0       0       0       0       0       0       0       0       0
       0       0       0       0       0       0       0       0       0       0
       0       0       0       0       0       0       0       0       0       0
       0       0       0       0       0       0       0       0       0       0
       0       0       0       0       0       0       0       0       0       0
       0       0       0       0       0       0       0       0       0       0
       0       0       0       0       0       0       0       0       0       0
       0       0       0       0       0       0       0       0       0       0
       0       0       0       0       0       0       0       0       0       0
       0       0       0       0       0       0       0       0       0       0
       0       0       0       0       0       0       0       0       0       0
       0       0       0       0       0       0       0       0       0       0
       0       0       0       0       0       0       0       0       0       0
       0       0       0       0       0       0       0       0       0       0
       0       0       0       0       0       0       0       0       0       0
       0       0       0       0       0       0       0       0       0       0
       0       0       0       0       0       0       0       0       0       0
       0       0       0       0       0       0       0       0       0       0
       0       0       0       0       0       0       0       0       0       0
       0       0       0       0       0       0       0       0       0       0
       0       0       0       0       0       0       0       0       0       0
       0       0       0       0       0       0       0       0       0       0
       0       0       0       0       0       0       0       0       0       0
       0       0       0       0       0       0       0       0       0       0
       0       0       0       0       0       0       0       0       0       0
       0       0       0       0       0       0       0       0       0       0
       0       0       0       0       0       0       0       0       0       0
       0       0       0       0       0       0       0       0       0       0
       0       0       0       0       0       0       0       0       0       0
       0       0       0       0       0       0       0       0       0       0
       0       0       0       0       0       0       0       0       0       0
       0       0       0       0       0       0       0       0       0       0
       0       0       0       0       0       0       0       0       0       0
       0       0       0       0       0       0       0       0       0       0
       0       0       0       0       0       0       0       0       0       0
       0       0       0       0       0       0       0       0       0       0
       0       0       0       0       0       0       0       0       0       0
       0       0       0       0       0       0       0       0       0       0
       0       0       0       0       0       0       0       0       0       0
       0       0       0       0       0       0       0       0       0       0
       0       0       0       0       0       0       0       0       0       0
       0       0       0       0       0       0       0       0       0       0
       0       0       0       0       0       0       0       0       0       0
       0       0       0       0       0       0       0       0       0       0
       0       0       0       0       0       0       0       0       0       0
       0       0       0       0       0       0       0       0       0       0
       0       0       0       0       0       0       0       0       0       0
       0       0       0       0       0       0       0       0       0       0
       0       0       0       0       0       0       0       0       0       0
       0       0       0       0       0       0       0       0       0       0
       0       0       0       0       0       0       0       0       0       0
       0       0       0       0       0       0       0       0       0       0
       0       0       0       0       0       0       0       0       0       0
       0       0       0       0       0       0       0       0       0       0
       0       0       0       0       0       0       0       0       0       0
       0       0       0       0       0       0       0       0       0       0
       0       0       0       0       0       0       0       0       0       0
       0       0       0       0       0       0       0       0       0       0
       0       0       0       0       0       0       0       0       0       0
       0       0       0       0       0       0       0       0       0       0
       0       0       0       0       0       0       0       0       0       0
       0       0       0       0       0       0       0       0       0       0
       0       0       0       0       0       0       0       0       0       0
       0       0       0       0       0       0       0       0       0       0
       0       0       0       0       0       0       0       0       0       0
       0       0       0       0       0       0       0       0       0       0
       0       0       0       0       0       0       0       0       0       0
       0       0       0       0       0       0       0       0       0       0
       0       0       0       0       0       0       0       0       0       0
       0       0       0       0       0       0       0       0       0       0
       0       0       0       0       0       0       0       0       0       0
       0       0       0       0       0       0       0       0       0       0
       0       0       0       0       0       0       0       0       0       0
       0       0       0       0       0       0       0       0       0       0
       0       0       0       0       0       0       0       0       0       0
       0       0       0       0       0       0       0       0       0       0
       0       0       0       0       0       0       0       0       0       0
       0       0       0       0       0       0       0       0       0       0
       0       0       0       0       0       0       0       0       0       0
       0       0       0       0       0       0       0       0       0       0
       0       0       0       0       0       0       0       0       0       0
       0       0       0       0       0       0       0       0       0       0
       0       0       0       0       0       0       0       0       0       0
       0       0       0       0       0       0       0       0       0       0
       0       0       0       0       0       0       0       0       0       0
       0       0       0       0       0       0       0       0       0       0
       0       0       0       0       0       0       0       0       0       0
       0       0       0       0       0       0       0       0       0       0
       0       0       0       0       0       0       0       0       0       0
       0       0       0       0       0       0       0       0       0       0
       0       0       0       0       0       0       0       0       0       0
       0       0       0       0       0       0       0       0       0       0
       0       0       0       0       0       0       0       0       0       0
       0       0       0       0       0       0       0       0       0       0
       0       0       0       0       0       0       0       0       0       0
       0       0       0       0       0       0       0       0       0       0
       0       0       0       0       0       0       0       0       0       0
       0       0       0       0       0       0       0       0       0       0
       0       0       0       0       0       0       0       0       0       0
       0       0       0       0       0       0       0       0       0       0
       0       0       0       0       0       0       0       0       0       0
       0       0       0       0       0       0       0       0       0       0
       0       0       0       0       0       0       0       0       0       0
       0       0       0       0       0       0       0       0       0       0
       0       0       0       0       0       0       0       0       0       0
       0       0       0       0       0       0       0       0       0       0
       0       0       0       0       0       0       0       0       0       0
       0       0       0       0       0       0       0       0       0       0
       0       0       0       0       0       0       0       0       0       0
       0       0       0       0       0       0       0       0       0       0
       0       0       0       0       0       0       0       0       0       0
       0       0       0       0       0       0       0       0       0       0
       0       0       0       0       0       0       0       0       0       0
       0       0       0       0       0       0       0       0       0       0
       0       0       0       0       0       0       0       0       0       0
       0       0       0       0       0       0       0       0       0       0
       0       0       0       0       0       0       0       0       0       0
       0       0       0       0       0       0       0       0       0       0
       0       0       0       0       0       0       0       0       0       0
       0       0       0       0       0       0       0       0       0       0
       0       0       0       0       0       0       0       0       0       0
       0       0       0       0       0       0       0       0       0       0
       0       0       0       0       0       0       0       0       0       0
       0       0       0       0       0       0       0       0       0       0
       0       0       0       0       0       0       0       0       0       0
       0       0       0       0       0       0       0       0       0       0
       0       0       0       0       0       0       0       0       0       0
       0       0       0       0       0       0       0       0       0       0
       0       0       0       0       0       0       0       0       0       0
       0       0       0       0       0       0       0       0       0       0
       0       0       0       0       0       0       0       0       0       0
       0       0       0       0       0       0       0       0       0       0
       0       0       0       0       0       0       0       0       0       0
       0       0       0       0       0       0       0       0       0       0
       0       0       0       0       0       0       0       0       0       0
       0       0       0       0       0       0       0       0       0       0
       0       0       0       0       0       0       0       0       0       0
       0       0       0       0       0       0       0       0       0       0
       0       0       0       0       0       0       0       0       0       0
       0       0       0       0       0       0       0       0       0       0
       0       0       0       0       0       0       0       0       0       0
       0       0       0       0       0       0       0       0       0       0
       0       0       0       0       0       0       0       0       0       0
       0       0       0       0       0       0       0       0       0       0
       0       0       0       0       0       0       0       0       0       0
       0       0       0       0       0       0       0       0       0       0
       0       0       0       0       0       0       0       0       0       0
       0       0       0       0       0       0       0       0       0       0
       0       0       0       0       0       0       0       0       0       0
       0       0       0       0       0       0       0       0       0       0
       0       0       0       0       0       0       0       0       0       0
       0       0       0       0       0       0       0       0       0       0
       0       0       0       0       0       0       0       0       0       0
       0       0       0       0       0       0       0       0       0       0
       0       0       0       0       0       0       0       0       0       0
       0       0       0       0       0       0       0       0       0       0
       0       0       0       0       0       0       0       0       0       0
       0       0       0       0       0       0       0       0       0       0
       0       0       0       0       0       0       0       0       0       0
       0       0       0       0       0       0       0       0       0       0
       0       0       0       0       0       0       0       0       0       0
       0       0       0       0       0       0       0       0       0       0
       0       0       0       0       0       0       0       0       0       0
       0       0       0       0       0       0       0       0       0       0
       0       0       0       0       0       0       0       0       0       0
       0       0       0       0       0       0       0       0       0       0
       0       0       0       0       0       0       0       0       0       0
       0       0       0       0       0       0       0       0       0       0
       0       0       0       0       0       0       0       0       0       0
       0       0       0       0       0       0       0       0       0       0
       0       0       0       0       0       0       0       0       0       0
       0       0       0       0       0       0       0       0       0       0
       0       0       0       0       0       0       0       0       0       0
       0       0       0       0       0       0       0       0       0       0
       0       0       0       0       0       0       0       0       0       0
       0       0       0       0       0       0       0       0       0       0
       0       0       0       0       0       0       0       0       0       0
       0       0       0       0       0       0       0       0       0       0
       0       0       0       0       0       0       0       0       0       0
       0       0       0       0       0       0       0       0       0       0
       0       0       0       0       0       0       0       0       0       0
       0       0       0       0       0       0       0       0       0       0
       0       0       0       0       0       0       0       0       0       0
       0       0       0       0       0       0       0       0       0       0
       0       0       0       0       0       0       0       0       0       0
       0       0       0       0       0       0       0       0       0       0
       0       0       0       0       0       0       0       0       0       0
       0       0       0       0       0       0       0       0       0       0
       0       0       0       0       0       0       0       0       0       0
       0       0       0       0       0       0       0       0       0       0
       0       0       0       0       0       0       0       0       0       0
       0       0       0       0       0       0       0       0       0       0
       0       0       0       0       0       0       0       0       0       0
       0       0       0       0       0       0       0       0       0       0
       0       0       0       0       0       0       0       0       0       0
       0       0       0       0       0       0       0       0       0       0
       0       0       0       0       0       0       0       0       0       0
       0       0       0       0       0       0       0       0       0       0
       0       0       0       0       0       0       0       0       0       0
       0       0       0       0       0       0       0       0       0       0
       0       0       0       0       0       0       0       0       0       0
       0       0       0       0       0       0       0       0       0       0
       0       0       0       0       0       0       0       0       0       0
       0       0       0       0       0       0       0       0       0       0
       0       0       0       0       0       0       0       0       0       0
       0       0       0       0       0       0       0       0       0       0
       0       0       0       0       0       0       0       0       0       0
       0       0       0       0       0       0       0       0       0       0
       0       0       0       0       0       0       0       0       0       0
       0       0       0       0       0       0       0       0       0       0
       0       0       0       0       0       0       0       0       0       0
       0       0       0       0       0       0       0       0       0       0
       0       0       0       0       0       0       0       0       0       0
       0       0       0       0       0       0       0       0       0       0
       0       0       0       0       0       0       0       0       0       0
       0       0       0       0       0       0       0       0       0       0
       0       0       0       0       0       0       0       0       0       0
       0       0       0       0       0       0       0       0       0       0
       0       0       0       0       0       0       0       0       0       0
       0       0       0       0       0       0       0       0       0       0
       0       0       0       0       0       0       0       0       0       0
       0       0       0       0       0       0       0       0       0       0
       0       0       0       0       0       0       0       0       0       0
       0       0       0       0       0       0       0       0       0       0
       0       0       0       0       0       0       0       0       0       0
       0       0       0       0       0       0       0       0       0       0
       0       0       0       0       0       0       0       0       0       0
       0       0       0       0       0       0       0       0       0       0
       0       0       0       0       0       0       0       0       0       0
       0       0       0       0       0       0       0       0       0       0
       0       0       0       0       0       0       0       0       0       0
       0       0       0       0       0       0       0       0       0       0
       0       0       0       0       0       0       0       0       0       0
       0       0       0       0       0       0       0       0       0       0
       0       0       0       0       0       0       0       0       0       0
       0       0       0       0       0       0       0       0       0       0
       0       0       0       0       0       0       0       0       0       0
       0       0       0       0       0       0       0       0       0       0
       0       0       0       0       0       0       0       0       0       0
       0       0       0       0       0       0       0       0       0       0
       0       0       0       0       0       0       0       0       0       0
       0       0       0       0       0       0       0       0       0       0
       0       0       0       0       0       0       0       0       0       0
       0       0       0       0       0       0       0       0       0       0
       0       0       0       0       0       0       0       0       0       0
       0       0       0       0       0       0       0       0       0       0
       0       0       0       0       0       0       0       0       0       0
       0       0       0       0       0       0       0       0       0       0
       0       0       0       0       0       0       0       0       0       0
       0       0       0       0       0       0       0       0       0       0
       0       0       0       0       0       0       0       0       0       0
       0       0       0       0       0       0       0       0       0       0
       0       0       0       0       0       0       0       0       0       0
       0       0       0       0       0       0       0       0       0       0
       0       0       0       0       0       0       0       0       0       0
       0       0       0       0       0       0       0       0       0       0
       0       0       0       0       0       0       0       0       0       0
       0       0       0       0       0       0       0       0       0       0
       0       0       0       0       0       0       0       0       0       0
       0       0       0       0       0       0       0       0       0       0
       0       0       0       0       0       0       0       0       0       0
       0       0       0       0       0       0       0       0       0       0
       0       0       0       0       0       0       0       0       0       0
       0       0       0       0       0       0       0       0       0       0
       0       0       0       0       0       0       0       0       0       0
       0       0       0       0       0       0       0       0       0       0
       0       0       0       0       0       0       0       0       0       0
       0       0       0       0       0       0       0       0       0       0
       0       0       0       0       0       0       0       0       0       0
       0       0       0       0       0       0       0       0       0       0
       0       0       0       0       0       0       0       0       0       0
       0       0       0       0       0       0       0       0       0       0
       0       0       0       0       0       0       0       0       0       0
       0       0       0       0       0       0       0       0       0       0
       0       0       0       0       0       0       0       0       0       0
       0       0       0       0       0       0       0       0       0       0
       0       0       0       0       0       0       0       0       0       0
       0       0       0       0       0       0       0       0       0       0
       0       0       0       0       0       0       0       0       0       0
       0       0       0       0       0       0       0       0       0       0
       0       0       0       0       0       0       0       0       0       0
       0       0       0       0       0       0       0       0       0       0
       0       0       0       0       0       0       0       0       0       0
       0       0       0       0       0       0       0       0       0       0
       0       0       0       0       0       0       0       0       0       0
       0       0       0       0       0       0       0       0       0       0
       0       0       0       0       0       0       0       0       0       0
       0       0       0       0       0       0       0       0       0       0
       0       0       0       0       0       0       0       0       0       0
       0       0       0       0       0       0       0       0       0       0
       0       0       0       0       0       0       0       0       0       0
       0       0       0       0       0       0       0       0       0       0
       0       0       0       0       0       0       0       0       0       0
       0       0       0       0       0       0       0       0       0       0
       0       0       0       0       0       0       0       0       0       0
       0       0       0       0       0       0       0       0       0       0
       0       0       0       0       0       0       0       0       0       0
       0       0       0       0       0       0       0       0       0       0
       0       0       0       0       0       0       0       0       0       0
       0       0       0       0       0       0       0       0       0       0
       0       0       0       0       0       0       0       0       0       0
       0       0       0       0       0       0       0       0       0       0
       0       0       0       0       0       0       0       0       0       0
       0       0       0       0       0       0       0       0       0       0
       0       0       0       0       0       0       0       0       0       0
       0       0       0       0       0       0       0       0       0       0
       0       0       0       0       0       0       0       0       0       0
       0       0       0       0       0       0       0       0       0       0
       0       0       0       0       0       0       0       0       0       0
       0       0       0       0       0       0       0       0       0       0
       0       0       0       0       0       0       0       0       0       0
       0       0       0       0       0       0       0       0       0       0
       0       0       0       0       0       0       0       0       0       0
       0       0       0       0       0       0       0       0       0       0
       0       0       0       0       0       0       0       0       0       0
       0       0       0       0       0       0       0       0       0       0
       0       0       0       0       0       0       0       0       0       0
       0       0       0       0       0       0       0       0       0       0
       0       0       0       0       0       0       0       0       0       0
       0       0       0       0       0       0       0       0       0       0
       0       0       0       0       0       0       0       0       0       0
       0       0       0       0       0       0       0       0       0       0
       0       0       0       0       0       0       0       0       0       0
       0       0       0       0       0       0       0       0       0       0
       0       0       0       0       0       0       0       0       0       0
       0       0       0       0       0       0       0       0       0       0
       0       0       0       0       0       0       0       0       0       0
       0       0       0       0       0       0       0       0       0       0
       0       0       0       0       0       0       0       0       0       0
       0       0       0       0       0       0       0       0       0       0
       0       0       0       0       0       0       0       0       0       0
       0       0       0       0       0       0       0       0       0       0
       0       0       0       0       0       0       0       0       0       0
       0       0       0       0       0       0       0       0       0       0
       0       0       0       0       0       0       0       0       0       0
       0       0       0       0       0       0       0       0       0       0
       0       0       0       0       0       0       0       0       0       0
       0       0       0       0       0       0       0       0       0       0
       0       0       0       0       0       0       0       0       0       0
       0       0       0       0       0       0       0       0       0       0
       0       0       0       0       0       0       0       0       0       0
       0       0       0       0       0       0       0       0       0       0
       0       0       0       0       0       0       0       0       0       0
       0       0       0       0       0       0       0       0       0       0
       0       0       0       0       0       0       0       0       0       0
       0       0       0       0       0       0       0       0       0       0
       0       0       0       0       0       0       0       0       0       0
       0       0       0       0       0       0       0       0       0       0
       0       0       0       0       0       0       0       0       0       0
       0       0       0       0       0       0       0       0       0       0
       0       0       0       0       0       0       0       0       0       0
       0       0       0       0       0       0       0       0       0       0
       0       0       0       0       0       0       0       0       0       0
       0       0       0       0       0       0       0       0       0       0
       0       0       0       0       0       0       0       0       0       0
       0       0       0       0       0       0       0       0       0       0
       0       0       0       0       0       0       0       0       0       0
       0       0       0       0       0       0       0       0       0       0
       0       0       0       0       0       0       0       0       0       0
       0       0       0       0       0       0       0       0       0       0
       0       0       0       0       0       0       0       0       0       0
       0       0       0       0       0       0       0       0       0       0
       0       0       0       0       0       0       0       0       0       0
       0       0       0       0       0       0       0       0       0       0
       0       0       0       0       0       0       0       0       0       0
       0       0       0       0       0       0       0       0       0       0
       0       0       0       0       0       0       0       0       0       0
       0       0       0       0       0       0       0       0       0       0
       0       0       0       0       0       0       0       0       0       0
       0       0       0       0       0       0       0       0       0       0
       0       0       0       0       0       0       0       0       0       0
       0       0       0       0       0       0       0       0       0       0
       0       0       0       0       0       0       0       0       0       0
       0       0       0       0       0       0       0       0       0       0
       0       0       0       0       0       0       0       0       0       0
       0       0       0       0       0       0       0       0       0       0
       0       0       0       0       0       0       0       0       0       0
       0       0       0       0       0       0       0       0       0       0
       0       0       0       0       0       0       0       0       0       0
       0       0       0       0       0       0       0       0       0       0
       0       0       0       0       0       0       0       0       0       0
       0       0       0       0       0       0       0       0       0       0
       0       0       0       0       0       0       0       0       0       0
       0       0       0       0       0       0       0       0       0       0
       0       0       0       0       0       0       0       0       0       0
       0       0       0       0       0       0       0       0       0       0
       0       0       0       0       0       0       0       0       0       0
       0       0       0       0       0       0       0       0       0       0
       0       0       0       0       0       0       0       0       0       0
       0       0       0       0       0       0       0       0       0       0
       0       0       0       0       0       0       0       0       0       0
       0       0       0       0       0       0       0       0       0       0
       0       0       0       0       0       0       0       0       0       0
       0       0       0       0       0       0       0       0       0       0
       0       0       0       0       0       0       0       0       0       0
       0       0       0       0       0       0       0       0       0       0
       0       0       0       0       0       0       0       0       0       0
       0       0       0       0       0       0       0       0       0       0
       0       0       0       0       0       0       0       0       0       0
       0       0       0       0       0       0       0       0       0       0
       0       0       0       0       0       0       0       0       0       0
       0       0       0       0       0       0       0       0       0       0
       0       0       0       0       0       0       0       0       0       0
       0       0       0       0       0       0       0       0       0       0
       0       0       0       0       0       0       0       0       0       0
       0       0       0       0       0       0       0       0       0       0
       0       0       0       0       0       0       0       0       0       0
       0       0       0       0       0       0       0       0       0       0
       0       0       0       0       0       0       0       0       0       0
       0       0       0       0       0       0       0       0       0       0
       0       0       0       0       0       0       0       0       0       0
       0       0       0       0       0       0       0       0       0       0
       0       0       0       0       0       0       0       0       0       0
       0       0       0       0       0       0       0       0       0       0
       0       0       0       0       0       0       0       0       0       0
       0       0       0       0       0       0       0       0       0       0
       0       0       0       0       0       0       0       0       0       0
       0       0       0       0       0       0       0       0       0       0
       0       0       0       0       0       0       0       0       0       0
       0       0       0       0       0       0       0       0       0       0
       0       0       0       0       0       0       0       0       0       0
       0       0       0       0       0       0       0       0       0       0
       0       0       0       0       0       0       0       0       0       0
       0       0       0       0       0       0       0       0       0       0
       0       0       0       0       0       0       0       0       0       0
       0       0       0       0       0       0       0       0       0       0
       0       0       0       0       0       0       0       0       0       0
       0       0       0       0       0       0       0       0       0       0
       0       0       0       0       0       0       0       0       0       0
       0       0       0       0       0       0       0       0       0       0
       0       0       0       0       0       0       0       0       0       0
       0       0       0       0       0       0       0       0       0       0
       0       0       0       0       0       0       0       0       0       0
       0       0       0       0       0       0       0       0       0       0
       0       0       0       0       0       0       0       0       0       0
       0       0       0       0       0       0       0       0       0       0
       0       0       0       0       0       0       0       0       0       0
       0       0       0       0       0       0       0       0       0       0
       0       0       0       0       0       0       0       0       0       0
       0       0       0       0       0       0       0       0       0       0
       0       0       0       0       0       0       0       0       0       0
       0       0       0       0       0       0       0       0       0       0
       0       0       0       0       0       0       0       0       0       0
       0       0       0       0       0       0       0       0       0       0
       0       0       0       0       0       0       0       0       0       0
       0       0       0       0       0       0       0       0       0       0
       0       0       0       0       0       0       0       0       0       0
       0       0       0       0       0       0       0       0       0       0
       0       0       0       0       0       0       0       0       0       0
       0       0       0       0       0       0       0       0       0       0
       0       0       0       0       0       0       0       0       0       0
       0       0       0       0       0       0       0       0       0       0
       0       0       0       0       0       0       0       0       0       0
       0       0       0       0       0       0       0       0       0       0
       0       0       0       0       0       0       0       0       0       0
       0       0       0       0       0       0       0       0       0       0
       0       0       0       0       0       0       0       0       0       0
       0       0       0       0       0       0       0       0       0       0
       0       0       0       0       0       0       0       0       0       0
       0       0       0       0       0       0       0       0       0       0
       0       0       0       0       0       0       0       0       0       0
       0       0       0       0       0       0       0       0       0       0
       0       0       0       0       0       0       0       0       0       0
       0       0       0       0       0       0       0       0       0       0
       0       0       0       0       0       0       0       0       0       0
       0       0       0       0       0       0       0       0       0       0
       0       0       0       0       0       0       0       0       0       0
       0       0       0       0       0       0       0       0       0       0
       0       0       0       0       0       0       0       0       0       0
       0       0       0       0       0       0       0       0       0       0
       0       0       0       0       0       0       0       0       0       0
       0       0       0       0       0       0       0       0       0       0
       0       0       0       0       0       0       0       0       0       0
       0       0       0       0       0       0       0       0       0       0
       0       0       0       0       0       0       0       0       0       0
       0       0       0       0       0       0       0       0       0       0
       0       0       0       0       0       0       0       0       0       0
       0       0       0       0       0       0       0       0       0       0
       0       0       0       0       0       0       0       0       0       0
       0       0       0       0       0       0       0       0       0       0
       0       0       0       0       0       0       0       0       0       0
       0       0       0       0       0       0       0       0       0       0
       0       0       0       0       0       0       0       0       0       0
       0       0       0       0       0       0       0       0       0       0
       0       0       0       0       0       0       0       0       0       0
       0       0       0       0       0       0       0       0       0       0
       0       0       0       0       0       0       0       0       0       0
       0       0       0       0       0       0       0       0       0       0
       0       0       0       0       0       0       0       0       0       0
       0       0       0       0       0       0       0       0       0       0
       0       0       0       0       0       0       0       0       0       0
       0       0       0       0       0       0       0       0       0       0
       0       0       0       0       0       0       0       0       0       0
       0       0       0       0       0       0       0       0       0       0
       0       0       0       0       0       0       0       0       0       0
       0       0       0       0       0       0       0       0       0       0
       0       0       0       0       0       0       0       0       0       0
       0       0       0       0       0       0       0       0       0       0
       0       0       0       0       0       0       0       0       0       0
       0       0       0       0       0       0       0       0       0       0
       0       0       0       0       0       0       0       0       0       0
       0       0       0       0       0       0       0       0       0       0
       0       0       0       0       0       0       0       0       0       0
       0       0       0       0       0       0       0       0       0       0
       0       0       0       0       0       0       0       0       0       0
       0       0       0       0       0       0       0       0       0       0
       0       0       0       0       0       0       0       0       0       0
       0       0       0       0       0       0       0       0       0       0
       0       0       0       0       0       0       0       0       0       0
       0       0       0       0       0       0       0       0       0       0
       0       0       0       0       0       0       0       0       0       0
       0       0       0       0       0       0       0       0       0       0
       0       0       0       0       0       0       0       0       0       0
       0       0       0       0       0       0       0       0       0       0
       0       0       0       0       0       0       0       0       0       0
       0       0       0       0       0       0       0       0       0       0
       0       0       0       0       0       0       0       0       0       0
       0       0       0       0       0       0       0       0       0       0
       0       0       0       0       0       0       0       0       0       0
       0       0       0       0       0       0       0       0       0       0
       0       0       0       0       0       0       0       0       0       0
       0       0       0       0       0       0       0       0       0       0
       0       0       0       0       0       0       0       0       0       0
       0       0       0       0       0       0       0       0       0       0
       0       0       0       0       0       0       0       0       0       0
       0       0       0       0       0       0       0       0       0       0
       0       0       0       0       0       0       0       0       0       0
       0       0       0       0       0       0       0       0       0       0
       0       0       0       0       0       0       0       0       0       0
       0       0       0       0       0       0       0       0       0       0
       0       0       0       0       0       0       0       0       0       0
       0       0       0       0       0       0       0       0       0       0
       0       0       0       0       0       0       0       0       0       0
       0       0       0       0       0       0       0       0       0       0
       0       0       0       0       0       0       0       0       0       0
       0       0       0       0       0       0       0       0       0       0
       0       0       0       0       0       0       0       0       0       0
       0       0       0       0       0       0       0       0       0       0
       0       0       0       0       0       0       0       0       0       0
       0       0       0       0       0       0       0       0       0       0
       0       0       0       0       0       0       0       0       0       0
       0       0       0       0       0       0       0       0       0       0
       0       0       0       0       0       0       0       0       0       0
       0       0       0       0       0       0       0       0       0       0
       0       0       0       0       0       0       0       0       0       0
       0       0       0       0       0       0       0       0       0       0
       0       0       0       0       0       0       0       0       0       0
       0       0       0       0       0       0       0       0       0       0
       0       0       0       0       0       0       0       0       0       0
       0       0       0       0       0       0       0       0       0       0
       0       0       0       0       0       0       0       0       0       0
       0       0       0       0       0       0       0       0       0       0
       0       0       0       0       0       0       0       0       0       0
       0       0       0       0       0       0       0       0       0       0
       0       0       0       0       0       0       0       0       0       0
       0       0       0       0       0       0       0       0       0       0
       0       0       0       0       0       0       0       0       0       0
       0       0       0       0       0       0       0       0       0       0
       0       0       0       0       0       0       0       0       0       0
       0       0       0       0       0       0       0       0       0       0
       0       0       0       0       0       0       0       0       0       0
       0       0       0       0       0       0       0       0       0       0
       0       0       0       0       0       0       0       0       0       0
       0       0       0       0       0       0       0       0       0       0
       0       0       0       0       0       0       0       0       0       0
       0       0       0       0       0       0       0       0       0       0
       0       0       0       0       0       0       0       0       0       0
       0       0       0       0       0       0       0       0       0       0
       0       0       0       0       0       0       0       0       0       0
       0       0       0       0       0       0       0       0       0       0
       0       0       0       0       0       0       0       0       0       0
       0       0       0       0       0       0       0       0       0       0
       0       0       0       0       0       0       0       0       0       0
       0       0       0       0       0       0       0       0       0       0
       0       0       0       0       0       0       0       0       0       0
       0       0       0       0       0       0       0       0       0       0
       0       0       0       0       0       0       0       0       0       0
       0       0       0       0       0       0       0       0       0       0
       0       0       0       0       0       0       0       0       0       0
       0       0       0       0       0       0       0       0       0       0
       0       0       0       0       0       0       0       0       0       0
       0       0       0       0       0       0       0       0       0       0
       0       0       0       0       0       0       0       0       0       0
       0       0       0       0       0       0       0       0       0       0
       0       0       0       0       0       0       0       0       0       0
       0       0       0       0       0       0       0       0       0       0
       0       0       0       0       0       0       0       0       0       0
       0       0       0       0       0       0       0       0       0       0
       0       0       0       0       0       0       0       0       0       0
       0       0       0       0       0       0       0       0       0       0
       0       0       0       0       0       0       0       0       0       0
       0       0       0       0       0       0       0       0       0       0
       0       0       0       0       0       0       0       0       0       0
       0       0       0       0       0       0       0       0       0       0
       0       0       0       0       0       0       0       0       0       0
       0       0       0       0       0       0       0       0       0       0
       0       0       0       0       0       0       0       0       0       0
       0       0       0       0       0       0       0       0       0       0
       0       0       0       0       0       0       0       0       0       0
       0       0       0       0       0       0       0       0       0       0
       0       0       0       0       0       0       0       0       0       0
       0       0       0       0       0       0       0       0       0       0
       0       0       0       0       0       0       0       0       0       0
       0       0       0       0       0       0       0       0       0       0
       0       0       0       0       0       0       0       0       0       0
       0       0       0       0       0       0       0       0       0       0
       0       0       0       0       0       0       0       0       0       0
       0       0       0       0       0       0       0       0       0       0
       0       0       0       0       0       0       0       0       0       0
       0       0       0       0       0       0       0       0       0       0
       0       0       0       0       0       0       0       0       0       0
       0       0       0       0       0       0       0       0       0       0
       0       0       0       0       0       0       0       0       0       0
       0       0       0       0       0       0       0       0       0       0
       0       0       0       0       0       0       0       0       0       0
       0       0       0       0       0       0       0       0       0       0
       0       0       0       0       0       0       0       0       0       0
       0       0       0       0       0       0       0       0       0       0
       0       0       0       0       0       0       0       0       0       0
       0       0       0       0       0       0       0       0       0       0
       0       0       0       0       0       0       0       0       0       0
       0       0       0       0       0       0       0       0       0       0
       0       0       0       0       0       0       0       0       0       0
       0       0       0       0       0       0       0       0       0       0
       0       0       0       0       0       0       0       0       0       0
       0       0       0       0       0       0       0       0       0       0
       0       0       0       0       0       0       0       0       0       0
       0       0       0       0       0       0       0       0       0       0
       0       0       0       0       0       0       0       0       0       0
       0       0       0       0       0       0       0       0       0       0
       0       0       0       0       0       0       0       0       0       0
       0       0       0       0       0       0       0       0       0       0
       0       0       0       0       0       0       0       0       0       0
       0       0       0       0       0       0       0       0       0       0
       0       0       0       0       0       0       0       0       0       0
       0       0       0       0       0       0       0       0       0       0
       0       0       0       0       0       0       0       0       0       0
       0       0       0       0       0       0       0       0       0       0
       0       0       0       0       0       0       0       0       0       0
       0       0       0       0       0       0       0       0       0       0
       0       0       0       0       0       0       0       0       0       0
       0       0       0       0       0       0       0       0       0       0
       0       0       0       0       0       0       0       0       0       0
       0       0       0       0       0       0       0       0       0       0
       0       0       0       0       0       0       0       0       0       0
       0       0       0       0       0       0       0       0       0       0
       0       0       0       0       0       0       0       0       0       0
       0       0       0       0       0       0       0       0       0       0
       0       0       0       0       0       0       0       0       0       0
       0       0       0       0       0       0       0       0       0       0
       0       0       0       0       0       0       0       0       0       0
       0       0       0       0       0       0       0       0       0       0
       0       0       0       0       0       0       0       0       0       0
       0       0       0       0       0       0       0       0       0       0
       0       0       0       0       0       0       0       0       0       0
       0       0       0       0       0       0       0       0       0       0
       0       0       0       0       0       0       0       0       0       0
       0       0       0       0       0       0       0       0       0       0
       0       0       0       0       0       0       0       0       0       0
       0       0       0       0       0       0       0       0       0       0
       0       0       0       0       0       0       0       0       0       0
       0       0       0       0       0       0       0       0       0       0
       0       0       0       0       0       0       0       0       0       0
       0       0       0       0       0       0       0       0       0       0
       0       0       0       0       0       0       0       0       0       0
       0       0       0       0       0       0       0       0       0       0
       0       0       0       0       0       0       0       0       0       0
       0       0       0       0       0       0       0       0       0       0
       0       0       0       0       0       0       0       0       0       0
       0       0       0       0       0       0       0       0       0       0
       0       0       0       0       0       0       0       0       0       0
       0       0       0       0       0       0       0       0       0       0
       0       0       0       0       0       0       0       0       0       0
       0       0       0       0       0       0       0       0       0       0
       0       0       0       0       0       0       0       0       0       0
       0       0       0       0       0       0       0       0       0       0
       0       0       0       0       0       0       0       0       0       0
       0       0       0       0       0       0       0       0       0       0
       0       0       0       0       0       0       0       0       0       0
       0       0       0       0       0       0       0       0       0       0
       0       0       0       0       0       0       0       0       0       0
       0       0       0       0       0       0       0       0       0       0
       0       0       0       0       0       0       0       0       0       0
       0       0       0       0       0       0       0       0       0       0
       0       0       0       0       0       0       0       0       0       0
       0       0       0       0       0       0       0       0       0       0
       0       0       0       0       0       0       0       0       0       0
       0       0       0       0       0       0       0       0       0       0
       0       0       0       0       0       0       0       0       0       0
       0       0       0       0       0       0       0       0       0       0
       0       0       0       0       0       0       0       0       0       0
       0       0       0       0       0       0       0       0       0       0
       0       0       0       0       0       0       0       0       0       0
       0       0       0       0       0       0       0       0       0       0
       0       0       0       0       0       0       0       0       0       0
       0       0       0       0       0       0       0       0       0       0
       0       0       0       0       0       0       0       0       0       0
       0       0       0       0       0       0       0       0       0       0
       0       0       0       0       0       0       0       0       0       0
       0       0       0       0       0       0       0       0       0       0
       0       0       0       0       0       0       0       0       0       0
       0       0       0       0       0       0       0       0       0       0
       0       0       0       0       0       0       0       0       0       0
       0       0       0       0       0       0       0       0       0       0
       0       0       0       0       0       0       0       0       0       0
       0       0       0       0       0       0       0       0       0       0
       0       0       0       0       0       0       0       0       0       0
       0       0       0       0       0       0       0       0       0       0
       0       0       0       0       0       0       0       0       0       0
       0       0       0       0       0       0       0       0       0       0
       0       0       0       0       0       0       0       0       0       0
       0       0       0       0       0       0       0       0       0       0
       0       0       0       0       0       0       0       0       0       0
       0       0       0       0       0       0       0       0       0       0
       0       0       0       0       0       0       0       0       0       0
       0       0       0       0       0       0       0       0       0       0
       0       0       0       0       0       0       0       0       0       0
       0       0       0       0       0       0       0       0       0       0
       0       0       0       0       0       0       0       0       0       0
       0       0       0       0       0       0       0       0       0       0
       0       0       0       0       0       0       0       0       0       0
       0       0       0       0       0       0       0       0       0       0
       0       0       0       0       0       0       0       0       0       0
       0       0       0       0       0       0       0       0       0       0
       0       0       0       0       0       0       0       0       0       0
       0       0       0       0       0       0       0       0       0       0
       0       0       0       0       0       0       0       0       0       0
       0       0       0       0       0       0       0       0       0       0
       0       0       0       0       0       0       0       0       0       0
       0       0       0       0       0       0       0       0       0       0
       0       0       0       0       0       0       0       0       0       0
       0       0       0       0       0       0       0       0       0       0
       0       0       0       0       0       0       0       0       0       0
       0       0       0       0       0       0       0       0       0       0
       0       0       0       0       0       0       0       0       0       0
       0       0       0       0       0       0       0       0       0       0
       0       0       0       0       0       0       0       0       0       0
       0       0       0       0       0       0       0       0       0       0
       0       0       0       0       0       0       0       0       0       0
       0       0       0       0       0       0       0       0       0       0
       0       0       0       0       0       0       0       0       0       0
       0       0       0       0       0       0       0       0       0       0
       0       0       0       0       0       0       0       0       0       0
       0       0       0       0       0       0       0       0       0       0
       0       0       0       0       0       0       0       0       0       0
       0       0       0       0       0       0       0       0       0       0
       0       0       0       0       0       0       0       0       0       0
       0       0       0       0       0       0       0       0       0       0
       0       0       0       0       0       0       0       0       0       0
       0       0       0       0       0       0       0       0       0       0
       0       0       0       0       0       0       0       0       0       0
       0       0       0       0       0       0       0       0       0       0
       0       0       0       0       0       0       0       0       0       0
       0       0       0       0       0       0       0       0       0       0
       0       0       0       0       0       0       0       0       0       0
       0       0       0       0       0       0       0       0       0       0
       0       0       0       0       0       0       0       0       0       0
       0       0       0       0       0       0       0       0       0       0
       0       0       0       0       0       0       0       0       0       0
       0       0       0       0       0       0       0       0       0       0
       0       0       0       0       0       0       0       0       0       0
       0       0       0       0       0       0       0       0       0       0
       0       0       0       0       0       0       0       0       0       0
       0       0       0       0       0       0       0       0       0       0
       0       0       0       0       0       0       0       0       0       0
       0       0       0       0       0       0       0       0       0       0
       0       0       0       0       0       0       0       0       0       0
       0       0       0       0       0       0       0       0       0       0
       0       0       0       0       0       0       0       0       0       0
       0       0       0       0       0       0       0       0       0       0
       0       0       0       0       0       0       0       0       0       0
       0       0       0       0       0       0       0       0       0       0
       0       0       0       0       0       0       0       0       0       0
       0       0       0       0       0       0       0       0       0       0
       0       0       0       0       0       0       0       0       0       0
       0       0       0       0       0       0       0       0       0       0
       0       0       0       0       0       0       0       0       0       0
       0       0       0       0       0       0       0       0       0       0
       0       0       0       0       0       0       0       0       0       0
       0       0       0       0       0       0       0       0       0       0
       0       0       0       0       0       0       0       0       0       0
       0       0       0       0       0       0       0       0       0       0
       0       0       0       0       0       0       0       0       0       0
       0       0       0       0       0       0       0       0       0       0
       0       0       0       0       0       0       0       0       0       0
       0       0       0       0       0       0       0       0       0       0
       0       0       0       0       0       0       0       0       0       0
       0       0       0       0       0       0       0       0       0       0
       0       0       0       0       0       0       0       0       0       0
       0       0       0       0       0       0       0       0       0       0
       0       0       0       0       0       0       0       0       0       0
       0       0       0       0       0       0       0       0       0       0
       0       0       0       0       0       0       0       0       0       0
       0       0       0       0       0       0       0       0       0       0
       0       0       0       0       0       0       0       0       0       0
       0       0       0       0       0       0       0       0       0       0
       0       0       0       0       0       0       0       0       0       0
       0       0       0       0       0       0       0       0       0       0
       0       0       0       0       0       0       0       0       0       0
       0       0       0       0       0       0       0       0       0       0
       0       0       0       0       0       0       0       0       0       0
       0       0       0       0       0       0       0       0       0       0
       0       0       0       0       0       0       0       0       0       0
       0       0       0       0       0       0       0       0       0       0
       0       0       0       0       0       0       0       0       0       0
       0       0       0       0       0       0       0       0       0       0
       0       0       0       0       0       0       0       0       0       0
       0       0       0       0       0       0       0       0       0       0
       0       0       0       0       0       0       0       0       0       0
       0       0       0       0       0       0       0       0       0       0
       0       0       0       0       0       0       0       0       0       0
       0       0       0       0       0       0       0       0       0       0
       0       0       0       0       0       0       0       0       0       0
       0       0       0       0       0       0       0       0       0       0
       0       0       0       0       0       0       0       0       0       0
       0       0       0       0       0       0       0       0       0       0
       0       0       0       0       0       0       0       0       0       0
       0       0       0       0       0       0       0       0       0       0
       0       0       0       0       0       0       0       0       0       0
       0       0       0       0       0       0       0       0       0       0
       0       0       0       0       0       0       0       0       0       0
       0       0       0       0       0       0       0       0       0       0
       0       0       0       0       0       0       0       0       0       0
       0       0       0       0       0       0       0       0       0       0
       0       0       0       0       0       0       0       0       0       0
       0       0       0       0       0       0       0       0       0       0
       0       0       0       0       0       0       0       0       0       0
       0       0       0       0       0       0       0       0       0       0
       0       0       0       0       0       0       0       0       0       0
       0       0       0       0       0       0       0       0       0       0
       0       0       0       0       0       0       0       0       0       0
       0       0       0       0       0       0       0       0       0       0
       0       0       0       0       0       0       0       0       0       0
       0       0       0       0       0       0       0       0       0       0
       0       0       0       0       0       0       0       0       0       0
       0       0       0       0       0       0       0       0       0       0
       0       0       0       0       0       0       0       0       0       0
       0       0       0       0       0       0       0       0       0       0
       0       0       0       0       0       0       0       0       0       0
       0       0       0       0       0       0       0       0       0       0
       0       0       0       0       0       0       0       0       0       0
       0       0       0       0       0       0       0       0       0       0
       0       0       0       0       0       0       0       0       0       0
       0       0       0       0       0       0       0       0       0       0
       0       0       0       0       0       0       0       0       0       0
       0       0       0       0       0       0       0       0       0       0
       0       0       0       0       0       0       0       0       0       0
       0       0       0       0       0       0       0       0       0       0
       0       0       0       0       0       0       0       0       0       0
       0       0       0       0       0       0       0       0       0       0
       0       0       0       0       0       0       0       0       0       0
       0       0       0       0       0       0       0       0       0       0
       0       0       0       0       0       0       0       0       0       0
       0       0       0       0       0       0       0       0       0       0
       0       0       0       0       0       0       0       0       0       0
       0       0       0       0       0       0       0       0       0       0
       0       0       0       0       0       0       0       0       0       0
       0       0       0       0       0       0       0       0       0       0
       0       0       0       0       0       0       0       0       0       0
       0       0       0       0       0       0       0       0       0       0
       0       0       0       0       0       0       0       0       0       0
       0       0       0       0       0       0       0       0       0       0
       0       0       0       0       0       0       0       0       0       0
       0       0       0       0       0       0       0       0       0       0
       0       0       0       0       0       0       0       0       0       0
       0       0       0       0       0       0       0       0       0       0
       0       0       0       0       0       0       0       0       0       0
       0       0       0       0       0       0       0       0       0       0
       0       0       0       0       0       0       0       0       0       0
       0       0       0       0       0       0       0       0       0       0
       0       0       0       0       0       0       0       0       0       0
       0       0       0       0       0       0       0       0       0       0
       0       0       0       0       0       0       0       0       0       0
       0       0       0       0       0       0       0       0       0       0
       0       0       0       0       0       0       0       0       0       0
       0       0       0       0       0       0       0       0       0       0
       0       0       0       0       0       0       0       0       0       0
       0       0       0       0       0       0       0       0       0       0
       0       0       0       0       0       0       0       0       0       0
       0       0       0       0       0       0       0       0       0       0
       0       0       0       0       0       0       0       0       0       0
       0       0       0       0       0       0       0       0       0       0
       0       0       0       0       0       0       0       0       0       0
       0       0       0       0       0       0       0       0       0       0
       0       0       0       0       0       0       0       0       0       0
       0       0       0       0       0       0       0       0       0       0
       0       0       0       0       0       0       0       0       0       0
       0       0       0       0       0       0       0       0       0       0
       0       0       0       0       0       0       0       0       0       0
       0       0       0       0       0       0       0       0       0       0
       0       0       0       0       0       0       0       0       0       0
       0       0       0       0       0       0       0       0       0       0
       0       0       0       0       0       0       0       0       0       0
       0       0       0       0       0       0       0       0       0       0
       0       0       0       0       0       0       0       0       0       0
       0       0       0       0       0       0       0       0       0       0
       0       0       0       0       0       0       0       0       0       0
       0       0       0       0       0       0       0       0       0       0
       0       0       0       0       0       0       0       0       0       0
       0       0       0       0       0       0       0       0       0       0
       0       0       0       0       0       0       0       0       0       0
       0       0       0       0       0       0       0       0       0       0
       0       0       0       0       0       0       0       0       0       0
       0       0       0       0       0       0       0       0       0       0
       0       0       0       0       0       0       0       0       0       0
       0       0       0       0       0       0       0       0       0       0
       0       0       0       0       0       0       0       0       0       0
       0       0       0       0       0       0       0       0       0       0
       0       0       0       0       0       0       0       0       0       0
       0       0       0       0       0       0       0       0       0       0
       0       0       0       0       0       0       0       0       0       0
       0       0       0       0       0       0       0       0       0       0
       0       0       0       0       0       0       0       0       0       0
       0       0       0       0       0       0       0       0       0       0
       0       0       0       0       0       0       0       0       0       0
       0       0       0       0       0       0       0       0       0       0
       0       0       0       0       0       0       0       0       0       0
       0       0       0       0       0       0       0       0       0       0
       0       0       0       0       0       0       0       0       0       0
       0       0       0       0       0       0       0       0       0       0
       0       0       0       0       0       0       0       0       0       0
       0       0       0       0       0       0       0       0       0       0
       0       0       0       0       0       0       0       0       0       0
       0       0       0       0       0       0       0       0       0       0
       0       0       0       0       0       0       0       0       0       0
       0       0       0       0       0       0       0       0       0       0
       0       0       0       0       0       0       0       0       0       0
       0       0       0       0       0       0       0       0       0       0
       0       0       0       0       0       0       0       0       0       0
       0       0       0       0       0       0       0       0       0       0
       0       0       0       0       0       0       0       0       0       0
       0       0       0       0       0       0       0       0       0       0
       0       0       0       0       0       0       0       0       0       0
       0       0       0       0       0       0       0       0       0       0
       0       0       0       0       0       0       0       0       0       0
       0       0       0       0       0       0       0       0       0       0
       0       0       0       0       0       0       0       0       0       0
       0       0       0       0       0       0       0       0       0       0
       0       0       0       0       0       0       0       0       0       0
       0       0       0       0       0       0       0       0       0       0
       0       0       0       0       0       0       0       0       0       0
       0       0       0       0       0       0       0       0       0       0
       0       0       0       0       0       0       0       0       0       0
       0       0       0       0       0       0       0       0       0       0
       0       0       0       0       0       0       0       0       0       0
       0       0       0       0       0       0       0       0       0       0
       0       0       0       0       0       0       0       0       0       0
       0       0       0       0       0       0       0       0       0       0
       0       0       0       0       0       0       0       0       0       0
       0       0       0       0       0       0       0       0       0       0
       0       0       0       0       0       0       0       0       0       0
       0       0       0       0       0       0       0       0       0       0
       0       0       0       0       0       0       0       0       0       0
       0       0       0       0       0       0       0       0       0       0
       0       0       0       0       0       0       0       0       0       0
       0       0       0       0       0       0       0       0       0       0
       0       0       0       0       0       0       0       0       0       0
       0       0       0       0       0       0       0       0       0       0
       0       0       0       0       0       0       0       0       0       0
       0       0       0       0       0       0       0       0       0       0
       0       0       0       0       0       0       0       0       0       0
       0       0       0       0       0       0       0       0       0       0
       0       0       0       0       0       0       0       0       0       0
       0       0       0       0       0       0       0       0       0       0
       0       0       0       0       0       0       0       0       0       0
       0       0       0       0       0       0       0       0       0       0
       0       0       0       0       0       0       0       0       0       0
       0       0       0       0       0       0       0       0       0       0
       0       0       0       0       0       0       0       0       0       0
       0       0       0       0       0       0       0       0       0       0
       0       0       0       0       0       0       0       0       0       0
       0       0       0       0       0       0       0       0       0       0
       0       0       0       0       0       0       0       0       0       0
       0       0       0       0       0       0       0       0       0       0
       0       0       0       0       0       0       0       0       0       0
       0       0       0       0       0       0       0       0       0       0
       0       0       0       0       0       0       0       0       0       0
       0       0       0       0       0       0       0       0       0       0
       0       0       0       0       0       0       0       0       0       0
       0       0       0       0       0       0       0       0       0       0
       0       0       0       0       0       0       0       0       0       0
       0       0       0       0       0       0       0       0       0       0
       0       0       0       0       0       0       0       0       0       0
       0       0       0       0       0       0       0       0       0       0
       0       0       0       0       0       0       0       0       0       0
       0       0       0       0       0       0       0       0       0       0
       0       0       0       0       0       0       0       0       0       0
       0       0       0       0       0       0       0       0       0       0
       0       0       0       0       0       0       0       0       0       0
       0       0       0       0       0       0       0       0       0       0
       0       0       0       0       0       0       0       0       0       0
       0       0       0       0       0       0       0       0       0       0
       0       0       0       0       0       0       0       0       0       0
       0       0       0       0       0       0       0       0       0       0
       0       0       0       0       0       0       0       0       0       0
       0       0       0       0       0       0       0       0       0       0
       0       0       0       0       0       0       0       0       0       0
       0       0       0       0       0       0       0       0       0       0
       0       0       0       0       0       0       0       0       0       0
       0       0       0       0       0       0       0       0       0       0
       0       0       0       0       0       0       0       0       0       0
       0       0       0       0       0       0       0       0       0       0
       0       0       0       0       0       0       0       0       0       0
       0       0       0       0       0       0       0       0       0       0
       0       0       0       0       0       0       0       0       0       0
       0       0       0       0       0       0       0       0       0       0
       0       0       0       0       0       0       0       0       0       0
       0       0       0       0       0       0       0       0       0       0
       0       0       0       0       0       0       0       0       0       0
       0       0       0       0       0       0       0       0       0       0
       0       0       0       0       0       0       0       0       0       0
       0       0       0       0       0       0       0       0       0       0
       0       0       0       0       0       0       0       0       0       0
       0       0       0       0       0       0       0       0       0       0
       0       0       0       0       0       0       0       0       0       0
       0       0       0       0       0       0       0       0       0       0
       0       0       0       0       0       0       0       0       0       0
       0       0       0       0       0       0       0       0       0       0
       0       0       0       0       0       0       0       0       0       0
       0       0       0       0       0       0       0       0       0       0
       0       0       0       0       0       0       0       0       0       0
       0       0       0       0       0       0       0       0       0       0
       0       0       0       0       0       0       0       0       0       0
       0       0       0       0       0       0       0       0       0       0
       0       0       0       0       0       0       0       0       0       0
       0       0       0       0       0       0       0       0       0       0
       0       0       0       0       0       0       0       0       0       0
       0       0       0       0       0       0       0       0       0       0
       0       0       0       0       0       0       0       0       0       0
       0       0       0       0       0       0       0       0       0       0
       0       0       0       0       0       0       0       0       0       0
       0       0       0       0       0       0       0       0       0       0
       0       0       0       0       0       0       0       0       0       0
       0       0       0       0       0       0       0       0       0       0
       0       0       0       0       0       0       0       0       0       0
       0       0       0       0       0       0       0       0       0       0
       0       0       0       0       0       0       0       0       0       0
       0       0       0       0       0       0       0       0       0       0
       0       0       0       0       0       0       0       0       0       0
       0       0       0       0       0       0       0       0       0       0
       0       0       0       0       0       0       0       0       0       0
       0       0       0       0       0       0       0       0       0       0
       0       0       0       0       0       0       0       0       0       0
       0       0       0       0       0       0       0       0       0       0
       0       0       0       0       0       0       0       0       0       0
       0       0       0       0       0       0       0       0       0       0
       0       0       0       0       0       0       0       0       0       0
       0       0       0       0       0       0       0       0       0       0
       0       0       0       0       0       0       0       0       0       0
       0       0       0       0       0       0       0       0       0       0
       0       0       0       0       0       0       0       0       0       0
       0       0       0       0       0       0       0       0       0       0
       0       0       0       0       0       0       0       0       0       0
       0       0       0       0       0       0       0       0       0       0
       0       0       0       0       0       0       0       0       0       0
       0       0       0       0       0       0       0       0       0       0
       0       0       0       0       0       0       0       0       0       0
       0       0       0       0       0       0       0       0       0       0
       0       0       0       0       0       0       0       0       0       0
       0       0       0       0       0       0       0       0       0       0
       0       0       0       0       0       0       0       0       0       0
       0       0       0       0       0       0       0       0       0       0
       0       0       0       0       0       0       0       0       0       0
       0       0       0       0       0       0       0       0       0       0
       0       0       0       0       0       0       0       0       0       0
       0       0       0       0       0       0       0       0       0       0
       0       0       0       0       0       0       0       0       0       0
       0       0       0       0       0       0       0       0       0       0
       0       0       0       0       0       0       0       0       0       0
       0       0       0       0       0       0       0       0       0       0
       0       0       0       0       0       0       0       0       0       0
       0       0       0       0       0       0       0       0       0       0
       0       0       0       0       0       0       0       0       0       0
       0       0       0       0       0       0       0       0       0       0
       0       0       0       0       0       0       0       0       0       0
       0       0       0       0       0       0       0       0       0       0
       0       0       0       0       0       0       0       0       0       0
       0       0       0       0       0       0       0       0       0       0
       0       0       0       0       0       0       0       0       0       0
       0       0       0       0       0       0       0       0       0       0
       0       0       0       0       0       0       0       0       0       0
       0       0       0       0       0       0       0       0       0       0
       0       0       0       0       0       0       0       0       0       0
       0       0       0       0       0       0       0       0       0       0
       0       0       0       0       0       0       0       0       0       0
       0       0       0       0       0       0       0       0       0       0
       0       0       0       0       0       0       0       0       0       0
       0       0       0       0       0       0       0       0       0       0
       0       0       0       0       0       0       0       0       0       0
       0       0       0       0       0       0       0       0       0       0
       0       0       0       0       0       0       0       0       0       0
       0       0       0       0       0       0       0       0       0       0
       0       0       0       0       0       0       0       0       0       0
       0       0       0       0       0       0       0       0       0       0
       0       0       0       0       0       0       0       0       0       0
       0       0       0       0       0       0       0       0       0       0
       0       0       0       0       0       0       0       0       0       0
       0       0       0       0       0       0       0       0       0       0
       0       0       0       0       0       0       0       0       0       0
       0       0       0       0       0       0       0       0       0       0
       0       0       0       0       0       0       0       0       0       0
       0       0       0       0       0       0       0       0       0       0
       0       0       0       0       0       0       0       0       0       0
       0       0       0       0       0       0       0       0       0       0
       0       0       0       0       0       0       0       0       0       0
       0       0       0       0       0       0       0       0       0       0
       0       0       0       0       0       0       0       0       0       0
       0       0       0       0       0       0       0       0       0       0
       0       0       0       0       0       0       0       0       0       0
       0       0       0       0       0       0       0       0       0       0
       0       0       0       0       0       0       0       0       0       0
       0       0       0       0       0       0       0       0       0       0
       0       0       0       0       0       0       0       0       0       0
       0       0       0       0       0       0       0       0       0       0
       0       0       0       0       0       0       0       0       0       0
       0       0       0       0       0       0       0       0       0       0
       0       0       0       0       0       0       0       0       0       0
       0       0       0       0       0       0       0       0       0       0
       0       0       0       0       0       0       0       0       0       0
       0       0       0       0       0       0       0       0       0       0
       0       0       0       0       0       0       0       0       0       0
       0       0       0       0       0       0       0       0       0       0
       0       0       0       0       0       0       0       0       0       0
       0       0       0       0       0       0       0       0       0       0
       0       0       0       0       0       0       0       0       0       0
       0       0       0       0       0       0       0       0       0       0
       0       0       0       0       0       0       0       0       0       0
       0       0       0       0       0       0       0       0       0       0
       0       0       0       0       0       0       0       0       0       0
       0       0       0       0       0       0       0       0       0       0
       0       0       0       0       0       0       0       0       0       0
       0       0       0       0       0       0       0       0       0       0
       0       0       0       0       0       0       0       0       0       0
       0       0       0       0       0       0       0       0       0       0
       0       0       0       0       0       0       0       0       0       0
       0       0       0       0       0       0       0       0       0       0
       0       0       0       0       0       0       0       0       0       0
       0       0       0       0       0       0       0       0       0       0
       0       0       0       0       0       0       0       0       0       0
       0       0       0       0       0       0       0       0       0       0
       0       0       0       0       0       0       0       0       0       0
       0       0       0       0       0       0       0       0       0       0
       0       0       0       0       0       0       0       0       0       0
       0       0       0       0       0       0       0       0       0       0
       0       0       0       0       0       0       0       0       0       0
       0       0       0       0       0       0       0       0       0       0
       0       0       0       0       0       0       0       0       0       0
       0       0       0       0       0       0       0       0       0       0
       0       0       0       0       0       0       0       0       0       0
       0       0       0       0       0       0       0       0       0       0
       0       0       0       0       0       0       0       0       0       0
       0       0       0       0       0       0       0       0       0       0
       0       0       0       0       0       0       0       0       0       0
       0       0       0       0       0       0       0       0       0       0
       0       0       0       0       0       0       0       0       0       0
       0       0       0       0       0       0       0       0       0       0
       0       0       0       0       0       0       0       0       0       0
       0       0       0       0       0       0       0       0       0       0
       0       0       0       0       0       0       0       0       0       0
       0       0       0       0       0       0       0       0       0       0
       0       0       0       0       0       0       0       0       0       0
       0       0       0       0       0       0       0       0       0       0
       0       0       0       0       0       0       0       0       0       0
       0       0       0       0       0       0       0       0       0       0
       0       0       0       0       0       0       0       0       0       0
       0       0       0       0       0       0       0       0       0       0
       0       0       0       0       0       0       0       0       0       0
       0       0       0       0       0       0       0       0       0       0
       0       0       0       0       0       0       0       0       0       0
       0       0       0       0       0       0       0       0       0       0
       0       0       0       0       0       0       0       0       0       0
       0       0       0       0       0       0       0       0       0       0
       0       0       0       0       0       0       0       0       0       0
       0       0       0       0       0       0       0       0       0       0
       0       0       0       0       0       0       0       0       0       0
       0       0       0       0       0       0       0       0       0       0
       0       0       0       0       0       0       0       0       0       0
       0       0       0       0       0       0       0       0       0       0
       0       0       0       0       0       0       0       0       0       0
       0       0       0       0       0       0       0       0       0       0
       0       0       0       0       0       0       0       0       0       0
       0       0       0       0       0       0       0       0       0       0
       0       0       0       0       0       0       0       0       0       0
       0       0       0       0       0       0       0       0       0       0
       0       0       0       0       0       0       0       0       0       0
       0       0       0       0       0       0       0       0       0       0
       0       0       0       0       0       0       0       0       0       0
       0       0       0       0       0       0       0       0       0       0
       0       0       0       0       0       0       0       0       0       0
       0       0       0       0       0       0       0       0       0       0
       0       0       0       0       0       0       0       0       0       0
       0       0       0       0       0       0       0       0       0       0
       0       0       0       0       0       0       0       0       0       0
       0       0       0       0       0       0       0       0       0       0
       0       0       0       0       0       0       0       0       0       0
       0       0       0       0       0       0       0       0       0       0
       0       0       0       0       0       0       0       0       0       0
       0       0       0       0       0       0       0       0       0       0
       0       0       0       0       0       0       0       0       0       0
       0       0       0       0       0       0       0       0       0       0
       0       0       0       0       0       0       0       0       0       0
       0       0       0       0       0       0       0       0       0       0
       0       0       0       0       0       0       0       0       0       0
       0       0       0       0       0       0       0       0       0       0
       0       0       0       0       0       0       0       0       0       0
       0       0       0       0       0       0       0       0       0       0
       0       0       0       0       0       0       0       0       0       0
       0       0       0       0       0       0       0       0       0       0
       0       0       0       0       0       0       0       0       0       0
       0       0       0       0       0       0       0       0       0       0
       0       0       0       0       0       0       0       0       0       0
       0       0       0       0       0       0       0       0       0       0
       0       0       0       0       0       0       0       0       0       0
       0       0       0       0       0       0       0       0       0       0
       0       0       0       0       0       0       0       0       0       0
       0       0       0       0       0       0       0       0       0       0
       0       0       0       0       0       0       0       0       0       0
       0       0       0       0       0       0       0       0       0       0
       0       0       0       0       0       0       0       0       0       0
       0       0       0       0       0       0       0       0       0       0
       0       0       0       0       0       0       0       0       0       0
       0       0       0       0       0       0       0       0       0       0
       0       0       0       0       0       0       0       0       0       0
       0       0       0       0       0       0       0       0       0       0
       0       0       0       0       0       0       0       0       0       0
       0       0       0       0       0       0       0       0       0       0
       0       0       0       0       0       0       0       0       0       0
       0       0       0       0       0       0       0       0       0       0
       0       0       0       0       0       0       0       0       0       0
       0       0       0       0       0       0       0       0       0       0
       0       0       0       0       0       0       0       0       0       0
       0       0       0       0       0       0       0       0       0       0
       0       0       0       0       0       0       0       0       0       0
       0       0       0       0       0       0       0       0       0       0
       0       0       0       0       0       0       0       0       0       0
       0       0       0       0       0       0       0       0       0       0
       0       0       0       0       0       0       0       0       0       0
       0       0       0       0       0       0       0       0       0       0
       0       0       0       0       0       0       0       0       0       0
       0       0       0       0       0       0       0       0       0       0
       0       0       0       0       0       0       0       0       0       0
       0       0       0       0       0       0       0       0       0       0
       0       0       0       0       0       0       0       0       0       0
       0       0       0       0       0       0       0       0       0       0
       0       0       0       0       0       0       0       0       0       0
       0       0       0       0       0       0       0       0       0       0
       0       0       0       0       0       0       0       0       0       0
       0       0       0       0       0       0       0       0       0       0
       0       0       0       0       0       0       0       0       0       0
       0       0       0       0       0       0       0       0       0       0
       0       0       0       0       0       0       0       0       0       0
       0       0       0       0       0       0       0       0       0       0
       0       0       0       0       0       0       0       0       0       0
       0       0       0       0       0       0       0       0       0       0
       0       0       0       0       0       0       0       0       0       0
       0       0       0       0       0       0       0       0       0       0
       0       0       0       0       0       0       0       0       0       0
       0       0       0       0       0       0       0       0       0       0
       0       0       0       0       0       0       0       0       0       0
       0       0       0       0       0       0       0       0       0       0
       0       0       0       0       0       0       0       0       0       0
       0       0       0       0       0       0       0       0       0       0
       0       0       0       0       0       0       0       0       0       0
       0       0       0       0       0       0       0       0       0       0
       0       0       0       0       0       0       0       0       0       0
       0       0       0       0       0       0       0       0       0       0
       0       0       0       0       0       0       0       0       0       0
       0       0       0       0       0       0       0       0       0       0
       0       0       0       0       0       0       0       0       0       0
       0       0       0       0       0       0       0       0       0       0
       0       0       0       0       0       0       0       0       0       0
       0       0       0       0       0       0       0       0       0       0
       0       0       0       0       0       0       0       0       0       0
       0       0       0       0       0       0       0       0       0       0
       0       0       0       0       0       0       0       0       0       0
       0       0       0       0       0       0       0       0       0       0
       0       0       0       0       0       0       0       0       0       0
       0       0       0       0       0       0       0       0       0       0
       0       0       0       0       0       0       0       0       0       0
       0       0       0       0       0       0       0       0       0       0
       0       0       0       0       0       0       0       0       0       0
       0       0       0       0       0       0       0       0       0       0
       0       0       0       0       0       0       0       0       0       0
       0       0       0       0       0       0       0       0       0       0
       0       0       0       0       0       0       0       0       0       0
       0       0       0       0       0       0       0       0       0       0
       0       0       0       0       0       0       0       0       0       0
       0       0       0       0       0       0       0       0       0       0
       0       0       0       0       0       0       0       0       0       0
       0       0       0       0       0       0       0       0       0       0
       0       0       0       0       0       0       0       0       0       0
       0       0       0       0       0       0       0       0       0       0
       0       0       0       0       0       0       0       0       0       0
       0       0       0       0       0       0       0       0       0       0
       0       0       0       0       0       0       0       0       0       0
       0       0       0       0       0       0       0       0       0       0
       0       0       0       0       0       0       0       0       0       0
       0       0       0       0       0       0       0       0       0       0
       0       0       0       0       0       0       0       0       0       0
       0       0       0       0       0       0       0       0       0       0
       0       0       0       0       0       0       0       0       0       0
       0       0       0       0       0       0       0       0       0       0
       0       0       0       0       0       0       0       0       0       0
       0       0       0       0       0       0       0       0       0       0
       0       0       0       0       0       0       0       0       0       0
       0       0       0       0       0       0       0       0       0       0
       0       0       0       0       0       0       0       0       0       0
       0       0       0       0       0       0       0       0       0       0
       0       0       0       0       0       0       0       0       0       0
       0       0       0       0       0       0       0       0       0       0
       0       0       0       0       0       0       0       0       0       0
       0       0       0       0       0       0       0       0       0       0
       0       0       0       0       0       0       0       0       0       0
       0       0       0       0       0       0       0       0       0       0
       0       0       0       0       0       0       0       0       0       0
       0       0       0       0       0       0       0       0       0       0
       0       0       0       0       0       0       0       0       0       0
       0       0       0       0       0       0       0       0       0       0
       0       0       0       0       0       0       0       0       0       0
       0       0       0       0       0       0       0       0       0       0
       0       0       0       0       0       0       0       0       0       0
       0       0       0       0       0       0       0       0       0       0
       0       0       0       0       0       0       0       0       0       0
       0       0       0       0       0       0       0       0       0       0
       0       0       0       0       0       0       0       0       0       0
       0       0       0       0       0       0       0       0       0       0
       0       0       0       0       0       0       0       0       0       0
       0       0       0       0       0       0       0       0       0       0
       0       0       0       0       0       0       0       0       0       0
       0       0       0       0       0       0       0       0       0       0
       0       0       0       0       0       0       0       0       0       0
       0       0       0       0       0       0       0       0       0       0
       0       0       0       0       0       0       0       0       0       0
       0       0       0       0       0       0       0       0       0       0
       0       0       0       0       0       0       0       0       0       0
       0       0       0       0       0       0       0       0       0       0
       0       0       0       0       0       0       0       0       0       0
       0       0       0       0       0       0       0       0       0       0
       0       0       0       0       0       0       0       0       0       0
       0       0       0       0       0       0       0       0       0       0
       0       0       0       0       0       0       0       0       0       0
       0       0       0       0       0       0       0       0       0       0
       0       0       0       0       0       0       0       0       0       0
       0       0       0       0       0       0       0       0       0       0
       0       0       0       0       0       0       0       0       0       0
       0       0       0       0       0       0       0       0       0       0
       0       0       0       0       0       0       0       0       0       0
       0       0       0       0       0       0       0       0       0       0
       0       0       0       0       0       0       0       0       0       0
       0       0       0       0       0       0       0       0       0       0
       0       0       0       0       0       0       0       0       0       0
       0       0       0       0       0       0       0       0       0       0
       0       0       0       0       0       0       0       0       0       0
       0       0       0       0       0       0       0       0       0       0
       0       0       0       0       0       0       0       0       0       0
       0       0       0       0       0       0       0       0       0       0
       0       0       0       0       0       0       0       0       0       0
       0       0       0       0       0       0       0       0       0       0
       0       0       0       0       0       0       0       0       0       0
       0       0       0       0       0       0       0       0       0       0
       0       0       0       0       0       0       0       0       0       0
       0       0       0       0       0       0       0       0       0       0
       0       0       0       0       0       0       0       0       0       0
       0       0       0       0       0       0       0       0       0       0
       0       0       0       0       0       0       0       0       0       0
       0       0       0       0       0       0       0       0       0       0
       0       0       0       0       0       0       0       0       0       0
       0       0       0       0       0       0       0       0       0       0
       0       0       0       0       0       0       0       0       0       0
       0       0       0       0       0       0       0       0       0       0
       0       0       0       0       0       0       0       0       0       0
       0       0       0       0       0       0       0       0       0       0
       0       0       0       0       0       0       0       0       0       0
       0       0       0       0       0       0       0       0       0       0
       0       0       0       0       0       0       0       0       0       0
       0       0       0       0       0       0       0       0       0       0
       0       0       0       0       0       0       0       0       0       0
       0       0       0       0       0       0       0       0       0       0
       0       0       0       0       0       0       0       0       0       0
       0       0       0       0       0       0       0       0       0       0
       0       0       0       0       0       0       0       0       0       0
       0       0       0       0       0       0       0       0       0       0
       0       0       0       0       0       0       0       0       0       0
       0       0       0       0       0       0       0       0       0       0
       0       0       0       0       0       0       0       0       0       0
       0       0       0       0       0       0       0       0       0       0
       0       0       0       0       0       0       0       0       0       0
       0       0       0       0       0       0       0       0       0       0
       0       0       0       0       0       0       0       0       0       0
       0       0       0       0       0       0       0       0       0       0
       0       0       0       0       0       0       0       0       0       0
       0       0       0       0       0       0       0       0       0       0
       0       0       0       0       0       0       0       0       0       0
       0       0       0       0       0       0       0       0       0       0
       0       0       0       0       0       0       0       0       0       0
       0       0       0       0       0       0       0       0       0       0
       0       0       0       0       0       0       0       0       0       0
       0       0       0       0       0       0       0       0       0       0
       0       0       0       0       0       0       0       0       0       0
       0       0       0       0       0       0       0       0       0       0
       0       0       0       0       0       0       0       0       0       0
       0       0       0       0       0       0       0       0       0       0
       0       0       0       0       0       0       0       0       0       0
       0       0       0       0       0       0       0       0       0       0
       0       0       0       0       0       0       0       0       0       0
       0       0       0       0       0       0       0       0       0       0
       0       0       0       0       0       0       0       0       0       0
       0       0       0       0       0       0       0       0       0       0
       0       0       0       0       0       0       0       0       0       0
       0       0       0       0       0       0       0       0       0       0
       0       0       0       0       0       0       0       0       0       0
       0       0       0       0       0       0       0       0       0       0
       0       0       0       0       0       0       0       0       0       0
       0       0       0       0       0       0       0       0       0       0
       0       0       0       0       0       0       0       0       0       0
       0       0       0       0       0       0       0       0       0       0
       0       0       0       0       0       0       0       0       0       0
       0       0       0       0       0       0       0       0       0       0
       0       0       0       0       0       0       0       0       0       0
       0       0       0       0       0       0       0       0       0       0
       0       0       0       0       0       0       0       0       0       0
       0       0       0       0       0       0       0       0       0       0
       0       0       0       0       0       0       0       0       0       0
       0       0       0       0       0       0       0       0       0       0
       0       0       0       0       0       0       0       0       0       0
       0       0       0       0       0       0       0       0       0       0
       0       0       0       0       0       0       0       0       0       0
       0       0       0       0       0       0       0       0       0       0
       0       0       0       0       0       0       0       0       0       0
       0       0       0       0       0       0       0       0       0       0
       0       0       0       0       0       0       0       0       0       0
       0       0       0       0       0       0       0       0       0       0
       0       0       0       0       0       0       0       0       0       0
       0       0       0       0       0       0       0       0       0       0
       0       0       0       0       0       0       0       0       0       0
       0       0       0       0       0       0       0       0       0       0
       0       0       0       0       0       0       0       0       0       0
       0       0       0       0       0       0       0       0       0       0
       0       0       0       0       0       0       0       0       0       0
       0       0       0       0       0       0       0       0       0       0
       0       0       0       0       0       0       0       0       0       0
       0       0       0       0       0       0       0       0       0       0
       0       0       0       0       0       0       0       0       0       0
       0       0       0       0       0       0       0       0       0       0
       0       0       0       0       0       0       0       0       0       0
       0       0       0       0       0       0       0       0       0       0
       0       0       0       0       0       0       0       0       0       0
       0       0       0       0       0       0       0       0       0       0
       0       0       0       0       0       0       0       0       0       0
       0       0       0       0       0       0       0       0       0       0
       0       0       0       0       0       0       0       0       0       0
       0       0       0       0       0       0       0       0       0       0
       0       0       0       0       0       0       0       0       0       0
       0       0       0       0       0       0       0       0       0       0
       0       0       0       0       0       0       0       0       0       0
       0       0       0       0       0       0       0       0       0       0
       0       0       0       0       0       0       0       0       0       0
       0       0       0       0       0       0       0       0       0       0
       0       0       0       0       0       0       0       0       0       0
       0       0       0       0       0       0       0       0       0       0
       0       0       0       0       0       0       0       0       0       0
       0       0       0       0       0       0       0       0       0       0
       0       0       0       0       0       0       0       0       0       0
       0       0       0       0       0       0       0       0       0       0
       0       0       0       0       0       0       0       0       0       0
       0       0       0       0       0       0       0       0       0       0
       0       0       0       0       0       0       0       0       0       0
       0       0       0       0       0       0       0       0       0       0
       0       0       0       0       0       0       0       0       0       0
       0       0       0       0       0       0       0       0       0       0
       0       0       0       0       0       0       0       0       0       0
       0       0       0       0       0       0       0       0       0       0
       0       0       0       0       0       0       0       0       0       0
       0       0       0       0       0       0       0       0       0       0
       0       0       0       0       0       0       0       0       0       0
       0       0       0       0       0       0       0       0       0       0
       0       0       0       0       0       0       0       0       0       0
       0       0       0       0       0       0       0       0       0       0
       0       0       0       0       0       0       0       0       0       0
       0       0       0       0       0       0       0       0       0       0
       0       0       0       0       0       0       0       0       0       0
       0       0       0       0       0       0       0       0       0       0
       0       0       0       0       0       0       0       0       0       0
       0       0       0       0       0       0       0       0       0       0
       0       0       0       0       0       0       0       0       0       0
       0       0       0       0       0       0       0       0       0       0
       0       0       0       0       0       0       0       0       0       0
       0       0       0       0       0       0       0       0       0       0
       0       0       0       0       0       0       0       0       0       0
       0       0       0       0       0       0       0       0       0       0
       0       0       0       0       0       0       0       0       0       0
       0       0       0       0       0       0       0       0       0       0
       0       0       0       0       0       0       0       0       0       0
       0       0       0       0       0       0       0       0       0       0
       0       0       0       0       0       0       0       0       0       0
       0       0       0       0       0       0       0       0       0       0
       0       0       0       0       0       0       0       0       0       0
       0       0       0       0       0       0       0       0       0       0
       0       0       0       0       0       0       0       0       0       0
       0       0       0       0       0       0       0       0       0       0
       0       0       0       0       0       0       0       0       0       0
       0       0       0       0       0       0       0       0       0       0
       0       0       0       0       0       0       0       0       0       0
       0       0       0       0       0       0       0       0       0       0
       0       0       0       0       0       0       0       0       0       0
       0       0       0       0       0       0       0       0       0       0
       0       0       0       0       0       0       0       0       0       0
       0       0       0       0       0       0       0       0       0       0
       0       0       0       0       0       0       0       0       0       0
       0       0       0       0       0       0       0       0       0       0
       0       0       0       0       0       0       0       0       0       0
       0       0       0       0       0       0       0       0       0       0
       0       0       0       0       0       0       0       0       0       0
       0       0       0       0       0       0       0       0       0       0
       0       0       0       0       0       0       0       0       0       0
       0       0       0       0       0       0       0       0       0       0
       0       0       0       0       0       0       0       0       0       0
       0       0       0       0       0       0       0       0       0       0
       0       0       0       0       0       0       0       0       0       0
       0       0       0       0       0       0       0       0       0       0
       0       0       0       0       0       0       0       0       0       0
       0       0       0       0       0       0       0       0       0       0
       0       0       0       0       0       0       0       0       0       0
       0       0       0       0       0       0       0       0       0       0
       0       0       0       0       0       0       0       0       0       0
       0       0       0       0       0       0       0       0       0       0
       0       0       0       0       0       0       0       0       0       0
       0       0       0       0       0       0       0       0       0       0
       0       0       0       0       0       0       0       0       0       0
       0       0       0       0       0       0       0       0       0       0
       0       0       0       0       0       0       0       0       0       0
       0       0       0       0       0       0       0       0       0       0
       0       0       0       0       0       0       0       0       0       0
       0       0       0       0       0       0       0       0       0       0
       0       0       0       0       0       0       0       0       0       0
       0       0       0       0       0       0       0       0       0       0
       0       0       0       0       0       0       0       0       0       0
       0       0       0       0       0       0       0       0       0       0
       0       0       0       0       0       0       0       0       0       0
       0       0       0       0       0       0       0       0       0       0
       0       0       0       0       0       0       0       0       0       0
       0       0       0       0       0       0       0       0       0       0
       0       0       0       0       0       0       0       0       0       0
       0       0       0       0       0       0       0       0       0       0
       0       0       0       0       0       0       0       0       0       0
       0       0       0       0       0       0       0       0       0       0
       0       0       0       0       0       0       0       0       0       0
       0       0       0       0       0       0       0       0       0       0
       0       0       0       0       0       0       0       0       0       0
       0       0       0       0       0       0       0       0       0       0
       0       0       0       0       0       0       0       0       0       0
       0       0       0       0       0       0       0       0       0       0
       0       0       0       0       0       0       0       0       0       0
       0       0       0       0       0       0       0       0       0       0
       0       0       0       0       0       0       0       0       0       0
       0       0       0       0       0       0       0       0       0       0
       0       0       0       0       0       0       0       0       0       0
       0       0       0       0       0       0       0       0       0       0
       0       0       0       0       0       0       0       0       0       0
       0       0       0       0       0       0       0       0       0       0
       0       0       0       0       0       0       0       0       0       0
       0       0       0       0       0       0       0       0       0       0
       0       0       0       0       0       0       0       0       0       0
       0       0       0       0       0       0       0       0       0       0
       0       0       0       0       0       0       0       0       0       0
       0       0       0       0       0       0       0       0       0       0
       0       0       0       0       0       0       0       0       0       0
       0       0       0       0       0       0       0       0       0       0
       0       0       0       0       0       0       0       0       0       0
       0       0       0       0       0       0       0       0       0       0
       0       0       0       0       0       0       0       0       0       0
       0       0       0       0       0       0       0       0       0       0
       0       0       0       0       0       0       0       0       0       0
       0       0       0       0       0       0       0       0       0       0
       0       0       0       0       0       0       0       0       0       0
       0       0       0       0       0       0       0       0       0       0
       0       0       0       0       0       0       0       0       0       0
       0       0       0       0       0       0       0       0       0       0
       0       0       0       0       0       0       0       0       0       0
       0       0       0       0       0       0       0       0       0       0
       0       0       0       0       0       0       0       0       0       0
       0       0       0       0       0       0       0       0       0       0
       0       0       0       0       0       0       0       0       0       0
       0       0       0       0       0       0       0       0       0       0
       0       0       0       0       0       0       0       0       0       0
       0       0       0       0       0       0       0       0       0       0
       0       0       0       0       0       0       0       0       0       0
       0       0       0       0       0       0       0       0       0       0
       0       0       0       0       0       0       0       0       0       0
       0       0       0       0       0       0       0       0       0       0
       0       0       0       0       0       0       0       0       0       0
       0       0       0       0       0       0       0       0       0       0
       0       0       0       0       0       0       0       0       0       0
       0       0       0       0       0       0       0       0       0       0
       0       0       0       0       0       0       0       0       0       0
       0       0       0       0       0       0       0       0       0       0
       0       0       0       0       0       0       0       0       0       0
       0       0       0       0       0       0       0       0       0       0
       0       0       0       0       0       0       0       0       0       0
       0       0       0       0       0       0       0       0       0       0
       0       0       0       0       0       0       0       0       0       0
       0       0       0       0       0       0       0       0       0       0
       0       0       0       0       0       0       0       0       0       0
       0       0       0       0       0       0       0       0       0       0
       0       0       0       0       0       0       0       0       0       0
       0       0       0       0       0       0       0       0       0       0
       0       0       0       0       0       0       0       0       0       0
       0       0       0       0       0       0       0       0       0       0
       0       0       0       0       0       0       0       0       0       0
       0       0       0       0       0       0       0       0       0       0
       0       0       0       0       0       0       0       0       0       0
       0       0       0       0       0       0       0       0       0       0
       0       0       0       0       0       0       0       0       0       0
       0       0       0       0       0       0       0       0       0       0
       0       0       0       0       0       0       0       0       0       0
       0       0       0       0       0       0       0       0       0       0
       0       0       0       0       0       0       0       0       0       0
       0       0       0       0       0       0       0       0       0       0
       0       0       0       0       0       0       0       0       0       0
       0       0       0       0       0       0       0       0       0       0
       0       0       0       0       0       0       0       0       0       0
       0       0       0       0       0       0       0       0       0       0
       0       0       0       0       0       0       0       0       0       0
       0       0       0       0       0       0       0       0       0       0
       0       0       0       0       0       0       0       0       0       0
       0       0       0       0       0       0       0       0       0       0
       0       0       0       0       0       0       0       0       0       0
       0       0       0       0       0       0       0       0       0       0
       0       0       0       0       0       0       0       0       0       0
       0       0       0       0       0       0       0       0       0       0
       0       0       0       0       0       0       0       0       0       0
       0       0       0       0       0       0       0       0       0       0
       0       0       0       0       0       0       0       0       0       0
       0       0       0       0       0       0       0       0       0       0
       0       0       0       0       0       0       0       0       0       0
       0       0       0       0       0       0       0       0       0       0
       0       0       0       0       0       0       0       0       0       0
       0       0       0       0       0       0       0       0       0       0
       0       0       0       0       0       0       0       0       0       0
       0       0       0       0       0       0       0       0       0       0
       0       0       0       0       0       0       0       0       0       0
       0       0       0       0       0       0       0       0       0       0
       0       0       0       0       0       0       0       0       0       0
       0       0       0       0       0       0       0       0       0       0
       0       0       0       0       0       0       0       0       0       0
       0       0       0       0       0       0       0       0       0       0
       0       0       0       0       0       0       0       0       0       0
       0       0       0       0       0       0       0       0       0       0
       0       0       0       0       0       0       0       0       0       0
       0       0       0       0       0       0       0       0       0       0
       0       0       0       0       0       0       0       0       0       0
       0       0       0       0       0       0       0       0       0       0
       0       0       0       0       0       0       0       0       0       0
       0       0       0       0       0       0       0       0       0       0
       0       0       0       0       0       0       0       0       0       0
       0       0       0       0       0       0       0       0       0       0
       0       0       0       0       0       0       0       0       0       0
       0       0       0       0       0       0       0       0       0       0
       0       0       0       0       0       0       0       0       0       0
       0       0       0       0       0       0       0       0       0       0
       0       0       0       0       0       0       0       0       0       0
       0       0       0       0       0       0       0       0       0       0
       0       0       0       0       0       0       0       0       0       0
       0       0       0       0       0       0       0       0       0       0
       0       0       0       0       0       0       0       0       0       0
       0       0       0       0       0       0       0       0       0       0
       0       0       0       0       0       0       0       0       0       0
       0       0       0       0       0       0       0       0       0       0
       0       0       0       0       0       0       0       0       0       0
       0       0       0       0       0       0       0       0       0       0
       0       0       0       0       0       0       0       0       0       0
       0       0       0       0       0       0       0       0       0       0
       0       0       0       0       0       0       0       0       0       0
       0       0       0       0       0       0       0       0       0       0
       0       0       0       0       0       0       0       0       0       0
       0       0       0       0       0       0       0       0       0       0
       0       0       0       0       0       0       0       0       0       0
       0       0       0       0       0       0       0       0       0       0
       0       0       0       0       0       0       0       0       0       0
       0       0       0       0       0       0       0       0       0       0
       0       0       0       0       0       0       0       0       0       0
       0       0       0       0       0       0       0       0       0       0
       0       0       0       0       0       0       0       0       0       0
       0       0       0       0       0       0       0       0       0       0
       0       0       0       0       0       0       0       0       0       0
       0       0       0       0       0       0       0       0       0       0
       0       0       0       0       0       0       0       0       0       0
       0       0       0       0       0       0       0       0       0       0
       0       0       0       0       0       0       0       0       0       0
       0       0       0       0       0       0       0       0       0       0
       0       0       0       0       0       0       0       0       0       0
       0       0       0       0       0       0       0       0       0       0
       0       0       0       0       0       0       0       0       0       0
       0       0       0       0       0       0       0       0       0       0
       0       0       0       0       0       0       0       0       0       0
       0       0       0       0       0       0       0       0       0       0
       0       0       0       0       0       0       0       0       0       0
       0       0       0       0       0       0       0       0       0       0
       0       0       0       0       0       0       0       0       0       0
       0       0       0       0       0       0       0       0       0       0
       0       0       0       0       0       0       0       0       0       0
       0       0       0       0       0       0       0       0       0       0
       0       0       0       0       0       0       0       0       0       0
       0       0
%FLAG IROTAT                                                                    
%FORMAT(10I8)                                                                   
       0       0       0       0       0       0       0       0       0       0
       0       0       0       0       0       0       0       0       0       0
       0       0       0       0       0       0       0       0       0       0
       0       0       0       0       0       0       0       0       0       0
       0       0       0       0       0       0       0       0       0       0
       0       0       0       0       0       0       0       0       0       0
       0       0       0       0       0       0       0       0       0       0
       0       0       0       0       0       0       0       0       0       0
       0       0       0       0       0       0       0       0       0       0
       0       0       0       0       0       0       0       0       0       0
       0       0       0       0       0       0       0       0       0       0
       0       0       0       0       0       0       0       0       0       0
       0       0       0       0       0       0       0       0       0       0
       0       0       0       0       0       0       0       0       0       0
       0       0       0       0       0       0       0       0       0       0
       0       0       0       0       0       0       0       0       0       0
       0       0       0       0       0       0       0       0       0       0
       0       0       0       0       0       0       0       0       0       0
       0       0       0       0       0       0       0       0       0       0
       0       0       0       0       0       0       0       0       0       0
       0       0       0       0       0       0       0       0       0       0
       0       0       0       0       0       0       0       0       0       0
       0       0       0       0       0       0       0       0       0       0
       0       0       0       0       0       0       0       0       0       0
       0       0       0       0       0       0       0       0       0       0
       0       0       0       0       0       0       0       0       0       0
       0       0       0       0       0       0       0       0       0       0
       0       0       0       0       0       0       0       0       0       0
       0       0       0       0       0       0       0       0       0       0
       0       0       0       0       0       0       0       0       0       0
       0       0       0       0       0       0       0       0       0       0
       0       0       0       0       0       0       0       0       0       0
       0       0       0       0       0       0       0       0       0       0
       0       0       0       0       0       0       0       0       0       0
       0       0       0       0       0       0       0       0       0       0
       0       0       0       0       0       0       0       0       0       0
       0       0       0       0       0       0       0       0       0       0
       0       0       0       0       0       0       0       0       0       0
       0       0       0       0       0       0       0       0       0       0
       0       0       0       0       0       0       0       0       0       0
       0       0       0       0       0       0       0       0       0       0
       0       0       0       0       0       0       0       0       0       0
       0       0       0       0       0       0       0       0       0       0
       0       0       0       0       0       0       0       0       0       0
       0       0       0       0       0       0       0       0       0       0
       0       0       0       0       0       0       0       0       0       0
       0       0       0       0       0       0       0       0       0       0
       0       0       0       0       0       0       0       0       0       0
       0       0       0       0       0       0       0       0       0       0
       0       0       0       0       0       0       0       0       0       0
       0       0       0       0       0       0       0       0       0       0
       0       0       0       0       0       0       0       0       0       0
       0       0       0       0       0       0       0       0       0       0
       0       0       0       0       0       0       0       0       0       0
       0       0       0       0       0       0       0       0       0       0
       0       0       0       0       0       0       0       0       0       0
       0       0       0       0       0       0       0       0       0       0
       0       0       0       0       0       0       0       0       0       0
       0       0       0       0       0       0       0       0       0       0
       0       0       0       0       0       0       0       0       0       0
       0       0       0       0       0       0       0       0       0       0
       0       0       0       0       0       0       0       0       0       0
       0       0       0       0       0       0       0       0       0       0
       0       0       0       0       0       0       0       0       0       0
       0       0       0       0       0       0       0       0       0       0
       0       0       0       0       0       0       0       0       0       0
       0       0       0       0       0       0       0       0       0       0
       0       0       0       0       0       0       0       0       0       0
       0       0       0       0       0       0       0       0       0       0
       0       0       0       0       0       0       0       0       0       0
       0       0       0       0       0       0       0       0       0       0
       0       0       0       0       0       0       0       0       0       0
       0       0       0       0       0       0       0       0       0       0
       0       0       0       0       0       0       0       0       0       0
       0       0       0       0       0       0       0       0       0       0
       0       0       0       0       0       0       0       0       0       0
       0       0       0       0       0       0       0       0       0       0
       0       0       0       0       0       0       0       0       0       0
       0       0       0       0       0       0       0       0       0       0
       0       0       0       0       0       0       0       0       0       0
       0       0       0       0       0       0       0       0       0       0
       0       0       0       0       0       0       0       0       0       0
       0       0       0       0       0       0       0       0       0       0
       0       0       0       0       0       0       0       0       0       0
       0       0       0       0       0       0       0       0       0       0
       0       0       0       0       0       0       0       0       0       0
       0       0       0       0       0       0       0       0       0       0
       0       0       0       0       0       0       0       0       0       0
       0       0       0       0       0       0       0       0       0       0
       0       0       0       0       0       0       0       0       0       0
       0       0       0       0       0       0       0       0       0       0
       0       0       0       0       0       0       0       0       0       0
       0       0       0       0       0       0       0       0       0       0
       0       0       0       0       0       0       0       0       0       0
       0       0       0       0       0       0       0       0       0       0
       0       0       0       0       0       0       0       0       0       0
       0       0       0       0       0       0       0       0       0       0
       0       0       0       0       0       0       0       0       0       0
       0       0       0       0       0       0       0       0       0       0
       0       0       0       0       0       0       0       0       0       0
       0       0       0       0       0       0       0       0       0       0
       0       0       0       0       0       0       0       0       0       0
       0       0       0       0       0       0       0       0       0       0
       0       0       0       0       0       0       0       0       0       0
       0       0       0       0       0       0       0       0       0       0
       0       0       0       0       0       0       0       0       0       0
       0       0       0       0       0       0       0       0       0       0
       0       0       0       0       0       0       0       0       0       0
       0       0       0       0       0       0       0       0       0       0
       0       0       0       0       0       0       0       0       0       0
       0       0       0       0       0       0       0       0       0       0
       0       0       0       0       0       0       0       0       0       0
       0       0       0       0       0       0       0       0       0       0
       0       0       0       0       0       0       0       0       0       0
       0       0       0       0       0       0       0       0       0       0
       0       0       0       0       0       0       0       0       0       0
       0       0       0       0       0       0       0       0       0       0
       0       0       0       0       0       0       0       0       0       0
       0       0       0       0       0       0       0       0       0       0
       0       0       0       0       0       0       0       0       0       0
       0       0       0       0       0       0       0       0       0       0
       0       0       0       0       0       0       0       0       0       0
       0       0       0       0       0       0       0       0       0       0
       0       0       0       0       0       0       0       0       0       0
       0       0       0       0       0       0       0       0       0       0
       0       0       0       0       0       0       0       0       0       0
       0       0       0       0       0       0       0       0       0       0
       0       0       0       0       0       0       0       0       0       0
       0       0       0       0       0       0       0       0       0       0
       0       0       0       0       0       0       0       0       0       0
       0       0       0       0       0       0       0       0       0       0
       0       0       0       0       0       0       0       0       0       0
       0       0       0       0       0       0       0       0       0       0
       0       0       0       0       0       0       0       0       0       0
       0       0       0       0       0       0       0       0       0       0
       0       0       0       0       0       0       0       0       0       0
       0       0       0       0       0       0       0       0       0       0
       0       0       0       0       0       0       0       0       0       0
       0       0       0       0       0       0       0       0       0       0
       0       0       0       0       0       0       0       0       0       0
       0       0       0       0       0       0       0       0       0       0
       0       0       0       0       0       0       0       0       0       0
       0       0       0       0       0       0       0       0       0       0
       0       0       0       0       0       0       0       0       0       0
       0       0       0       0       0       0       0       0       0       0
       0       0       0       0       0       0       0       0       0       0
       0       0       0       0       0       0       0       0       0       0
       0       0       0       0       0       0       0       0       0       0
       0       0       0       0       0       0       0       0       0       0
       0       0       0       0       0       0       0       0       0       0
       0       0       0       0       0       0       0       0       0       0
       0       0       0       0       0       0       0       0       0       0
       0       0       0       0       0       0       0       0       0       0
       0       0       0       0       0       0       0       0       0       0
       0       0       0       0       0       0       0       0       0       0
       0       0       0       0       0       0       0       0       0       0
       0       0       0       0       0       0       0       0       0       0
       0       0       0       0       0       0       0       0       0       0
       0       0       0       0       0       0       0       0       0       0
       0       0       0       0       0       0       0       0       0       0
       0       0       0       0       0       0       0       0       0       0
       0       0       0       0       0       0       0       0       0       0
       0       0       0       0       0       0       0       0       0       0
       0       0       0       0       0       0       0       0       0       0
       0       0       0       0       0       0       0       0       0       0
       0       0       0       0       0       0       0       0       0       0
       0       0       0       0       0       0       0       0       0       0
       0       0       0       0       0       0       0       0       0       0
       0       0       0       0       0       0       0       0       0       0
       0       0       0       0       0       0       0       0       0       0
       0       0       0       0       0       0       0       0       0       0
       0       0       0       0       0       0       0       0       0       0
       0       0       0       0       0       0       0       0       0       0
       0       0       0       0       0       0       0       0       0       0
       0       0       0       0       0       0       0       0       0       0
       0       0       0       0       0       0       0       0       0       0
       0       0       0       0       0       0       0       0       0       0
       0       0       0       0       0       0       0       0       0       0
       0       0       0       0       0       0       0       0       0       0
       0       0       0       0       0       0       0       0       0       0
       0       0       0       0       0       0       0       0       0       0
       0       0       0       0       0       0       0       0       0       0
       0       0       0       0       0       0       0       0       0       0
       0       0       0       0       0       0       0       0       0       0
       0       0       0       0       0       0       0       0       0       0
       0       0       0       0       0       0       0       0       0       0
       0       0       0       0       0       0       0       0       0       0
       0       0       0       0       0       0       0       0       0       0
       0       0       0       0       0       0       0       0       0       0
       0       0       0       0       0       0       0       0       0       0
       0       0       0       0       0       0       0       0       0       0
       0       0       0       0       0       0       0       0       0       0
       0       0       0       0       0       0       0       0       0       0
       0       0       0       0       0       0       0       0       0       0
       0       0       0       0       0       0       0       0       0       0
       0       0       0       0       0       0       0       0       0       0
       0       0       0       0       0       0       0       0       0       0
       0       0       0       0       0       0       0       0       0       0
       0       0       0       0       0       0       0       0       0       0
       0       0       0       0       0       0       0       0       0       0
       0       0       0       0       0       0       0       0       0       0
       0       0       0       0       0       0       0       0       0       0
       0       0       0       0       0       0       0       0       0       0
       0       0       0       0       0       0       0       0       0       0
       0       0       0       0       0       0       0       0       0       0
       0       0       0       0       0       0       0       0       0       0
       0       0       0       0       0       0       0       0       0       0
       0       0       0       0       0       0       0       0       0       0
       0       0       0       0       0       0       0       0       0       0
       0       0       0       0       0       0       0       0       0       0
       0       0       0       0       0       0       0       0       0       0
       0       0       0       0       0       0       0       0       0       0
       0       0       0       0       0       0       0       0       0       0
       0       0       0       0       0       0       0       0       0       0
       0       0       0       0       0       0       0       0       0       0
       0       0       0       0       0       0       0       0       0       0
       0       0       0       0       0       0       0       0       0       0
       0       0       0       0       0       0       0       0       0       0
       0       0       0       0       0       0       0       0       0       0
       0       0       0       0       0       0       0       0       0       0
       0       0       0       0       0       0       0       0       0       0
       0       0       0       0       0       0       0       0       0       0
       0       0       0       0       0       0       0       0       0       0
       0       0       0       0       0       0       0       0       0       0
       0       0       0       0       0       0       0       0       0       0
       0       0       0       0       0       0       0       0       0       0
       0       0       0       0       0       0       0       0       0       0
       0       0       0       0       0       0       0       0       0       0
       0       0       0       0       0       0       0       0       0       0
       0       0       0       0       0       0       0       0       0       0
       0       0       0       0       0       0       0       0       0       0
       0       0       0       0       0       0       0       0       0       0
       0       0       0       0       0       0       0       0       0       0
       0       0       0       0       0       0       0       0       0       0
       0       0       0       0       0       0       0       0       0       0
       0       0       0       0       0       0       0       0       0       0
       0       0       0       0       0       0       0       0       0       0
       0       0       0       0       0       0       0       0       0       0
       0       0       0       0       0       0       0       0       0       0
       0       0       0       0       0       0       0       0       0       0
       0       0       0       0       0       0       0       0       0       0
       0       0       0       0       0       0       0       0       0       0
       0       0       0       0       0       0       0       0       0       0
       0       0       0       0       0       0       0       0       0       0
       0       0       0       0       0       0       0       0       0       0
       0       0       0       0       0       0       0       0       0       0
       0       0       0       0       0       0       0       0       0       0
       0       0       0       0       0       0       0       0       0       0
       0       0       0       0       0       0       0       0       0       0
       0       0       0       0       0       0       0       0       0       0
       0       0       0       0       0       0       0       0       0       0
       0       0       0       0       0       0       0       0       0       0
       0       0       0       0       0       0       0       0       0       0
       0       0       0       0       0       0       0       0       0       0
       0       0       0       0       0       0       0       0       0       0
       0       0       0       0       0       0       0       0       0       0
       0       0       0       0       0       0       0       0       0       0
       0       0       0       0       0       0       0       0       0       0
       0       0       0       0       0       0       0       0       0       0
       0       0       0       0       0       0       0       0       0       0
       0       0       0       0       0       0       0       0       0       0
       0       0       0       0       0       0       0       0       0       0
       0       0       0       0       0       0       0       0       0       0
       0       0       0       0       0       0       0       0       0       0
       0       0       0       0       0       0       0       0       0       0
       0       0       0       0       0       0       0       0       0       0
       0       0       0       0       0       0       0       0       0       0
       0       0       0       0       0       0       0       0       0       0
       0       0       0       0       0       0       0       0       0       0
       0       0       0       0       0       0       0       0       0       0
       0       0       0       0       0       0       0       0       0       0
       0       0       0       0       0       0       0       0       0       0
       0       0       0       0       0       0       0       0       0       0
       0       0       0       0       0       0       0       0       0       0
       0       0       0       0       0       0       0       0       0       0
       0       0       0       0       0       0       0       0       0       0
       0       0       0       0       0       0       0       0       0       0
       0       0       0       0       0       0       0       0       0       0
       0       0       0       0       0       0       0       0       0       0
       0       0       0       0       0       0       0       0       0       0
       0       0       0       0       0       0       0       0       0       0
       0       0       0       0       0       0       0       0       0       0
       0       0       0       0       0       0       0       0       0       0
       0       0       0       0       0       0       0       0       0       0
       0       0       0       0       0       0       0       0       0       0
       0       0       0       0       0       0       0       0       0       0
       0       0       0       0       0       0       0       0       0       0
       0       0       0       0       0       0       0       0       0       0
       0       0       0       0       0       0       0       0       0       0
       0       0       0       0       0       0       0       0       0       0
       0       0       0       0       0       0       0       0       0       0
       0       0       0       0       0       0       0       0       0       0
       0       0       0       0       0       0       0       0       0       0
       0       0       0       0       0       0       0       0       0       0
       0       0       0       0       0       0       0       0       0       0
       0       0       0       0       0       0       0       0       0       0
       0       0       0       0       0       0       0       0       0       0
       0       0       0       0       0       0       0       0       0       0
       0       0       0       0       0       0       0       0       0       0
       0       0       0       0       0       0       0       0       0       0
       0       0       0       0       0       0       0       0       0       0
       0       0       0       0       0       0       0       0       0       0
       0       0       0       0       0       0       0       0       0       0
       0       0       0       0       0       0       0       0       0       0
       0       0       0       0       0       0       0       0       0       0
       0       0       0       0       0       0       0       0       0       0
       0       0       0       0       0       0       0       0       0       0
       0       0       0       0       0       0       0       0       0       0
       0       0       0       0       0       0       0       0       0       0
       0       0       0       0       0       0       0       0       0       0
       0       0       0       0       0       0       0       0       0       0
       0       0       0       0       0       0       0       0       0       0
       0       0       0       0       0       0       0       0       0       0
       0       0       0       0       0       0       0       0       0       0
       0       0       0       0       0       0       0       0       0       0
       0       0       0       0       0       0       0       0       0       0
       0       0       0       0       0       0       0       0       0       0
       0       0       0       0       0       0       0       0       0       0
       0       0       0       0       0       0       0       0       0       0
       0       0       0       0       0       0       0       0       0       0
       0       0       0       0       0       0       0       0       0       0
       0       0       0       0       0       0       0       0       0       0
       0       0       0       0       0       0       0       0       0       0
       0       0       0       0       0       0       0       0       0       0
       0       0       0       0       0       0       0       0       0       0
       0       0       0       0       0       0       0       0       0       0
       0       0       0       0       0       0       0       0       0       0
       0       0       0       0       0       0       0       0       0       0
       0       0       0       0       0       0       0       0       0       0
       0       0       0       0       0       0       0       0       0       0
       0       0       0       0       0       0       0       0       0       0
       0       0       0       0       0       0       0       0       0       0
       0       0       0       0       0       0       0       0       0       0
       0       0       0       0       0       0       0       0       0       0
       0       0       0       0       0       0       0       0       0       0
       0       0       0       0       0       0       0       0       0       0
       0       0       0       0       0       0       0       0       0       0
       0       0       0       0       0       0       0       0       0       0
       0       0       0       0       0       0       0       0       0       0
       0       0       0       0       0       0       0       0       0       0
       0       0       0       0       0       0       0       0       0       0
       0       0       0       0       0       0       0       0       0       0
       0       0       0       0       0       0       0       0       0       0
       0       0       0       0       0       0       0       0       0       0
       0       0       0       0       0       0       0       0       0       0
       0       0       0       0       0       0       0       0       0       0
       0       0       0       0       0       0       0       0       0       0
       0       0       0       0       0       0       0       0       0       0
       0       0       0       0       0       0       0       0       0       0
       0       0       0       0       0       0       0       0       0       0
       0       0       0       0       0       0       0       0       0       0
       0       0       0       0       0       0       0       0       0       0
       0       0       0       0       0       0       0       0       0       0
       0       0       0       0       0       0       0       0       0       0
       0       0       0       0       0       0       0       0       0       0
       0       0       0       0       0       0       0       0       0       0
       0       0       0       0       0       0       0       0       0       0
       0       0       0       0       0       0       0       0       0       0
       0       0       0       0       0       0       0       0       0       0
       0       0       0       0       0       0       0       0       0       0
       0       0       0       0       0       0       0       0       0       0
       0       0       0       0       0       0       0       0       0       0
       0       0       0       0       0       0       0       0       0       0
       0       0       0       0       0       0       0       0       0       0
       0       0       0       0       0       0       0       0       0       0
       0       0       0       0       0       0       0       0       0       0
       0       0       0       0       0       0       0       0       0       0
       0       0       0       0       0       0       0       0       0       0
       0       0       0       0       0       0       0       0       0       0
       0       0       0       0       0       0       0       0       0       0
       0       0       0       0       0       0       0       0       0       0
       0       0       0       0       0       0       0       0       0       0
       0       0       0       0       0       0       0       0       0       0
       0       0       0       0       0       0       0       0       0       0
       0       0       0       0       0       0       0       0       0       0
       0       0       0       0       0       0       0       0       0       0
       0       0       0       0       0       0       0       0       0       0
       0       0       0       0       0       0       0       0       0       0
       0       0       0       0       0       0       0       0       0       0
       0       0       0       0       0       0       0       0       0       0
       0       0       0       0       0       0       0       0       0       0
       0       0       0       0       0       0       0       0       0       0
       0       0       0       0       0       0       0       0       0       0
       0       0       0       0       0       0       0       0       0       0
       0       0       0       0       0       0       0       0       0       0
       0       0       0       0       0       0       0       0       0       0
       0       0       0       0       0       0       0       0       0       0
       0       0       0       0       0       0       0       0       0       0
       0       0       0       0       0       0       0       0       0       0
       0       0       0       0       0       0       0       0       0       0
       0       0       0       0       0       0       0       0       0       0
       0       0       0       0       0       0       0       0       0       0
       0       0       0       0       0       0       0       0       0       0
       0       0       0       0       0       0       0       0       0       0
       0       0       0       0       0       0       0       0       0       0
       0       0       0       0       0       0       0       0       0       0
       0       0       0       0       0       0       0       0       0       0
       0       0       0       0       0       0       0       0       0       0
       0       0       0       0       0       0       0       0       0       0
       0       0       0       0       0       0       0       0       0       0
       0       0       0       0       0       0       0       0       0       0
       0       0       0       0       0       0       0       0       0       0
       0       0       0       0       0       0       0       0       0       0
       0       0       0       0       0       0       0       0       0       0
       0       0       0       0       0       0       0       0       0       0
       0       0       0       0       0       0       0       0       0       0
       0       0       0       0       0       0       0       0       0       0
       0       0       0       0       0       0       0       0       0       0
       0       0       0       0       0       0       0       0       0       0
       0       0       0       0       0       0       0       0       0       0
       0       0       0       0       0       0       0       0       0       0
       0       0       0       0       0       0       0       0       0       0
       0       0       0       0       0       0       0       0       0       0
       0       0       0       0       0       0       0       0       0       0
       0       0       0       0       0       0       0       0       0       0
       0       0       0       0       0       0       0       0       0       0
       0       0       0       0       0       0       0       0       0       0
       0       0       0       0       0       0       0       0       0       0
       0       0       0       0       0       0       0       0       0       0
       0       0       0       0       0       0       0       0       0       0
       0       0       0       0       0       0       0       0       0       0
       0       0       0       0       0       0       0       0       0       0
       0       0       0       0       0       0       0       0       0       0
       0       0       0       0       0       0       0       0       0       0
       0       0       0       0       0       0       0       0       0       0
       0       0       0       0       0       0       0       0       0       0
       0       0       0       0       0       0       0       0       0       0
       0       0       0       0       0       0       0       0       0       0
       0       0       0       0       0       0       0       0       0       0
       0       0       0       0       0       0       0       0       0       0
       0       0       0       0       0       0       0       0       0       0
       0       0       0       0       0       0       0       0       0       0
       0       0       0       0       0       0       0       0       0       0
       0       0       0       0       0       0       0       0       0       0
       0       0       0       0       0       0       0       0       0       0
       0       0       0       0       0       0       0       0       0       0
       0       0       0       0       0       0       0       0       0       0
       0       0       0       0       0       0       0       0       0       0
       0       0       0       0       0       0       0       0       0       0
       0       0       0       0       0       0       0       0       0       0
       0       0       0       0       0       0       0       0       0       0
       0       0       0       0       0       0       0       0       0       0
       0       0       0       0       0       0       0       0       0       0
       0       0       0       0       0       0       0       0       0       0
       0       0       0       0       0       0       0       0       0       0
       0       0       0       0       0       0       0       0       0       0
       0       0       0       0       0       0       0       0       0       0
       0       0       0       0       0       0       0       0       0       0
       0       0       0       0       0       0       0       0       0       0
       0       0       0       0       0       0       0       0       0       0
       0       0       0       0       0       0       0       0       0       0
       0       0       0       0       0       0       0       0       0       0
       0       0       0       0       0       0       0       0       0       0
       0       0       0       0       0       0       0       0       0       0
       0       0       0       0       0       0       0       0       0       0
       0       0       0       0       0       0       0       0       0       0
       0       0       0       0       0       0       0       0       0       0
       0       0       0       0       0       0       0       0       0       0
       0       0       0       0       0       0       0       0       0       0
       0       0       0       0       0       0       0       0       0       0
       0       0       0       0       0       0       0       0       0       0
       0       0       0       0       0       0       0       0       0       0
       0       0       0       0       0       0       0       0       0       0
       0       0       0       0       0       0       0       0       0       0
       0       0       0       0       0       0       0       0       0       0
       0       0       0       0       0       0       0       0       0       0
       0       0       0       0       0       0       0       0       0       0
       0       0       0       0       0       0       0       0       0       0
       0       0       0       0       0       0       0       0       0       0
       0       0       0       0       0       0       0       0       0       0
       0       0       0       0       0       0       0       0       0       0
       0       0       0       0       0       0       0       0       0       0
       0       0       0       0       0       0       0       0       0       0
       0       0       0       0       0       0       0       0       0       0
       0       0       0       0       0       0       0       0       0       0
       0       0       0       0       0       0       0       0       0       0
       0       0       0       0       0       0       0       0       0       0
       0       0       0       0       0       0       0       0       0       0
       0       0       0       0       0       0       0       0       0       0
       0       0       0       0       0       0       0       0       0       0
       0       0       0       0       0       0       0       0       0       0
       0       0       0       0       0       0       0       0       0       0
       0       0       0       0       0       0       0       0       0       0
       0       0       0       0       0       0       0       0       0       0
       0       0       0       0       0       0       0       0       0       0
       0       0       0       0       0       0       0       0       0       0
       0       0       0       0       0       0       0       0       0       0
       0       0       0       0       0       0       0       0       0       0
       0       0       0       0       0       0       0       0       0       0
       0       0       0       0       0       0       0       0       0       0
       0       0       0       0       0       0       0       0       0       0
       0       0       0       0       0       0       0       0       0       0
       0       0       0       0       0       0       0       0       0       0
       0       0       0       0       0       0       0       0       0       0
       0       0       0       0       0       0       0       0       0       0
       0       0       0       0       0       0       0       0       0       0
       0       0       0       0       0       0       0       0       0       0
       0       0       0       0       0       0       0       0       0       0
       0       0       0       0       0       0       0       0       0       0
       0       0       0       0       0       0       0       0       0       0
       0       0       0       0       0       0       0       0       0       0
       0       0       0       0       0       0       0       0       0       0
       0       0       0       0       0       0       0       0       0       0
       0       0       0       0       0       0       0       0       0       0
       0       0       0       0       0       0       0       0       0       0
       0       0       0       0       0       0       0       0       0       0
       0       0       0       0       0       0       0       0       0       0
       0       0       0       0       0       0       0       0       0       0
       0       0       0       0       0       0       0       0       0       0
       0       0       0       0       0       0       0       0       0       0
       0       0       0       0       0       0       0       0       0       0
       0       0       0       0       0       0       0       0       0       0
       0       0       0       0       0       0       0       0       0       0
       0       0       0       0       0       0       0       0       0       0
       0       0       0       0       0       0       0       0       0       0
       0       0       0       0       0       0       0       0       0       0
       0       0       0       0       0       0       0       0       0       0
       0       0       0       0       0       0       0       0       0       0
       0       0       0       0       0       0       0       0       0       0
       0       0       0       0       0       0       0       0       0       0
       0       0       0       0       0       0       0       0       0       0
       0       0       0       0       0       0       0       0       0       0
       0       0       0       0       0       0       0       0       0       0
       0       0       0       0       0       0       0       0       0       0
       0       0       0       0       0       0       0       0       0       0
       0       0       0       0       0       0       0       0       0       0
       0       0       0       0       0       0       0       0       0       0
       0       0       0       0       0       0       0       0       0       0
       0       0       0       0       0       0       0       0       0       0
       0       0       0       0       0       0       0       0       0       0
       0       0       0       0       0       0       0       0       0       0
       0       0       0       0       0       0       0       0       0       0
       0       0       0       0       0       0       0       0       0       0
       0       0       0       0       0       0       0       0       0       0
       0       0       0       0       0       0       0       0       0       0
       0       0       0       0       0       0       0       0       0       0
       0       0       0       0       0       0       0       0       0       0
       0       0       0       0       0       0       0       0       0       0
       0       0       0       0       0       0       0       0       0       0
       0       0       0       0       0       0       0       0       0       0
       0       0       0       0       0       0       0       0       0       0
       0       0       0       0       0       0       0       0       0       0
       0       0       0       0       0       0       0       0       0       0
       0       0       0       0       0       0       0       0       0       0
       0       0       0       0       0       0       0       0       0       0
       0       0       0       0       0       0       0       0       0       0
       0       0       0       0       0       0       0       0       0       0
       0       0       0       0       0       0       0       0       0       0
       0       0       0       0       0       0       0       0       0       0
       0       0       0       0       0       0       0       0       0       0
       0       0       0       0       0       0       0       0       0       0
       0       0       0       0       0       0       0       0       0       0
       0       0       0       0       0       0       0       0       0       0
       0       0       0       0       0       0       0       0       0       0
       0       0       0       0       0       0       0       0       0       0
       0       0       0       0       0       0       0       0       0       0
       0       0       0       0       0       0       0       0       0       0
       0       0       0       0       0       0       0       0       0       0
       0       0       0       0       0       0       0       0       0       0
       0       0       0       0       0       0       0       0       0       0
       0       0       0       0       0       0       0       0       0       0
       0       0       0       0       0       0       0       0       0       0
       0       0       0       0       0       0       0       0       0       0
       0       0       0       0       0       0       0       0       0       0
       0       0       0       0       0       0       0       0       0       0
       0       0       0       0       0       0       0       0       0       0
       0       0       0       0       0       0       0       0       0       0
       0       0       0       0       0       0       0       0       0       0
       0       0       0       0       0       0       0       0       0       0
       0       0       0       0       0       0       0       0       0       0
       0       0       0       0       0       0       0       0       0       0
       0       0       0       0       0       0       0       0       0       0
       0       0       0       0       0       0       0       0       0       0
       0       0       0       0       0       0       0       0       0       0
       0       0       0       0       0       0       0       0       0       0
       0       0       0       0       0       0       0       0       0       0
       0       0       0       0       0       0       0       0       0       0
       0       0       0       0       0       0       0       0       0       0
       0       0       0       0       0       0       0       0       0       0
       0       0       0       0       0       0       0       0       0       0
       0       0       0       0       0       0       0       0       0       0
       0       0       0       0       0       0       0       0       0       0
       0       0       0       0       0       0       0       0       0       0
       0       0       0       0       0       0       0       0       0       0
       0       0       0       0       0       0       0       0       0       0
       0       0       0       0       0       0       0       0       0       0
       0       0       0       0       0       0       0       0       0       0
       0       0       0       0       0       0       0       0       0       0
       0       0       0       0       0       0       0       0       0       0
       0       0       0       0       0       0       0       0       0       0
       0       0       0       0       0       0       0       0       0       0
       0       0       0       0       0       0       0       0       0       0
       0       0       0       0       0       0       0       0       0       0
       0       0       0       0       0       0       0       0       0       0
       0       0       0       0       0       0       0       0       0       0
       0       0       0       0       0       0       0       0       0       0
       0       0       0       0       0       0       0       0       0       0
       0       0       0       0       0       0       0       0       0       0
       0       0       0       0       0       0       0       0       0       0
       0       0       0       0       0       0       0       0       0       0
       0       0       0       0       0       0       0       0       0       0
       0       0       0       0       0       0       0       0       0       0
       0       0       0       0       0       0       0       0       0       0
       0       0       0       0       0       0       0       0       0       0
       0       0       0       0       0       0       0       0       0       0
       0       0       0       0       0       0       0       0       0       0
       0       0       0       0       0       0       0       0       0       0
       0       0       0       0       0       0       0       0       0       0
       0       0       0       0       0       0       0       0       0       0
       0       0       0       0       0       0       0       0       0       0
       0       0       0       0       0       0       0       0       0       0
       0       0       0       0       0       0       0       0       0       0
       0       0       0       0       0       0       0       0       0       0
       0       0       0       0       0       0       0       0       0       0
       0       0       0       0       0       0       0       0       0       0
       0       0       0       0       0       0       0       0       0       0
       0       0       0       0       0       0       0       0       0       0
       0       0       0       0       0       0       0       0       0       0
       0       0       0       0       0       0       0       0       0       0
       0       0       0       0       0       0       0       0       0       0
       0       0       0       0       0       0       0       0       0       0
       0       0       0       0       0       0       0       0       0       0
       0       0       0       0       0       0       0       0       0       0
       0       0       0       0       0       0       0       0       0       0
       0       0       0       0       0       0       0       0       0       0
       0       0       0       0       0       0       0       0       0       0
       0       0       0       0       0       0       0       0       0       0
       0       0       0       0       0       0       0       0       0       0
       0       0       0       0       0       0       0       0       0       0
       0       0       0       0       0       0       0       0       0       0
       0       0       0       0       0       0       0       0       0       0
       0       0       0       0       0       0       0       0       0       0
       0       0       0       0       0       0       0       0       0       0
       0       0       0       0       0       0       0       0       0       0
       0       0       0       0       0       0       0       0       0       0
       0       0       0       0       0       0       0       0       0       0
       0       0       0       0       0       0       0       0       0       0
       0       0       0       0       0       0       0       0       0       0
       0       0       0       0       0       0       0       0       0       0
       0       0       0       0       0       0       0       0       0       0
       0       0       0       0       0       0       0       0       0       0
       0       0       0       0       0       0       0       0       0       0
       0       0       0       0       0       0       0       0       0       0
       0       0       0       0       0       0       0       0       0       0
       0       0       0       0       0       0       0       0       0       0
       0       0       0       0       0       0       0       0       0       0
       0       0       0       0       0       0       0       0       0       0
       0       0       0       0       0       0       0       0       0       0
       0       0       0       0       0       0       0       0       0       0
       0       0       0       0       0       0       0       0       0       0
       0       0       0       0       0       0       0       0       0       0
       0       0       0       0       0       0       0       0       0       0
       0       0       0       0       0       0       0       0       0       0
       0       0       0       0       0       0       0       0       0       0
       0       0       0       0       0       0       0       0       0       0
       0       0       0       0       0       0       0       0       0       0
       0       0       0       0       0       0       0       0       0       0
       0       0       0       0       0       0       0       0       0       0
       0       0       0       0       0       0       0       0       0       0
       0       0       0       0       0       0       0       0       0       0
       0       0       0       0       0       0       0       0       0       0
       0       0       0       0       0       0       0       0       0       0
       0       0       0       0       0       0       0       0       0       0
       0       0       0       0       0       0       0       0       0       0
       0       0       0       0       0       0       0       0       0       0
       0       0       0       0       0       0       0       0       0       0
       0       0       0       0       0       0       0       0       0       0
       0       0       0       0       0       0       0       0       0       0
       0       0       0       0       0       0       0       0       0       0
       0       0       0       0       0       0       0       0       0       0
       0       0       0       0       0       0       0       0       0       0
       0       0       0       0       0       0       0       0       0       0
       0       0       0       0       0       0       0       0       0       0
       0       0       0       0       0       0       0       0       0       0
       0       0       0       0       0       0       0       0       0       0
       0       0       0       0       0       0       0       0       0       0
       0       0       0       0       0       0       0       0       0       0
       0       0       0       0       0       0       0       0       0       0
       0       0       0       0       0       0       0       0       0       0
       0       0       0       0       0       0       0       0       0       0
       0       0       0       0       0       0       0       0       0       0
       0       0       0       0       0       0       0       0       0       0
       0       0       0       0       0       0       0       0       0       0
       0       0       0       0       0       0       0       0       0       0
       0       0       0       0       0       0       0       0       0       0
       0       0       0       0       0       0       0       0       0       0
       0       0       0       0       0       0       0       0       0       0
       0       0       0       0       0       0       0       0       0       0
       0       0       0       0       0       0       0       0       0       0
       0       0       0       0       0       0       0       0       0       0
       0       0       0       0       0       0       0       0       0       0
       0       0       0       0       0       0       0       0       0       0
       0       0       0       0       0       0       0       0       0       0
       0       0       0       0       0       0       0       0       0       0
       0       0       0       0       0       0       0       0       0       0
       0       0       0       0       0       0       0       0       0       0
       0       0       0       0       0       0       0       0       0       0
       0       0       0       0       0       0       0       0       0       0
       0       0       0       0       0       0       0       0       0       0
       0       0       0       0       0       0       0       0       0       0
       0       0       0       0       0       0       0       0       0       0
       0       0       0       0       0       0       0       0       0       0
       0       0       0       0       0       0       0       0       0       0
       0       0       0       0       0       0       0       0       0       0
       0       0       0       0       0       0       0       0       0       0
       0       0       0       0       0       0       0       0       0       0
       0       0       0       0       0       0       0       0       0       0
       0       0       0       0       0       0       0       0       0       0
       0       0       0       0       0       0       0       0       0       0
       0       0       0       0       0       0       0       0       0       0
       0       0       0       0       0       0       0       0       0       0
       0       0       0       0       0       0       0       0       0       0
       0       0       0       0       0       0       0       0       0       0
       0       0       0       0       0       0       0       0       0       0
       0       0       0       0       0       0       0       0       0       0
       0       0       0       0       0       0       0       0       0       0
       0       0       0       0       0       0       0       0       0       0
       0       0       0       0       0       0       0       0       0       0
       0       0       0       0       0       0       0       0       0       0
       0       0       0       0       0       0       0       0       0       0
       0       0       0       0       0       0       0       0       0       0
       0       0       0       0       0       0       0       0       0       0
       0       0       0       0       0       0       0       0       0       0
       0       0       0       0       0       0       0       0       0       0
       0       0       0       0       0       0       0       0       0       0
       0       0       0       0       0       0       0       0       0       0
       0       0       0       0       0       0       0       0       0       0
       0       0       0       0       0       0       0       0       0       0
       0       0       0       0       0       0       0       0       0       0
       0       0       0       0       0       0       0       0       0       0
       0       0       0       0       0       0       0       0       0       0
       0       0       0       0       0       0       0       0       0       0
       0       0       0       0       0       0       0       0       0       0
       0       0       0       0       0       0       0       0       0       0
       0       0       0       0       0       0       0       0       0       0
       0       0       0       0       0       0       0       0       0       0
       0       0       0       0       0       0       0       0       0       0
       0       0       0       0       0       0       0       0       0       0
       0       0       0       0       0       0       0       0       0       0
       0       0       0       0       0       0       0       0       0       0
       0       0       0       0       0       0       0       0       0       0
       0       0       0       0       0       0       0       0       0       0
       0       0       0       0       0       0       0       0       0       0
       0       0       0       0       0       0       0       0       0       0
       0       0       0       0       0       0       0       0       0       0
       0       0       0       0       0       0       0       0       0       0
       0       0       0       0       0       0       0       0       0       0
       0       0       0       0       0       0       0       0       0       0
       0       0       0       0       0       0       0       0       0       0
       0       0       0       0       0       0       0       0       0       0
       0       0       0       0       0       0       0       0       0       0
       0       0       0       0       0       0       0       0       0       0
       0       0       0       0       0       0       0       0       0       0
       0       0       0       0       0       0       0       0       0       0
       0       0       0       0       0       0       0       0       0       0
       0       0       0       0       0       0       0       0       0       0
       0       0       0       0       0       0       0       0       0       0
       0       0       0       0       0       0       0       0       0       0
       0       0       0       0       0       0       0       0       0       0
       0       0       0       0       0       0       0       0       0       0
       0       0       0       0       0       0       0       0       0       0
       0       0       0       0       0       0       0       0       0       0
       0       0       0       0       0       0       0       0       0       0
       0       0       0       0       0       0       0       0       0       0
       0       0       0       0       0       0       0       0       0       0
       0       0       0       0       0       0       0       0       0       0
       0       0       0       0       0       0       0       0       0       0
       0       0       0       0       0       0       0       0       0       0
       0       0       0       0       0       0       0       0       0       0
       0       0       0       0       0       0       0       0       0       0
       0       0       0       0       0       0       0       0       0       0
       0       0       0       0       0       0       0       0       0       0
       0       0       0       0       0       0       0       0       0       0
       0       0       0       0       0       0       0       0       0       0
       0       0       0       0       0       0       0       0       0       0
       0       0       0       0       0       0       0       0       0       0
       0       0       0       0       0       0       0       0       0       0
       0       0       0       0       0       0       0       0       0       0
       0       0       0       0       0       0       0       0       0       0
       0       0       0       0       0       0       0       0       0       0
       0       0       0       0       0       0       0       0       0       0
       0       0       0       0       0       0       0       0       0       0
       0       0       0       0       0       0       0       0       0       0
       0       0       0       0       0       0       0       0       0       0
       0       0       0       0       0       0       0       0       0       0
       0       0       0       0       0       0       0       0       0       0
       0       0       0       0       0       0       0       0       0       0
       0       0       0       0       0       0       0       0       0       0
       0       0       0       0       0       0       0       0       0       0
       0       0       0       0       0       0       0       0       0       0
       0       0       0       0       0       0       0       0       0       0
       0       0       0       0       0       0       0       0       0       0
       0       0       0       0       0       0       0       0       0       0
       0       0       0       0       0       0       0       0       0       0
       0       0       0       0       0       0       0       0       0       0
       0       0       0       0       0       0       0       0       0       0
       0       0       0       0       0       0       0       0       0       0
       0       0       0       0       0       0       0       0       0       0
       0       0       0       0       0       0       0       0       0       0
       0       0       0       0       0       0       0       0       0       0
       0       0       0       0       0       0       0       0       0       0
       0       0       0       0       0       0       0       0       0       0
       0       0       0       0       0       0       0       0       0       0
       0       0       0       0       0       0       0       0       0       0
       0       0       0       0       0       0       0       0       0       0
       0       0       0       0       0       0       0       0       0       0
       0       0       0       0       0       0       0       0       0       0
       0       0       0       0       0       0       0       0       0       0
       0       0       0       0       0       0       0       0       0       0
       0       0       0       0       0       0       0       0       0       0
       0       0       0       0       0       0       0       0       0       0
       0       0       0       0       0       0       0       0       0       0
       0       0       0       0       0       0       0       0       0       0
       0       0       0       0       0       0       0       0       0       0
       0       0       0       0       0       0       0       0       0       0
       0       0       0       0       0       0       0       0       0       0
       0       0       0       0       0       0       0       0       0       0
       0       0       0       0       0       0       0       0       0       0
       0       0       0       0       0       0       0       0       0       0
       0       0       0       0       0       0       0       0       0       0
       0       0       0       0       0       0       0       0       0       0
       0       0       0       0       0       0       0       0       0       0
       0       0       0       0       0       0       0       0       0       0
       0       0       0       0       0       0       0       0       0       0
       0       0       0       0       0       0       0       0       0       0
       0       0       0       0       0       0       0       0       0       0
       0       0       0       0       0       0       0       0       0       0
       0       0       0       0       0       0       0       0       0       0
       0       0       0       0       0       0       0       0       0       0
       0       0       0       0       0       0       0       0       0       0
       0       0       0       0       0       0       0       0       0       0
       0       0       0       0       0       0       0       0       0       0
       0       0       0       0       0       0       0       0       0       0
       0       0       0       0       0       0       0       0       0       0
       0       0       0       0       0       0       0       0       0       0
       0       0       0       0       0       0       0       0       0       0
       0       0       0       0       0       0       0       0       0       0
       0       0       0       0       0       0       0       0       0       0
       0       0       0       0       0       0       0       0       0       0
       0       0       0       0       0       0       0       0       0       0
       0       0       0       0       0       0       0       0       0       0
       0       0       0       0       0       0       0       0       0       0
       0       0       0       0       0       0       0       0       0       0
       0       0       0       0       0       0       0       0       0       0
       0       0       0       0       0       0       0       0       0       0
       0       0       0       0       0       0       0       0       0       0
       0       0       0       0       0       0       0       0       0       0
       0       0       0       0       0       0       0       0       0       0
       0       0       0       0       0       0       0       0       0       0
       0       0       0       0       0       0       0       0       0       0
       0       0       0       0       0       0       0       0       0       0
       0       0       0       0       0       0       0       0       0       0
       0       0       0       0       0       0       0       0       0       0
       0       0       0       0       0       0       0       0       0       0
       0       0       0       0       0       0       0       0       0       0
       0       0       0       0       0       0       0       0       0       0
       0       0       0       0       0       0       0       0       0       0
       0       0       0       0       0       0       0       0       0       0
       0       0       0       0       0       0       0       0       0       0
       0       0       0       0       0       0       0       0       0       0
       0       0       0       0       0       0       0       0       0       0
       0       0       0       0       0       0       0       0       0       0
       0       0       0       0       0       0       0       0       0       0
       0       0       0       0       0       0       0       0       0       0
       0       0       0       0       0       0       0       0       0       0
       0       0       0       0       0       0       0       0       0       0
       0       0       0       0       0       0       0       0       0       0
       0       0       0       0       0       0       0       0       0       0
       0       0       0       0       0       0       0       0       0       0
       0       0       0       0       0       0       0       0       0       0
       0       0       0       0       0       0       0       0       0       0
       0       0       0       0       0       0       0       0       0       0
       0       0       0       0       0       0       0       0       0       0
       0       0       0       0       0       0       0       0       0       0
       0       0       0       0       0       0       0       0       0       0
       0       0       0       0       0       0       0       0       0       0
       0       0       0       0       0       0       0       0       0       0
       0       0       0       0       0       0       0       0       0       0
       0       0       0       0       0       0       0       0       0       0
       0       0       0       0       0       0       0       0       0       0
       0       0       0       0       0       0       0       0       0       0
       0       0       0       0       0       0       0       0       0       0
       0       0       0       0       0       0       0       0       0       0
       0       0       0       0       0       0       0       0       0       0
       0       0       0       0       0       0       0       0       0       0
       0       0       0       0       0       0       0       0       0       0
       0       0       0       0       0       0       0       0       0       0
       0       0       0       0       0       0       0       0       0       0
       0       0       0       0       0       0       0       0       0       0
       0       0       0       0       0       0       0       0       0       0
       0       0       0       0       0       0       0       0       0       0
       0       0       0       0       0       0       0       0       0       0
       0       0       0       0       0       0       0       0       0       0
       0       0       0       0       0       0       0       0       0       0
       0       0       0       0       0       0       0       0       0       0
       0       0       0       0       0       0       0       0       0       0
       0       0       0       0       0       0       0       0       0       0
       0       0       0       0       0       0       0       0       0       0
       0       0       0       0       0       0       0       0       0       0
       0       0       0       0       0       0       0       0       0       0
       0       0       0       0       0       0       0       0       0       0
       0       0       0       0       0       0       0       0       0       0
       0       0       0       0       0       0       0       0       0       0
       0       0       0       0       0       0       0       0       0       0
       0       0       0       0       0       0       0       0       0       0
       0       0       0       0       0       0       0       0       0       0
       0       0       0       0       0       0       0       0       0       0
       0       0       0       0       0       0       0       0       0       0
       0       0       0       0       0       0       0       0       0       0
       0       0       0       0       0       0       0       0       0       0
       0       0       0       0       0       0       0       0       0       0
       0       0       0       0       0       0       0       0       0       0
       0       0       0       0       0       0       0       0       0       0
       0       0       0       0       0       0       0       0       0       0
       0       0       0       0       0       0       0       0       0       0
       0       0       0       0       0       0       0       0       0       0
       0       0       0       0       0       0       0       0       0       0
       0       0       0       0       0       0       0       0       0       0
       0       0       0       0       0       0       0       0       0       0
       0       0       0       0       0       0       0       0       0       0
       0       0       0       0       0       0       0       0       0       0
       0       0       0       0       0       0       0       0       0       0
       0       0       0       0       0       0       0       0       0       0
       0       0       0       0       0       0       0       0       0       0
       0       0       0       0       0       0       0       0       0       0
       0       0       0       0       0       0       0       0       0       0
       0       0       0       0       0       0       0       0       0       0
       0       0       0       0       0       0       0       0       0       0
       0       0       0       0       0       0       0       0       0       0
       0       0       0       0       0       0       0       0       0       0
       0       0       0       0       0       0       0       0       0       0
       0       0       0       0       0       0       0       0       0       0
       0       0       0       0       0       0       0       0       0       0
       0       0       0       0       0       0       0       0       0       0
       0       0       0       0       0       0       0       0       0       0
       0       0       0       0       0       0       0       0       0       0
       0       0       0       0       0       0       0       0       0       0
       0       0       0       0       0       0       0       0       0       0
       0       0       0       0       0       0       0       0       0       0
       0       0       0       0       0       0       0       0       0       0
       0       0       0       0       0       0       0       0       0       0
       0       0       0       0       0       0       0       0       0       0
       0       0       0       0       0       0       0       0       0       0
       0       0       0       0       0       0       0       0       0       0
       0       0       0       0       0       0       0       0       0       0
       0       0       0       0       0       0       0       0       0       0
       0       0       0       0       0       0       0       0       0       0
       0       0       0       0       0       0       0       0       0       0
       0       0       0       0       0       0       0       0       0       0
       0       0       0       0       0       0       0       0       0       0
       0       0       0       0       0       0       0       0       0       0
       0       0       0       0       0       0       0       0       0       0
       0       0       0       0       0       0       0       0       0       0
       0       0       0       0       0       0       0       0       0       0
       0       0       0       0       0       0       0       0       0       0
       0       0       0       0       0       0       0       0       0       0
       0       0       0       0       0       0       0       0       0       0
       0       0       0       0       0       0       0       0       0       0
       0       0       0       0       0       0       0       0       0       0
       0       0       0       0       0       0       0       0       0       0
       0       0       0       0       0       0       0       0       0       0
       0       0       0       0       0       0       0       0       0       0
       0       0       0       0       0       0       0       0       0       0
       0       0       0       0       0       0       0       0       0       0
       0       0       0       0       0       0       0       0       0       0
       0       0       0       0       0       0       0       0       0       0
       0       0       0       0       0       0       0       0       0       0
       0       0       0       0       0       0       0       0       0       0
       0       0       0       0       0       0       0       0       0       0
       0       0       0       0       0       0       0       0       0       0
       0       0       0       0       0       0       0       0       0       0
       0       0       0       0       0       0       0       0       0       0
       0       0       0       0       0       0       0       0       0       0
       0       0       0       0       0       0       0       0       0       0
       0       0       0       0       0       0       0       0       0       0
       0       0       0       0       0       0       0       0       0       0
       0       0       0       0       0       0       0       0       0       0
       0       0       0       0       0       0       0       0       0       0
       0       0       0       0       0       0       0       0       0       0
       0       0       0       0       0       0       0       0       0       0
       0       0       0       0       0       0       0       0       0       0
       0       0       0       0       0       0       0       0       0       0
       0       0       0       0       0       0       0       0       0       0
       0       0       0       0       0       0       0       0       0       0
       0       0       0       0       0       0       0       0       0       0
       0       0       0       0       0       0       0       0       0       0
       0       0       0       0       0       0       0       0       0       0
       0       0       0       0       0       0       0       0       0       0
       0       0       0       0       0       0       0       0       0       0
       0       0       0       0       0       0       0       0       0       0
       0       0       0       0       0       0       0       0       0       0
       0       0       0       0       0       0       0       0       0       0
       0       0       0       0       0       0       0       0       0       0
       0       0       0       0       0       0       0       0       0       0
       0       0       0       0       0       0       0       0       0       0
       0       0       0       0       0       0       0       0       0       0
       0       0       0       0       0       0       0       0       0       0
       0       0       0       0       0       0       0       0       0       0
       0       0       0       0       0       0       0       0       0       0
       0       0       0       0       0       0       0       0       0       0
       0       0       0       0       0       0       0       0       0       0
       0       0       0       0       0       0       0       0       0       0
       0       0       0       0       0       0       0       0       0       0
       0       0       0       0       0       0       0       0       0       0
       0       0       0       0       0       0       0       0       0       0
       0       0       0       0       0       0       0       0       0       0
       0       0       0       0       0       0       0       0       0       0
       0       0       0       0       0       0       0       0       0       0
       0       0       0       0       0       0       0       0       0       0
       0       0       0       0       0       0       0       0       0       0
       0       0       0       0       0       0       0       0       0       0
       0       0       0       0       0       0       0       0       0       0
       0       0       0       0       0       0       0       0       0       0
       0       0       0       0       0       0       0       0       0       0
       0       0       0       0       0       0       0       0       0       0
       0       0       0       0       0       0       0       0       0       0
       0       0       0       0       0       0       0       0       0       0
       0       0       0       0       0       0       0       0       0       0
       0       0       0       0       0       0       0       0       0       0
       0       0       0       0       0       0       0       0       0       0
       0       0       0       0       0       0       0       0       0       0
       0       0       0       0       0       0       0       0       0       0
       0       0       0       0       0       0       0       0       0       0
       0       0       0       0       0       0       0       0       0       0
       0       0       0       0       0       0       0       0       0       0
       0       0       0       0       0       0       0       0       0       0
       0       0       0       0       0       0       0       0       0       0
       0       0       0       0       0       0       0       0       0       0
       0       0       0       0       0       0       0       0       0       0
       0       0       0       0       0       0       0       0       0       0
       0       0       0       0       0       0       0       0       0       0
       0       0       0       0       0       0       0       0       0       0
       0       0       0       0       0       0       0       0       0       0
       0       0       0       0       0       0       0       0       0       0
       0       0       0       0       0       0       0       0       0       0
       0       0       0       0       0       0       0       0       0       0
       0       0       0       0       0       0       0       0       0       0
       0       0       0       0       0       0       0       0       0       0
       0       0       0       0       0       0       0       0       0       0
       0       0       0       0       0       0       0       0       0       0
       0       0       0       0       0       0       0       0       0       0
       0       0       0       0       0       0       0       0       0       0
       0       0       0       0       0       0       0       0       0       0
       0       0       0       0       0       0       0       0       0       0
       0       0       0       0       0       0       0       0       0       0
       0       0       0       0       0       0       0       0       0       0
       0       0       0       0       0       0       0       0       0       0
       0       0       0       0       0       0       0       0       0       0
       0       0       0       0       0       0       0       0       0       0
       0       0       0       0       0       0       0       0       0       0
       0       0       0       0       0       0       0       0       0       0
       0       0       0       0       0       0       0       0       0       0
       0       0       0       0       0       0       0       0       0       0
       0       0       0       0       0       0       0       0       0       0
       0       0       0       0       0       0       0       0       0       0
       0       0       0       0       0       0       0       0       0       0
       0       0       0       0       0       0       0       0       0       0
       0       0       0       0       0       0       0       0       0       0
       0       0       0       0       0       0       0       0       0       0
       0       0       0       0       0       0       0       0       0       0
       0       0       0       0       0       0       0       0       0       0
       0       0       0       0       0       0       0       0       0       0
       0       0       0       0       0       0       0       0       0       0
       0       0       0       0       0       0       0       0       0       0
       0       0       0       0       0       0       0       0       0       0
       0       0       0       0       0       0       0       0       0       0
       0       0       0       0       0       0       0       0       0       0
       0       0       0       0       0       0       0       0       0       0
       0       0       0       0       0       0       0       0       0       0
       0       0       0       0       0       0       0       0       0       0
       0       0       0       0       0       0       0       0       0       0
       0       0       0       0       0       0       0       0       0       0
       0       0       0       0       0       0       0       0       0       0
       0       0       0       0       0       0       0       0       0       0
       0       0       0       0       0       0       0       0       0       0
       0       0       0       0       0       0       0       0       0       0
       0       0       0       0       0       0       0       0       0       0
       0       0       0       0       0       0       0       0       0       0
       0       0       0       0       0       0       0       0       0       0
       0       0       0       0       0       0       0       0       0       0
       0       0       0       0       0       0       0       0       0       0
       0       0       0       0       0       0       0       0       0       0
       0       0       0       0       0       0       0       0       0       0
       0       0       0       0       0       0       0       0       0       0
       0       0       0       0       0       0       0       0       0       0
       0       0       0       0       0       0       0       0       0       0
       0       0       0       0       0       0       0       0       0       0
       0       0       0       0       0       0       0       0       0       0
       0       0       0       0       0       0       0       0       0       0
       0       0       0       0       0       0       0       0       0       0
       0       0       0       0       0       0       0       0       0       0
       0       0       0       0       0       0       0       0       0       0
       0       0       0       0       0       0       0       0       0       0
       0       0       0       0       0       0       0       0       0       0
       0       0       0       0       0       0       0       0       0       0
       0       0       0       0       0       0       0       0       0       0
       0       0       0       0       0       0       0       0       0       0
       0       0       0       0       0       0       0       0       0       0
       0       0       0       0       0       0       0       0       0       0
       0       0       0       0       0       0       0       0       0       0
       0       0       0       0       0       0       0       0       0       0
       0       0       0       0       0       0       0       0       0       0
       0       0       0       0       0       0       0       0       0       0
       0       0       0       0       0       0       0       0       0       0
       0       0       0       0       0       0       0       0       0       0
       0       0       0       0       0       0       0       0       0       0
       0       0       0       0       0       0       0       0       0       0
       0       0       0       0       0       0       0       0       0       0
       0       0       0       0       0       0       0       0       0       0
       0       0       0       0       0       0       0       0       0       0
       0       0       0       0       0       0       0       0       0       0
       0       0       0       0       0       0       0       0       0       0
       0       0       0       0       0       0       0       0       0       0
       0       0       0       0       0       0       0       0       0       0
       0       0       0       0       0       0       0       0       0       0
       0       0       0       0       0       0       0       0       0       0
       0       0       0       0       0       0       0       0       0       0
       0       0       0       0       0       0       0       0       0       0
       0       0       0       0       0       0       0       0       0       0
       0       0       0       0       0       0       0       0       0       0
       0       0       0       0       0       0       0       0       0       0
       0       0       0       0       0       0       0       0       0       0
       0       0       0       0       0       0       0       0       0       0
       0       0       0       0       0       0       0       0       0       0
       0       0       0       0       0       0       0       0       0       0
       0       0       0       0       0       0       0       0       0       0
       0       0       0       0       0       0       0       0       0       0
       0       0       0       0       0       0       0       0       0       0
       0       0       0       0       0       0       0       0       0       0
       0       0       0       0       0       0       0       0       0       0
       0       0       0       0       0       0       0       0       0       0
       0       0       0       0       0       0       0       0       0       0
       0       0       0       0       0       0       0       0       0       0
       0       0       0       0       0       0       0       0       0       0
       0       0       0       0       0       0       0       0       0       0
       0       0       0       0       0       0       0       0       0       0
       0       0       0       0       0       0       0       0       0       0
       0       0       0       0       0       0       0       0       0       0
       0       0       0       0       0       0       0       0       0       0
       0       0       0       0       0       0       0       0       0       0
       0       0       0       0       0       0       0       0       0       0
       0       0       0       0       0       0       0       0       0       0
       0       0       0       0       0       0       0       0       0       0
       0       0       0       0       0       0       0       0       0       0
       0       0       0       0       0       0       0       0       0       0
       0       0       0       0       0       0       0       0       0       0
       0       0       0       0       0       0       0       0       0       0
       0       0       0       0       0       0       0       0       0       0
       0       0       0       0       0       0       0       0       0       0
       0       0       0       0       0       0       0       0       0       0
       0       0       0       0       0       0       0       0       0       0
       0       0       0       0       0       0       0       0       0       0
       0       0       0       0       0       0       0       0       0       0
       0       0       0       0       0       0       0       0       0       0
       0       0       0       0       0       0       0       0       0       0
       0       0       0       0       0       0       0       0       0       0
       0       0       0       0       0       0       0       0       0       0
       0       0       0       0       0       0       0       0       0       0
       0       0       0       0       0       0       0       0       0       0
       0       0       0       0       0       0       0       0       0       0
       0       0       0       0       0       0       0       0       0       0
       0       0       0       0       0       0       0       0       0       0
       0       0       0       0       0       0       0       0       0       0
       0       0       0       0       0       0       0       0       0       0
       0       0       0       0       0       0       0       0       0       0
       0       0       0       0       0       0       0       0       0       0
       0       0       0       0       0       0       0       0       0       0
       0       0       0       0       0       0       0       0       0       0
       0       0       0       0       0       0       0       0       0       0
       0       0       0       0       0       0       0       0       0       0
       0       0       0       0       0       0       0       0       0       0
       0       0       0       0       0       0       0       0       0       0
       0       0       0       0       0       0       0       0       0       0
       0       0       0       0       0       0       0       0       0       0
       0       0       0       0       0       0       0       0       0       0
       0       0       0       0       0       0       0       0       0       0
       0       0       0       0       0       0       0       0       0       0
       0       0       0       0       0       0       0       0       0       0
       0       0       0       0       0       0       0       0       0       0
       0       0       0       0       0       0       0       0       0       0
       0       0       0       0       0       0       0       0       0       0
       0       0       0       0       0       0       0       0       0       0
       0       0       0       0       0       0       0       0       0       0
       0       0       0       0       0       0       0       0       0       0
       0       0       0       0       0       0       0       0       0       0
       0       0       0       0       0       0       0       0       0       0
       0       0       0       0       0       0       0       0       0       0
       0       0       0       0       0       0       0       0       0       0
       0       0       0       0       0       0       0       0       0       0
       0       0       0       0       0       0       0       0       0       0
       0       0       0       0       0       0       0       0       0       0
       0       0       0       0       0       0       0       0       0       0
       0       0       0       0       0       0       0       0       0       0
       0       0       0       0       0       0       0       0       0       0
       0       0       0       0       0       0       0       0       0       0
       0       0       0       0       0       0       0       0       0       0
       0       0       0       0       0       0       0       0       0       0
       0       0       0       0       0       0       0       0       0       0
       0       0       0       0       0       0       0       0       0       0
       0       0       0       0       0       0       0       0       0       0
       0       0       0       0       0       0       0       0       0       0
       0       0       0       0       0       0       0       0       0       0
       0       0       0       0       0       0       0       0       0       0
       0       0       0       0       0       0       0       0       0       0
       0       0       0       0       0       0       0       0       0       0
       0       0       0       0       0       0       0       0       0       0
       0       0       0       0       0       0       0       0       0       0
       0       0       0       0       0       0       0       0       0       0
       0       0       0       0       0       0       0       0       0       0
       0       0       0       0       0       0       0       0       0       0
       0       0       0       0       0       0       0       0       0       0
       0       0       0       0       0       0       0       0       0       0
       0       0       0       0       0       0       0       0       0       0
       0       0       0       0       0       0       0       0       0       0
       0       0       0       0       0       0       0       0       0       0
       0       0       0       0       0       0       0       0       0       0
       0       0       0       0       0       0       0       0       0       0
       0       0       0       0       0       0       0       0       0       0
       0       0       0       0       0       0       0       0       0       0
       0       0       0       0       0       0       0       0       0       0
       0       0       0       0       0       0       0       0       0       0
       0       0       0       0       0       0       0       0       0       0
       0       0       0       0       0       0       0       0       0       0
       0       0       0       0       0       0       0       0       0       0
       0       0       0       0       0       0       0       0       0       0
       0       0       0       0       0       0       0       0       0       0
       0       0       0       0       0       0       0       0       0       0
       0       0       0       0       0       0       0       0       0       0
       0       0       0       0       0       0       0       0       0       0
       0       0       0       0       0       0       0       0       0       0
       0       0       0       0       0       0       0       0       0       0
       0       0       0       0       0       0       0       0       0       0
       0       0       0       0       0       0       0       0       0       0
       0       0       0       0       0       0       0       0       0       0
       0       0       0       0       0       0       0       0       0       0
       0       0       0       0       0       0       0       0       0       0
       0       0       0       0       0       0       0       0       0       0
       0       0       0       0       0       0       0       0       0       0
       0       0       0       0       0       0       0       0       0       0
       0       0       0       0       0       0       0       0       0       0
       0       0       0       0       0       0       0       0       0       0
       0       0       0       0       0       0       0       0       0       0
       0       0       0       0       0       0       0       0       0       0
       0       0       0       0       0       0       0       0       0       0
       0       0       0       0       0       0       0       0       0       0
       0       0       0       0       0       0       0       0       0       0
       0       0       0       0       0       0       0       0       0       0
       0       0       0       0       0       0       0       0       0       0
       0       0       0       0       0       0       0       0       0       0
       0       0       0       0       0       0       0       0       0       0
       0       0       0       0       0       0       0       0       0       0
       0       0       0       0       0       0       0       0       0       0
       0       0       0       0       0       0       0       0       0       0
       0       0       0       0       0       0       0       0       0       0
       0       0       0       0       0       0       0       0       0       0
       0       0       0       0       0       0       0       0       0       0
       0       0       0       0       0       0       0       0       0       0
       0       0       0       0       0       0       0       0       0       0
       0       0       0       0       0       0       0       0       0       0
       0       0       0       0       0       0       0       0       0       0
       0       0       0       0       0       0       0       0       0       0
       0       0       0       0       0       0       0       0       0       0
       0       0       0       0       0       0       0       0       0       0
       0       0       0       0       0       0       0       0       0       0
       0       0       0       0       0       0       0       0       0       0
       0       0       0       0       0       0       0       0       0       0
       0       0       0       0       0       0       0       0       0       0
       0       0       0       0       0       0       0       0       0       0
       0       0       0       0       0       0       0       0       0       0
       0       0       0       0       0       0       0       0       0       0
       0       0       0       0       0       0       0       0       0       0
       0       0       0       0       0       0       0       0       0       0
       0       0       0       0       0       0       0       0       0       0
       0       0       0       0       0       0       0       0       0       0
       0       0       0       0       0       0       0       0       0       0
       0       0       0       0       0       0       0       0       0       0
       0       0       0       0       0       0       0       0       0       0
       0       0       0       0       0       0       0       0       0       0
       0       0       0       0       0       0       0       0       0       0
       0       0       0       0       0       0       0       0       0       0
       0       0       0       0       0       0       0       0       0       0
       0       0       0       0       0       0       0       0       0       0
       0       0       0       0       0       0       0       0       0       0
       0       0       0       0       0       0       0       0       0       0
       0       0       0       0       0       0       0       0       0       0
       0       0       0       0       0       0       0       0       0       0
       0       0       0       0       0       0       0       0       0       0
       0       0       0       0       0       0       0       0       0       0
       0       0       0       0       0       0       0       0       0       0
       0       0       0       0       0       0       0       0       0       0
       0       0       0       0       0       0       0       0       0       0
       0       0       0       0       0       0       0       0       0       0
       0       0       0       0       0       0       0       0       0       0
       0       0       0       0       0       0       0       0       0       0
       0       0       0       0       0       0       0       0       0       0
       0       0       0       0       0       0       0       0       0       0
       0       0       0       0       0       0       0       0       0       0
       0       0       0       0       0       0       0       0       0       0
       0       0       0       0       0       0       0       0       0       0
       0       0       0       0       0       0       0       0       0       0
       0       0       0       0       0       0       0       0       0       0
       0       0       0       0       0       0       0       0       0       0
       0       0       0       0       0       0       0       0       0       0
       0       0       0       0       0       0       0       0       0       0
       0       0       0       0       0       0       0       0       0       0
       0       0       0       0       0       0       0       0       0       0
       0       0       0       0       0       0       0       0       0       0
       0       0       0       0       0       0       0       0       0       0
       0       0       0       0       0       0       0       0       0       0
       0       0       0       0       0       0       0       0       0       0
       0       0       0       0       0       0       0       0       0       0
       0       0       0       0       0       0       0       0       0       0
       0       0       0       0       0       0       0       0       0       0
       0       0       0       0       0       0       0       0       0       0
       0       0       0       0       0       0       0       0       0       0
       0       0       0       0       0       0       0       0       0       0
       0       0       0       0       0       0       0       0       0       0
       0       0       0       0       0       0       0       0       0       0
       0       0       0       0       0       0       0       0       0       0
       0       0       0       0       0       0       0       0       0       0
       0       0       0       0       0       0       0       0       0       0
       0       0       0       0       0       0       0       0       0       0
       0       0       0       0       0       0       0       0       0       0
       0       0       0       0       0       0       0       0       0       0
       0       0       0       0       0       0       0       0       0       0
       0       0       0       0       0       0       0       0       0       0
       0       0       0       0       0       0       0       0       0       0
       0       0       0       0       0       0       0       0       0       0
       0       0       0       0       0       0       0       0       0       0
       0       0       0       0       0       0       0       0       0       0
       0       0       0       0       0       0       0       0       0       0
       0       0       0       0       0       0       0       0       0       0
       0       0       0       0       0       0       0       0       0       0
       0       0       0       0       0       0       0       0       0       0
       0       0       0       0       0       0       0       0       0       0
       0       0       0       0       0       0       0       0       0       0
       0       0       0       0       0       0       0       0       0       0
       0       0       0       0       0       0       0       0       0       0
       0       0       0       0       0       0       0       0       0       0
       0       0       0       0       0       0       0       0       0       0
       0       0       0       0       0       0       0       0       0       0
       0       0       0       0       0       0       0       0       0       0
       0       0       0       0       0       0       0       0       0       0
       0       0       0       0       0       0       0       0       0       0
       0       0       0       0       0       0       0       0       0       0
       0       0       0       0       0       0       0       0       0       0
       0       0       0       0       0       0       0       0       0       0
       0       0       0       0       0       0       0       0       0       0
       0       0       0       0       0       0       0       0       0       0
       0       0       0       0       0       0       0       0       0       0
       0       0       0       0       0       0       0       0       0       0
       0       0       0       0       0       0       0       0       0       0
       0       0       0       0       0       0       0       0       0       0
       0       0       0       0       0       0       0       0       0       0
       0       0       0       0       0       0       0       0       0       0
       0       0       0       0       0       0       0       0       0       0
       0       0       0       0       0       0       0       0       0       0
       0       0       0       0       0       0       0       0       0       0
       0       0       0       0       0       0       0       0       0       0
       0       0       0       0       0       0       0       0       0       0
       0       0       0       0       0       0       0       0       0       0
       0       0       0       0       0       0       0       0       0       0
       0       0       0       0       0       0       0       0       0       0
       0       0       0       0       0       0       0       0       0       0
       0       0       0       0       0       0       0       0       0       0
       0       0       0       0       0       0       0       0       0       0
       0       0       0       0       0       0       0       0       0       0
       0       0       0       0       0       0       0       0       0       0
       0       0       0       0       0       0       0       0       0       0
       0       0       0       0       0       0       0       0       0       0
       0       0       0       0       0       0       0       0       0       0
       0       0       0       0       0       0       0       0       0       0
       0       0       0       0       0       0       0       0       0       0
       0       0       0       0       0       0       0       0       0       0
       0       0       0       0       0       0       0       0       0       0
       0       0       0       0       0       0       0       0       0       0
       0       0       0       0       0       0       0       0       0       0
       0       0       0       0       0       0       0       0       0       0
       0       0       0       0       0       0       0       0       0       0
       0       0       0       0       0       0       0       0       0       0
       0       0       0       0       0       0       0       0       0       0
       0       0       0       0       0       0       0       0       0       0
       0       0       0       0       0       0       0       0       0       0
       0       0       0       0       0       0       0       0       0       0
       0       0       0       0       0       0       0       0       0       0
       0       0       0       0       0       0       0       0       0       0
       0       0       0       0       0       0       0       0       0       0
       0       0       0       0       0       0       0       0       0       0
       0       0       0       0       0       0       0       0       0       0
       0       0       0       0       0       0       0       0       0       0
       0       0       0       0       0       0       0       0       0       0
       0       0       0       0       0       0       0       0       0       0
       0       0       0       0       0       0       0       0       0       0
       0       0       0       0       0       0       0       0       0       0
       0       0       0       0       0       0       0       0       0       0
       0       0       0       0       0       0       0       0       0       0
       0       0       0       0       0       0       0       0       0       0
       0       0       0       0       0       0       0       0       0       0
       0       0       0       0       0       0       0       0       0       0
       0       0       0       0       0       0       0       0       0       0
       0       0       0       0       0       0       0       0       0       0
       0       0       0       0       0       0       0       0       0       0
       0       0       0       0       0       0       0       0       0       0
       0       0       0       0       0       0       0       0       0       0
       0       0       0       0       0       0       0       0       0       0
       0       0       0       0       0       0       0       0       0       0
       0       0       0       0       0       0       0       0       0       0
       0       0       0       0       0       0       0       0       0       0
       0       0       0       0       0       0       0       0       0       0
       0       0       0       0       0       0       0       0       0       0
       0       0       0       0       0       0       0       0       0       0
       0       0       0       0       0       0       0       0       0       0
       0       0       0       0       0       0       0       0       0       0
       0       0       0       0       0       0       0       0       0       0
       0       0       0       0       0       0       0       0       0       0
       0       0       0       0       0       0       0       0       0       0
       0       0       0       0       0       0       0       0       0       0
       0       0       0       0       0       0       0       0       0       0
       0       0       0       0       0       0       0       0       0       0
       0       0       0       0       0       0       0       0       0       0
       0       0       0       0       0       0       0       0       0       0
       0       0       0       0       0       0       0       0       0       0
       0       0       0       0       0       0       0       0       0       0
       0       0       0       0       0       0       0       0       0       0
       0       0       0       0       0       0       0       0       0       0
       0       0       0       0       0       0       0       0       0       0
       0       0       0       0       0       0       0       0       0       0
       0       0       0       0       0       0       0       0       0       0
       0       0       0       0       0       0       0       0       0       0
       0       0       0       0       0       0       0       0       0       0
       0       0       0       0       0       0       0       0       0       0
       0       0       0       0       0       0       0       0       0       0
       0       0       0       0       0       0       0       0       0       0
       0       0       0       0       0       0       0       0       0       0
       0       0       0       0       0       0       0       0       0       0
       0       0       0       0       0       0       0       0       0       0
       0       0       0       0       0       0       0       0       0       0
       0       0       0       0       0       0       0       0       0       0
       0       0       0       0       0       0       0       0       0       0
       0       0       0       0       0       0       0       0       0       0
       0       0       0       0       0       0       0       0       0       0
       0       0       0       0       0       0       0       0       0       0
       0       0       0       0       0       0       0       0       0       0
       0       0       0       0       0       0       0       0       0       0
       0       0       0       0       0       0       0       0       0       0
       0       0       0       0       0       0       0       0       0       0
       0       0       0       0       0       0       0       0       0       0
       0       0       0       0       0       0       0       0       0       0
       0       0       0       0       0       0       0       0       0       0
       0       0       0       0       0       0       0       0       0       0
       0       0       0       0       0       0       0       0       0       0
       0       0       0       0       0       0       0       0       0       0
       0       0       0       0       0       0       0       0       0       0
       0       0       0       0       0       0       0       0       0       0
       0       0       0       0       0       0       0       0       0       0
       0       0       0       0       0       0       0       0       0       0
       0       0       0       0       0       0       0       0       0       0
       0       0       0       0       0       0       0       0       0       0
       0       0       0       0       0       0       0       0       0       0
       0       0       0       0       0       0       0       0       0       0
       0       0       0       0       0       0       0       0       0       0
       0       0       0       0       0       0       0       0       0       0
       0       0       0       0       0       0       0       0       0       0
       0       0       0       0       0       0       0       0       0       0
       0       0       0       0       0       0       0       0       0       0
       0       0       0       0       0       0       0       0       0       0
       0       0       0       0       0       0       0       0       0       0
       0       0       0       0       0       0       0       0       0       0
       0       0       0       0       0       0       0       0       0       0
       0       0       0       0       0       0       0       0       0       0
       0       0       0       0       0       0       0       0       0       0
       0       0       0       0       0       0       0       0       0       0
       0       0       0       0       0       0       0       0       0       0
       0       0       0       0       0       0       0       0       0       0
       0       0       0       0       0       0       0       0       0       0
       0       0       0       0       0       0       0       0       0       0
       0       0       0       0       0       0       0       0       0       0
       0       0       0       0       0       0       0       0       0       0
       0       0       0       0       0       0       0       0       0       0
       0       0       0       0       0       0       0       0       0       0
       0       0       0       0       0       0       0       0       0       0
       0       0       0       0       0       0       0       0       0       0
       0       0       0       0       0       0       0       0       0       0
       0       0       0       0       0       0       0       0       0       0
       0       0       0       0       0       0       0       0       0       0
       0       0       0       0       0       0       0       0       0       0
       0       0       0       0       0       0       0       0       0       0
       0       0       0       0       0       0       0       0       0       0
       0       0       0       0       0       0       0       0       0       0
       0       0       0       0       0       0       0       0       0       0
       0       0       0       0       0       0       0       0       0       0
       0       0       0       0       0       0       0       0       0       0
       0       0       0       0       0       0       0       0       0       0
       0       0       0       0       0       0       0       0       0       0
       0       0       0       0       0       0       0       0       0       0
       0       0       0       0       0       0       0       0       0       0
       0       0       0       0       0       0       0       0       0       0
       0       0       0       0       0       0       0       0       0       0
       0       0       0       0       0       0       0       0       0       0
       0       0       0       0       0       0       0       0       0       0
       0       0       0       0       0       0       0       0       0       0
       0       0       0       0       0       0       0       0       0       0
       0       0       0       0       0       0       0       0       0       0
       0       0       0       0       0       0       0       0       0       0
       0       0       0       0       0       0       0       0       0       0
       0       0       0       0       0       0       0       0       0       0
       0       0       0       0       0       0       0       0       0       0
       0       0       0       0       0       0       0       0       0       0
       0       0       0       0       0       0       0       0       0       0
       0       0       0       0       0       0       0       0       0       0
       0       0       0       0       0       0       0       0       0       0
       0       0       0       0       0       0       0       0       0       0
       0       0       0       0       0       0       0       0       0       0
       0       0       0       0       0       0       0       0       0       0
       0       0       0       0       0       0       0       0       0       0
       0       0       0       0       0       0       0       0       0       0
       0       0       0       0       0       0       0       0       0       0
       0       0       0       0       0       0       0       0       0       0
       0       0       0       0       0       0       0       0       0       0
       0       0       0       0       0       0       0       0       0       0
       0       0       0       0       0       0       0       0       0       0
       0       0       0       0       0       0       0       0       0       0
       0       0       0       0       0       0       0       0       0       0
       0       0       0       0       0       0       0       0       0       0
       0       0       0       0       0       0       0       0       0       0
       0       0       0       0       0       0       0       0       0       0
       0       0       0       0       0       0       0       0       0       0
       0       0       0       0       0       0       0       0       0       0
       0       0       0       0       0       0       0       0       0       0
       0       0       0       0       0       0       0       0       0       0
       0       0       0       0       0       0       0       0       0       0
       0       0       0       0       0       0       0       0       0       0
       0       0       0       0       0       0       0       0       0       0
       0       0       0       0       0       0       0       0       0       0
       0       0       0       0       0       0       0       0       0       0
       0       0       0       0       0       0       0       0       0       0
       0       0       0       0       0       0       0       0       0       0
       0       0       0       0       0       0       0       0       0       0
       0       0       0       0       0       0       0       0       0       0
       0       0       0       0       0       0       0       0       0       0
       0       0       0       0       0       0       0       0       0       0
       0       0       0       0       0       0       0       0       0       0
       0       0       0       0       0       0       0       0       0       0
       0       0       0       0       0       0       0       0       0       0
       0       0       0       0       0       0       0       0       0       0
       0       0       0       0       0       0       0       0       0       0
       0       0       0       0       0       0       0       0       0       0
       0       0       0       0       0       0       0       0       0       0
       0       0       0       0       0       0       0       0       0       0
       0       0       0       0       0       0       0       0       0       0
       0       0       0       0       0       0       0       0       0       0
       0       0       0       0       0       0       0       0       0       0
       0       0       0       0       0       0       0       0       0       0
       0       0       0       0       0       0       0       0       0       0
       0       0       0       0       0       0       0       0       0       0
       0       0       0       0       0       0       0       0       0       0
       0       0       0       0       0       0       0       0       0       0
       0       0       0       0       0       0       0       0       0       0
       0       0       0       0       0       0       0       0       0       0
       0       0       0       0       0       0       0       0       0       0
       0       0       0       0       0       0       0       0       0       0
       0       0       0       0       0       0       0       0       0       0
       0       0       0       0       0       0       0       0       0       0
       0       0       0       0       0       0       0       0       0       0
       0       0       0       0       0       0       0       0       0       0
       0       0       0       0       0       0       0       0       0       0
       0       0       0       0       0       0       0       0       0       0
       0       0       0       0       0       0       0       0       0       0
       0       0       0       0       0       0       0       0       0       0
       0       0       0       0       0       0       0       0       0       0
       0       0       0       0       0       0       0       0       0       0
       0       0       0       0       0       0       0       0       0       0
       0       0       0       0       0       0       0       0       0       0
       0       0       0       0       0       0       0       0       0       0
       0       0       0       0       0       0       0       0       0       0
       0       0       0       0       0       0       0       0       0       0
       0       0       0       0       0       0       0       0       0       0
       0       0       0       0       0       0       0       0       0       0
       0       0       0       0       0       0       0       0       0       0
       0       0       0       0       0       0       0       0       0       0
       0       0       0       0       0       0       0       0       0       0
       0       0       0       0       0       0       0       0       0       0
       0       0       0       0       0       0       0       0       0       0
       0       0       0       0       0       0       0       0       0       0
       0       0       0       0       0       0       0       0       0       0
       0       0       0       0       0       0       0       0       0       0
       0       0       0       0       0       0       0       0       0       0
       0       0       0       0       0       0       0       0       0       0
       0       0       0       0       0       0       0       0       0       0
       0       0       0       0       0       0       0       0       0       0
       0       0       0       0       0       0       0       0       0       0
       0       0       0       0       0       0       0       0       0       0
       0       0       0       0       0       0       0       0       0       0
       0       0       0       0       0       0       0       0       0       0
       0       0       0       0       0       0       0       0       0       0
       0       0       0       0       0       0       0       0       0       0
       0       0       0       0       0       0       0       0       0       0
       0       0       0       0       0       0       0       0       0       0
       0       0       0       0       0       0       0       0       0       0
       0       0       0       0       0       0       0       0       0       0
       0       0       0       0       0       0       0       0       0       0
       0       0       0       0       0       0       0       0       0       0
       0       0       0       0       0       0       0       0       0       0
       0       0       0       0       0       0       0       0       0       0
       0       0       0       0       0       0       0       0       0       0
       0       0       0       0       0       0       0       0       0       0
       0       0       0       0       0       0       0       0       0       0
       0       0       0       0       0       0       0       0       0       0
       0       0       0       0       0       0       0       0       0       0
       0       0       0       0       0       0       0       0       0       0
       0       0       0       0       0       0       0       0       0       0
       0       0       0       0       0       0       0       0       0       0
       0       0       0       0       0       0       0       0       0       0
       0       0       0       0       0       0       0       0       0       0
       0       0       0       0       0       0       0       0       0       0
       0       0       0       0       0       0       0       0       0       0
       0       0       0       0       0       0       0       0       0       0
       0       0       0       0       0       0       0       0       0       0
       0       0       0       0       0       0       0       0       0       0
       0       0       0       0       0       0       0       0       0       0
       0       0       0       0       0       0       0       0       0       0
       0       0       0       0       0       0       0       0       0       0
       0       0       0       0       0       0       0       0       0       0
       0       0       0       0       0       0       0       0       0       0
       0       0       0       0       0       0       0       0       0       0
       0       0       0       0       0       0       0       0       0       0
       0       0       0       0       0       0       0       0       0       0
       0       0       0       0       0       0       0       0       0       0
       0       0       0       0       0       0       0       0       0       0
       0       0       0       0       0       0       0       0       0       0
       0       0       0       0       0       0       0       0       0       0
       0       0       0       0       0       0       0       0       0       0
       0       0       0       0       0       0       0       0       0       0
       0       0       0       0       0       0       0       0       0       0
       0       0       0       0       0       0       0       0       0       0
       0       0       0       0       0       0       0       0       0       0
       0       0       0       0       0       0       0       0       0       0
       0       0       0       0       0       0       0       0       0       0
       0       0       0       0       0       0       0       0       0       0
       0       0       0       0       0       0       0       0       0       0
       0       0       0       0       0       0       0       0       0       0
       0       0       0       0       0       0       0       0       0       0
       0       0       0       0       0       0       0       0       0       0
       0       0       0       0       0       0       0       0       0       0
       0       0       0       0       0       0       0       0       0       0
       0       0       0       0       0       0       0       0       0       0
       0       0       0       0       0       0       0       0       0       0
       0       0       0       0       0       0       0       0       0       0
       0       0       0       0       0       0       0       0       0       0
       0       0       0       0       0       0       0       0       0       0
       0       0       0       0       0       0       0       0       0       0
       0       0       0       0       0       0       0       0       0       0
       0       0       0       0       0       0       0       0       0       0
       0       0       0       0       0       0       0       0       0       0
       0       0       0       0       0       0       0       0       0       0
       0       0       0       0       0       0       0       0       0       0
       0       0       0       0       0       0       0       0       0       0
       0       0       0       0       0       0       0       0       0       0
       0       0       0       0       0       0       0       0       0       0
       0       0       0       0       0       0       0       0       0       0
       0       0       0       0       0       0       0       0       0       0
       0       0       0       0       0       0       0       0       0       0
       0       0       0       0       0       0       0       0       0       0
       0       0       0       0       0       0       0       0       0       0
       0       0       0       0       0       0       0       0       0       0
       0       0       0       0       0       0       0       0       0       0
       0       0       0       0       0       0       0       0       0       0
       0       0       0       0       0       0       0       0       0       0
       0       0       0       0       0       0       0       0       0       0
       0       0       0       0       0       0       0       0       0       0
       0       0       0       0       0       0       0       0       0       0
       0       0       0       0       0       0       0       0       0       0
       0       0       0       0       0       0       0       0       0       0
       0       0       0       0       0       0       0       0       0       0
       0       0       0       0       0       0       0       0       0       0
       0       0       0       0       0       0       0       0       0       0
       0       0       0       0       0       0       0       0       0       0
       0       0       0       0       0       0       0       0       0       0
       0       0       0       0       0       0       0       0       0       0
       0       0       0       0       0       0       0       0       0       0
       0       0       0       0       0       0       0       0       0       0
       0       0       0       0       0       0       0       0       0       0
       0       0       0       0       0       0       0       0       0       0
       0       0       0       0       0       0       0       0       0       0
       0       0       0       0       0       0       0       0       0       0
       0       0       0       0       0       0       0       0       0       0
       0       0       0       0       0       0       0       0       0       0
       0       0       0       0       0       0       0       0       0       0
       0       0       0       0       0       0       0       0       0       0
       0       0       0       0       0       0       0       0       0       0
       0       0       0       0       0       0       0       0       0       0
       0       0       0       0       0       0       0       0       0       0
       0       0       0       0       0       0       0       0       0       0
       0       0       0       0       0       0       0       0       0       0
       0       0       0       0       0       0       0       0       0       0
       0       0       0       0       0       0       0       0       0       0
       0       0       0       0       0       0       0       0       0       0
       0       0       0       0       0       0       0       0       0       0
       0       0       0       0       0       0       0       0       0       0
       0       0       0       0       0       0       0       0       0       0
       0       0       0       0       0       0       0       0       0       0
       0       0       0       0       0       0       0       0       0       0
       0       0       0       0       0       0       0       0       0       0
       0       0       0       0       0       0       0       0       0       0
       0       0       0       0       0       0       0       0       0       0
       0       0       0       0       0       0       0       0       0       0
       0       0       0       0       0       0       0       0       0       0
       0       0       0       0       0       0       0       0       0       0
       0       0       0       0       0       0       0       0       0       0
       0       0       0       0       0       0       0       0       0       0
       0       0       0       0       0       0       0       0       0       0
       0       0       0       0       0       0       0       0       0       0
       0       0       0       0       0       0       0       0       0       0
       0       0       0       0       0       0       0       0       0       0
       0       0       0       0       0       0       0       0       0       0
       0       0       0       0       0       0       0       0       0       0
       0       0       0       0       0       0       0       0       0       0
       0       0       0       0       0       0       0       0       0       0
       0       0       0       0       0       0       0       0       0       0
       0       0       0       0       0       0       0       0       0       0
       0       0       0       0       0       0       0       0       0       0
       0       0       0       0       0       0       0       0       0       0
       0       0       0       0       0       0       0       0       0       0
       0       0       0       0       0       0       0       0       0       0
       0       0       0       0       0       0       0       0       0       0
       0       0       0       0       0       0       0       0       0       0
       0       0       0       0       0       0       0       0       0       0
       0       0       0       0       0       0       0       0       0       0
       0       0       0       0       0       0       0       0       0       0
       0       0       0       0       0       0       0       0       0       0
       0       0       0       0       0       0       0       0       0       0
       0       0       0       0       0       0       0       0       0       0
       0       0       0       0       0       0       0       0       0       0
       0       0       0       0       0       0       0       0       0       0
       0       0       0       0       0       0       0       0       0       0
       0       0       0       0       0       0       0       0       0       0
       0       0       0       0       0       0       0       0       0       0
       0       0       0       0       0       0       0       0       0       0
       0       0       0       0       0       0       0       0       0       0
       0       0       0       0       0       0       0       0       0       0
       0       0       0       0       0       0       0       0       0       0
       0       0       0       0       0       0       0       0       0       0
       0       0       0       0       0       0       0       0       0       0
       0       0       0       0       0       0       0       0       0       0
       0       0       0       0       0       0       0       0       0       0
       0       0       0       0       0       0       0       0       0       0
       0       0       0       0       0       0       0       0       0       0
       0       0       0       0       0       0       0       0       0       0
       0       0       0       0       0       0       0       0       0       0
       0       0       0       0       0       0       0       0       0       0
       0       0       0       0       0       0       0       0       0       0
       0       0       0       0       0       0       0       0       0       0
       0       0       0       0       0       0       0       0       0       0
       0       0       0       0       0       0       0       0       0       0
       0       0       0       0       0       0       0       0       0       0
       0       0       0       0       0       0       0       0       0       0
       0       0       0       0       0       0       0       0       0       0
       0       0       0       0       0       0       0       0       0       0
       0       0       0       0       0       0       0       0       0       0
       0       0       0       0       0       0       0       0       0       0
       0       0       0       0       0       0       0       0       0       0
       0       0       0       0       0       0       0       0       0       0
       0       0       0       0       0       0       0       0       0       0
       0       0       0       0       0       0       0       0       0       0
       0       0       0       0       0       0       0       0       0       0
       0       0       0       0       0       0       0       0       0       0
       0       0       0       0       0       0       0       0       0       0
       0       0       0       0       0       0       0       0       0       0
       0       0       0       0       0       0       0       0       0       0
       0       0       0       0       0       0       0       0       0       0
       0       0       0       0       0       0       0       0       0       0
       0       0       0       0       0       0       0       0       0       0
       0       0       0       0       0       0       0       0       0       0
       0       0       0       0       0       0       0       0       0       0
       0       0       0       0       0       0       0       0       0       0
       0       0       0       0       0       0       0       0       0       0
       0       0       0       0       0       0       0       0       0       0
       0       0       0       0       0       0       0       0       0       0
       0       0       0       0       0       0       0       0       0       0
       0       0       0       0       0       0       0       0       0       0
       0       0       0       0       0       0       0       0       0       0
       0       0       0       0       0       0       0       0       0       0
       0       0       0       0       0       0       0       0       0       0
       0       0       0       0       0       0       0       0       0       0
       0       0       0       0       0       0       0       0       0       0
       0       0       0       0       0       0       0       0       0       0
       0       0       0       0       0       0       0       0       0       0
       0       0       0       0       0       0       0       0       0       0
       0       0       0       0       0       0       0       0       0       0
       0       0       0       0       0       0       0       0       0       0
       0       0       0       0       0       0       0       0       0       0
       0       0       0       0       0       0       0       0       0       0
       0       0       0       0       0       0       0       0       0       0
       0       0       0       0       0       0       0       0       0       0
       0       0       0       0       0       0       0       0       0       0
       0       0       0       0       0       0       0       0       0       0
       0       0       0       0       0       0       0       0       0       0
       0       0       0       0       0       0       0       0       0       0
       0       0       0       0       0       0       0       0       0       0
       0       0       0       0       0       0       0       0       0       0
       0       0       0       0       0       0       0       0       0       0
       0       0       0       0       0       0       0       0       0       0
       0       0       0       0       0       0       0       0       0       0
       0       0       0       0       0       0       0       0       0       0
       0       0       0       0       0       0       0       0       0       0
       0       0       0       0       0       0       0       0       0       0
       0       0       0       0       0       0       0       0       0       0
       0       0       0       0       0       0       0       0       0       0
       0       0       0       0       0       0       0       0       0       0
       0       0       0       0       0       0       0       0       0       0
       0       0       0       0       0       0       0       0       0       0
       0       0       0       0       0       0       0       0       0       0
       0       0       0       0       0       0       0       0       0       0
       0       0       0       0       0       0       0       0       0       0
       0       0       0       0       0       0       0       0       0       0
       0       0       0       0       0       0       0       0       0       0
       0       0       0       0       0       0       0       0       0       0
       0       0       0       0       0       0       0       0       0       0
       0       0       0       0       0       0       0       0       0       0
       0       0       0       0       0       0       0       0       0       0
       0       0       0       0       0       0       0       0       0       0
       0       0       0       0       0       0       0       0       0       0
       0       0       0       0       0       0       0       0       0       0
       0       0       0       0       0       0       0       0       0       0
       0       0       0       0       0       0       0       0       0       0
       0       0       0       0       0       0       0       0       0       0
       0       0       0       0       0       0       0       0       0       0
       0       0       0       0       0       0       0       0       0       0
       0       0       0       0       0       0       0       0       0       0
       0       0       0       0       0       0       0       0       0       0
       0       0       0       0       0       0       0       0       0       0
       0       0       0       0       0       0       0       0       0       0
       0       0       0       0       0       0       0       0       0       0
       0       0       0       0       0       0       0       0       0       0
       0       0       0       0       0       0       0       0       0       0
       0       0       0       0       0       0       0       0       0       0
       0       0       0       0       0       0       0       0       0       0
       0       0       0       0       0       0       0       0       0       0
       0       0       0       0       0       0       0       0       0       0
       0       0       0       0       0       0       0       0       0       0
       0       0       0       0       0       0       0       0       0       0
       0       0       0       0       0       0       0       0       0       0
       0       0       0       0       0       0       0       0       0       0
       0       0
%FLAG RADIUS_SET                                                                
%FORMAT(1a80)                                                                   
modified Bondi radii (mbondi)                                                   
%FLAG RADII                                                                     
%FORMAT(5E16.8)                                                                 
  1.80000000E+00  1.70000000E+00  1.70000000E+00  1.70000000E+00  1.70000000E+00
  1.70000000E+00  1.80000000E+00  1.70000000E+00  1.70000000E+00  1.30000000E+00
  1.70000000E+00  1.70000000E+00  1.70000000E+00  1.70000000E+00  1.70000000E+00
  1.30000000E+00  1.70000000E+00  1.70000000E+00  1.30000000E+00  1.30000000E+00
  1.70000000E+00  1.30000000E+00  1.30000000E+00  1.70000000E+00  1.30000000E+00
  1.30000000E+00  1.70000000E+00  1.30000000E+00  1.30000000E+00  1.70000000E+00
  1.70000000E+00  1.30000000E+00  1.30000000E+00  1.70000000E+00  1.70000000E+00
  1.70000000E+00  1.30000000E+00  1.30000000E+00  1.70000000E+00  1.30000000E+00
  1.70000000E+00  1.30000000E+00  1.70000000E+00  1.30000000E+00  1.30000000E+00
  1.70000000E+00  1.30000000E+00  1.30000000E+00  1.70000000E+00  1.30000000E+00
  1.30000000E+00  1.30000000E+00  1.30000000E+00  1.30000000E+00  1.70000000E+00
  1.70000000E+00  1.30000000E+00  1.30000000E+00  1.30000000E+00  1.70000000E+00
  1.30000000E+00  1.30000000E+00  1.30000000E+00  1.30000000E+00  1.80000000E+00
  1.70000000E+00  1.70000000E+00  1.70000000E+00  1.70000000E+00  1.70000000E+00
  1.80000000E+00  1.70000000E+00  1.70000000E+00  1.30000000E+00  1.70000000E+00
  1.70000000E+00  1.70000000E+00  1.70000000E+00  1.70000000E+00  1.30000000E+00
  1.70000000E+00  1.70000000E+00  1.30000000E+00  1.30000000E+00  1.70000000E+00
  1.30000000E+00  1.30000000E+00  1.70000000E+00  1.30000000E+00  1.30000000E+00
  1.70000000E+00  1.30000000E+00  1.30000000E+00  1.70000000E+00  1.70000000E+00
  1.30000000E+00  1.30000000E+00  1.70000000E+00  1.70000000E+00  1.70000000E+00
  1.30000000E+00  1.30000000E+00  1.70000000E+00  1.30000000E+00  1.70000000E+00
  1.30000000E+00  1.70000000E+00  1.30000000E+00  1.30000000E+00  1.70000000E+00
  1.30000000E+00  1.30000000E+00  1.70000000E+00  1.30000000E+00  1.30000000E+00
  1.30000000E+00  1.30000000E+00  1.30000000E+00  1.70000000E+00  1.70000000E+00
  1.30000000E+00  1.30000000E+00  1.30000000E+00  1.70000000E+00  1.30000000E+00
  1.30000000E+00  1.30000000E+00  1.30000000E+00  1.80000000E+00  1.70000000E+00
  1.70000000E+00  1.70000000E+00  1.70000000E+00  1.70000000E+00  1.80000000E+00
  1.70000000E+00  1.70000000E+00  1.30000000E+00  1.70000000E+00  1.70000000E+00
  1.70000000E+00  1.70000000E+00  1.70000000E+00  1.30000000E+00  1.70000000E+00
  1.70000000E+00  1.30000000E+00  1.30000000E+00  1.70000000E+00  1.30000000E+00
  1.30000000E+00  1.70000000E+00  1.30000000E+00  1.30000000E+00  1.70000000E+00
  1.30000000E+00  1.30000000E+00  1.70000000E+00  1.70000000E+00  1.30000000E+00
  1.30000000E+00  1.70000000E+00  1.70000000E+00  1.70000000E+00  1.30000000E+00
  1.30000000E+00  1.70000000E+00  1.30000000E+00  1.70000000E+00  1.30000000E+00
  1.70000000E+00  1.30000000E+00  1.30000000E+00  1.70000000E+00  1.30000000E+00
  1.30000000E+00  1.70000000E+00  1.30000000E+00  1.30000000E+00  1.30000000E+00
  1.30000000E+00  1.30000000E+00  1.70000000E+00  1.70000000E+00  1.30000000E+00
  1.30000000E+00  1.30000000E+00  1.70000000E+00  1.30000000E+00  1.30000000E+00
  1.30000000E+00  1.30000000E+00  1.80000000E+00  1.70000000E+00  1.70000000E+00
  1.70000000E+00  1.70000000E+00  1.70000000E+00  1.80000000E+00  1.70000000E+00
  1.70000000E+00  1.30000000E+00  1.70000000E+00  1.70000000E+00  1.70000000E+00
  1.70000000E+00  1.70000000E+00  1.30000000E+00  1.70000000E+00  1.70000000E+00
  1.30000000E+00  1.30000000E+00  1.70000000E+00  1.30000000E+00  1.30000000E+00
  1.70000000E+00  1.30000000E+00  1.30000000E+00  1.70000000E+00  1.30000000E+00
  1.30000000E+00  1.70000000E+00  1.70000000E+00  1.30000000E+00  1.30000000E+00
  1.70000000E+00  1.70000000E+00  1.70000000E+00  1.30000000E+00  1.30000000E+00
  1.70000000E+00  1.30000000E+00  1.70000000E+00  1.30000000E+00  1.70000000E+00
  1.30000000E+00  1.30000000E+00  1.70000000E+00  1.30000000E+00  1.30000000E+00
  1.70000000E+00  1.30000000E+00  1.30000000E+00  1.30000000E+00  1.30000000E+00
  1.30000000E+00  1.70000000E+00  1.70000000E+00  1.30000000E+00  1.30000000E+00
  1.30000000E+00  1.70000000E+00  1.30000000E+00  1.30000000E+00  1.30000000E+00
  1.30000000E+00  1.80000000E+00  1.70000000E+00  1.70000000E+00  1.70000000E+00
  1.70000000E+00  1.70000000E+00  1.80000000E+00  1.70000000E+00  1.70000000E+00
  1.30000000E+00  1.70000000E+00  1.70000000E+00  1.70000000E+00  1.70000000E+00
  1.70000000E+00  1.30000000E+00  1.70000000E+00  1.70000000E+00  1.30000000E+00
  1.30000000E+00  1.70000000E+00  1.30000000E+00  1.30000000E+00  1.70000000E+00
  1.30000000E+00  1.30000000E+00  1.70000000E+00  1.30000000E+00  1.30000000E+00
  1.70000000E+00  1.70000000E+00  1.30000000E+00  1.30000000E+00  1.70000000E+00
  1.70000000E+00  1.70000000E+00  1.30000000E+00  1.30000000E+00  1.70000000E+00
  1.30000000E+00  1.70000000E+00  1.30000000E+00  1.70000000E+00  1.30000000E+00
  1.30000000E+00  1.70000000E+00  1.30000000E+00  1.30000000E+00  1.70000000E+00
  1.30000000E+00  1.30000000E+00  1.30000000E+00  1.30000000E+00  1.30000000E+00
  1.70000000E+00  1.70000000E+00  1.30000000E+00  1.30000000E+00  1.30000000E+00
  1.70000000E+00  1.30000000E+00  1.30000000E+00  1.30000000E+00  1.30000000E+00
  1.80000000E+00  1.70000000E+00  1.70000000E+00  1.70000000E+00  1.70000000E+00
  1.70000000E+00  1.80000000E+00  1.70000000E+00  1.70000000E+00  1.30000000E+00
  1.70000000E+00  1.70000000E+00  1.70000000E+00  1.70000000E+00  1.70000000E+00
  1.30000000E+00  1.70000000E+00  1.70000000E+00  1.30000000E+00  1.30000000E+00
  1.70000000E+00  1.30000000E+00  1.30000000E+00  1.70000000E+00  1.30000000E+00
  1.30000000E+00  1.70000000E+00  1.30000000E+00  1.30000000E+00  1.70000000E+00
  1.70000000E+00  1.30000000E+00  1.30000000E+00  1.70000000E+00  1.70000000E+00
  1.70000000E+00  1.30000000E+00  1.30000000E+00  1.70000000E+00  1.30000000E+00
  1.70000000E+00  1.30000000E+00  1.70000000E+00  1.30000000E+00  1.30000000E+00
  1.70000000E+00  1.30000000E+00  1.30000000E+00  1.70000000E+00  1.30000000E+00
  1.30000000E+00  1.30000000E+00  1.30000000E+00  1.30000000E+00  1.70000000E+00
  1.70000000E+00  1.30000000E+00  1.30000000E+00  1.30000000E+00  1.70000000E+00
  1.30000000E+00  1.30000000E+00  1.30000000E+00  1.30000000E+00  1.80000000E+00
  1.70000000E+00  1.70000000E+00  1.70000000E+00  1.70000000E+00  1.70000000E+00
  1.80000000E+00  1.70000000E+00  1.70000000E+00  1.30000000E+00  1.70000000E+00
  1.70000000E+00  1.70000000E+00  1.70000000E+00  1.70000000E+00  1.30000000E+00
  1.70000000E+00  1.70000000E+00  1.30000000E+00  1.30000000E+00  1.70000000E+00
  1.30000000E+00  1.30000000E+00  1.70000000E+00  1.30000000E+00  1.30000000E+00
  1.70000000E+00  1.30000000E+00  1.30000000E+00  1.70000000E+00  1.70000000E+00
  1.30000000E+00  1.30000000E+00  1.70000000E+00  1.70000000E+00  1.70000000E+00
  1.30000000E+00  1.30000000E+00  1.70000000E+00  1.30000000E+00  1.70000000E+00
  1.30000000E+00  1.70000000E+00  1.30000000E+00  1.30000000E+00  1.70000000E+00
  1.30000000E+00  1.30000000E+00  1.70000000E+00  1.30000000E+00  1.30000000E+00
  1.30000000E+00  1.30000000E+00  1.30000000E+00  1.70000000E+00  1.70000000E+00
  1.30000000E+00  1.30000000E+00  1.30000000E+00  1.70000000E+00  1.30000000E+00
  1.30000000E+00  1.30000000E+00  1.30000000E+00  1.80000000E+00  1.70000000E+00
  1.70000000E+00  1.70000000E+00  1.70000000E+00  1.70000000E+00  1.80000000E+00
  1.70000000E+00  1.70000000E+00  1.30000000E+00  1.70000000E+00  1.70000000E+00
  1.70000000E+00  1.70000000E+00  1.70000000E+00  1.30000000E+00  1.70000000E+00
  1.70000000E+00  1.30000000E+00  1.30000000E+00  1.70000000E+00  1.30000000E+00
  1.30000000E+00  1.70000000E+00  1.30000000E+00  1.30000000E+00  1.70000000E+00
  1.30000000E+00  1.30000000E+00  1.70000000E+00  1.70000000E+00  1.30000000E+00
  1.30000000E+00  1.70000000E+00  1.70000000E+00  1.70000000E+00  1.30000000E+00
  1.30000000E+00  1.70000000E+00  1.30000000E+00  1.70000000E+00  1.30000000E+00
  1.70000000E+00  1.30000000E+00  1.30000000E+00  1.70000000E+00  1.30000000E+00
  1.30000000E+00  1.70000000E+00  1.30000000E+00  1.30000000E+00  1.30000000E+00
  1.30000000E+00  1.30000000E+00  1.70000000E+00  1.70000000E+00  1.30000000E+00
  1.30000000E+00  1.30000000E+00  1.70000000E+00  1.30000000E+00  1.30000000E+00
  1.30000000E+00  1.30000000E+00  1.80000000E+00  1.70000000E+00  1.70000000E+00
  1.70000000E+00  1.70000000E+00  1.70000000E+00  1.80000000E+00  1.70000000E+00
  1.70000000E+00  1.30000000E+00  1.70000000E+00  1.70000000E+00  1.70000000E+00
  1.70000000E+00  1.70000000E+00  1.30000000E+00  1.70000000E+00  1.70000000E+00
  1.30000000E+00  1.30000000E+00  1.70000000E+00  1.30000000E+00  1.30000000E+00
  1.70000000E+00  1.30000000E+00  1.30000000E+00  1.70000000E+00  1.30000000E+00
  1.30000000E+00  1.70000000E+00  1.70000000E+00  1.30000000E+00  1.30000000E+00
  1.70000000E+00  1.70000000E+00  1.70000000E+00  1.30000000E+00  1.30000000E+00
  1.70000000E+00  1.30000000E+00  1.70000000E+00  1.30000000E+00  1.70000000E+00
  1.30000000E+00  1.30000000E+00  1.70000000E+00  1.30000000E+00  1.30000000E+00
  1.70000000E+00  1.30000000E+00  1.30000000E+00  1.30000000E+00  1.30000000E+00
  1.30000000E+00  1.70000000E+00  1.70000000E+00  1.30000000E+00  1.30000000E+00
  1.30000000E+00  1.70000000E+00  1.30000000E+00  1.30000000E+00  1.30000000E+00
  1.30000000E+00  1.80000000E+00  1.70000000E+00  1.70000000E+00  1.70000000E+00
  1.70000000E+00  1.70000000E+00  1.80000000E+00  1.70000000E+00  1.70000000E+00
  1.30000000E+00  1.70000000E+00  1.70000000E+00  1.70000000E+00  1.70000000E+00
  1.70000000E+00  1.30000000E+00  1.70000000E+00  1.70000000E+00  1.30000000E+00
  1.30000000E+00  1.70000000E+00  1.30000000E+00  1.30000000E+00  1.70000000E+00
  1.30000000E+00  1.30000000E+00  1.70000000E+00  1.30000000E+00  1.30000000E+00
  1.70000000E+00  1.70000000E+00  1.30000000E+00  1.30000000E+00  1.70000000E+00
  1.70000000E+00  1.70000000E+00  1.30000000E+00  1.30000000E+00  1.70000000E+00
  1.30000000E+00  1.70000000E+00  1.30000000E+00  1.70000000E+00  1.30000000E+00
  1.30000000E+00  1.70000000E+00  1.30000000E+00  1.30000000E+00  1.70000000E+00
  1.30000000E+00  1.30000000E+00  1.30000000E+00  1.30000000E+00  1.30000000E+00
  1.70000000E+00  1.70000000E+00  1.30000000E+00  1.30000000E+00  1.30000000E+00
  1.70000000E+00  1.30000000E+00  1.30000000E+00  1.30000000E+00  1.30000000E+00
  1.80000000E+00  1.70000000E+00  1.70000000E+00  1.70000000E+00  1.70000000E+00
  1.70000000E+00  1.80000000E+00  1.70000000E+00  1.70000000E+00  1.30000000E+00
  1.70000000E+00  1.70000000E+00  1.70000000E+00  1.70000000E+00  1.70000000E+00
  1.30000000E+00  1.70000000E+00  1.70000000E+00  1.30000000E+00  1.30000000E+00
  1.70000000E+00  1.30000000E+00  1.30000000E+00  1.70000000E+00  1.30000000E+00
  1.30000000E+00  1.70000000E+00  1.30000000E+00  1.30000000E+00  1.70000000E+00
  1.70000000E+00  1.30000000E+00  1.30000000E+00  1.70000000E+00  1.70000000E+00
  1.70000000E+00  1.30000000E+00  1.30000000E+00  1.70000000E+00  1.30000000E+00
  1.70000000E+00  1.30000000E+00  1.70000000E+00  1.30000000E+00  1.30000000E+00
  1.70000000E+00  1.30000000E+00  1.30000000E+00  1.70000000E+00  1.30000000E+00
  1.30000000E+00  1.30000000E+00  1.30000000E+00  1.30000000E+00  1.70000000E+00
  1.70000000E+00  1.30000000E+00  1.30000000E+00  1.30000000E+00  1.70000000E+00
  1.30000000E+00  1.30000000E+00  1.30000000E+00  1.30000000E+00  1.80000000E+00
  1.70000000E+00  1.70000000E+00  1.70000000E+00  1.70000000E+00  1.70000000E+00
  1.80000000E+00  1.70000000E+00  1.70000000E+00  1.30000000E+00  1.70000000E+00
  1.70000000E+00  1.70000000E+00  1.70000000E+00  1.70000000E+00  1.30000000E+00
  1.70000000E+00  1.70000000E+00  1.30000000E+00  1.30000000E+00  1.70000000E+00
  1.30000000E+00  1.30000000E+00  1.70000000E+00  1.30000000E+00  1.30000000E+00
  1.70000000E+00  1.30000000E+00  1.30000000E+00  1.70000000E+00  1.70000000E+00
  1.30000000E+00  1.30000000E+00  1.70000000E+00  1.70000000E+00  1.70000000E+00
  1.30000000E+00  1.30000000E+00  1.70000000E+00  1.30000000E+00  1.70000000E+00
  1.30000000E+00  1.70000000E+00  1.30000000E+00  1.30000000E+00  1.70000000E+00
  1.30000000E+00  1.30000000E+00  1.70000000E+00  1.30000000E+00  1.30000000E+00
  1.30000000E+00  1.30000000E+00  1.30000000E+00  1.70000000E+00  1.70000000E+00
  1.30000000E+00  1.30000000E+00  1.30000000E+00  1.70000000E+00  1.30000000E+00
  1.30000000E+00  1.30000000E+00  1.30000000E+00  1.80000000E+00  1.70000000E+00
  1.70000000E+00  1.70000000E+00  1.70000000E+00  1.70000000E+00  1.80000000E+00
  1.70000000E+00  1.70000000E+00  1.30000000E+00  1.70000000E+00  1.70000000E+00
  1.70000000E+00  1.70000000E+00  1.70000000E+00  1.30000000E+00  1.70000000E+00
  1.70000000E+00  1.30000000E+00  1.30000000E+00  1.70000000E+00  1.30000000E+00
  1.30000000E+00  1.70000000E+00  1.30000000E+00  1.30000000E+00  1.70000000E+00
  1.30000000E+00  1.30000000E+00  1.70000000E+00  1.70000000E+00  1.30000000E+00
  1.30000000E+00  1.70000000E+00  1.70000000E+00  1.70000000E+00  1.30000000E+00
  1.30000000E+00  1.70000000E+00  1.30000000E+00  1.70000000E+00  1.30000000E+00
  1.70000000E+00  1.30000000E+00  1.30000000E+00  1.70000000E+00  1.30000000E+00
  1.30000000E+00  1.70000000E+00  1.30000000E+00  1.30000000E+00  1.30000000E+00
  1.30000000E+00  1.30000000E+00  1.70000000E+00  1.70000000E+00  1.30000000E+00
  1.30000000E+00  1.30000000E+00  1.70000000E+00  1.30000000E+00  1.30000000E+00
  1.30000000E+00  1.30000000E+00  1.80000000E+00  1.70000000E+00  1.70000000E+00
  1.70000000E+00  1.70000000E+00  1.70000000E+00  1.80000000E+00  1.70000000E+00
  1.70000000E+00  1.30000000E+00  1.70000000E+00  1.70000000E+00  1.70000000E+00
  1.70000000E+00  1.70000000E+00  1.30000000E+00  1.70000000E+00  1.70000000E+00
  1.30000000E+00  1.30000000E+00  1.70000000E+00  1.30000000E+00  1.30000000E+00
  1.70000000E+00  1.30000000E+00  1.30000000E+00  1.70000000E+00  1.30000000E+00
  1.30000000E+00  1.70000000E+00  1.70000000E+00  1.30000000E+00  1.30000000E+00
  1.70000000E+00  1.70000000E+00  1.70000000E+00  1.30000000E+00  1.30000000E+00
  1.70000000E+00  1.30000000E+00  1.70000000E+00  1.30000000E+00  1.70000000E+00
  1.30000000E+00  1.30000000E+00  1.70000000E+00  1.30000000E+00  1.30000000E+00
  1.70000000E+00  1.30000000E+00  1.30000000E+00  1.30000000E+00  1.30000000E+00
  1.30000000E+00  1.70000000E+00  1.70000000E+00  1.30000000E+00  1.30000000E+00
  1.30000000E+00  1.70000000E+00  1.30000000E+00  1.30000000E+00  1.30000000E+00
  1.30000000E+00  1.80000000E+00  1.70000000E+00  1.70000000E+00  1.70000000E+00
  1.70000000E+00  1.70000000E+00  1.80000000E+00  1.70000000E+00  1.70000000E+00
  1.30000000E+00  1.70000000E+00  1.70000000E+00  1.70000000E+00  1.70000000E+00
  1.70000000E+00  1.30000000E+00  1.70000000E+00  1.70000000E+00  1.30000000E+00
  1.30000000E+00  1.70000000E+00  1.30000000E+00  1.30000000E+00  1.70000000E+00
  1.30000000E+00  1.30000000E+00  1.70000000E+00  1.30000000E+00  1.30000000E+00
  1.70000000E+00  1.70000000E+00  1.30000000E+00  1.30000000E+00  1.70000000E+00
  1.70000000E+00  1.70000000E+00  1.30000000E+00  1.30000000E+00  1.70000000E+00
  1.30000000E+00  1.70000000E+00  1.30000000E+00  1.70000000E+00  1.30000000E+00
  1.30000000E+00  1.70000000E+00  1.30000000E+00  1.30000000E+00  1.70000000E+00
  1.30000000E+00  1.30000000E+00  1.30000000E+00  1.30000000E+00  1.30000000E+00
  1.70000000E+00  1.70000000E+00  1.30000000E+00  1.30000000E+00  1.30000000E+00
  1.70000000E+00  1.30000000E+00  1.30000000E+00  1.30000000E+00  1.30000000E+00
  1.80000000E+00  1.70000000E+00  1.70000000E+00  1.70000000E+00  1.70000000E+00
  1.70000000E+00  1.80000000E+00  1.70000000E+00  1.70000000E+00  1.30000000E+00
  1.70000000E+00  1.70000000E+00  1.70000000E+00  1.70000000E+00  1.70000000E+00
  1.30000000E+00  1.70000000E+00  1.70000000E+00  1.30000000E+00  1.30000000E+00
  1.70000000E+00  1.30000000E+00  1.30000000E+00  1.70000000E+00  1.30000000E+00
  1.30000000E+00  1.70000000E+00  1.30000000E+00  1.30000000E+00  1.70000000E+00
  1.70000000E+00  1.30000000E+00  1.30000000E+00  1.70000000E+00  1.70000000E+00
  1.70000000E+00  1.30000000E+00  1.30000000E+00  1.70000000E+00  1.30000000E+00
  1.70000000E+00  1.30000000E+00  1.70000000E+00  1.30000000E+00  1.30000000E+00
  1.70000000E+00  1.30000000E+00  1.30000000E+00  1.70000000E+00  1.30000000E+00
  1.30000000E+00  1.30000000E+00  1.30000000E+00  1.30000000E+00  1.70000000E+00
  1.70000000E+00  1.30000000E+00  1.30000000E+00  1.30000000E+00  1.70000000E+00
  1.30000000E+00  1.30000000E+00  1.30000000E+00  1.30000000E+00  1.80000000E+00
  1.70000000E+00  1.70000000E+00  1.70000000E+00  1.70000000E+00  1.70000000E+00
  1.80000000E+00  1.70000000E+00  1.70000000E+00  1.30000000E+00  1.70000000E+00
  1.70000000E+00  1.70000000E+00  1.70000000E+00  1.70000000E+00  1.30000000E+00
  1.70000000E+00  1.70000000E+00  1.30000000E+00  1.30000000E+00  1.70000000E+00
  1.30000000E+00  1.30000000E+00  1.70000000E+00  1.30000000E+00  1.30000000E+00
  1.70000000E+00  1.30000000E+00  1.30000000E+00  1.70000000E+00  1.70000000E+00
  1.30000000E+00  1.30000000E+00  1.70000000E+00  1.70000000E+00  1.70000000E+00
  1.30000000E+00  1.30000000E+00  1.70000000E+00  1.30000000E+00  1.70000000E+00
  1.30000000E+00  1.70000000E+00  1.30000000E+00  1.30000000E+00  1.70000000E+00
  1.30000000E+00  1.30000000E+00  1.70000000E+00  1.30000000E+00  1.30000000E+00
  1.30000000E+00  1.30000000E+00  1.30000000E+00  1.70000000E+00  1.70000000E+00
  1.30000000E+00  1.30000000E+00  1.30000000E+00  1.70000000E+00  1.30000000E+00
  1.30000000E+00  1.30000000E+00  1.30000000E+00  1.80000000E+00  1.70000000E+00
  1.70000000E+00  1.70000000E+00  1.70000000E+00  1.70000000E+00  1.80000000E+00
  1.70000000E+00  1.70000000E+00  1.30000000E+00  1.70000000E+00  1.70000000E+00
  1.70000000E+00  1.70000000E+00  1.70000000E+00  1.30000000E+00  1.70000000E+00
  1.70000000E+00  1.30000000E+00  1.30000000E+00  1.70000000E+00  1.30000000E+00
  1.30000000E+00  1.70000000E+00  1.30000000E+00  1.30000000E+00  1.70000000E+00
  1.30000000E+00  1.30000000E+00  1.70000000E+00  1.70000000E+00  1.30000000E+00
  1.30000000E+00  1.70000000E+00  1.70000000E+00  1.70000000E+00  1.30000000E+00
  1.30000000E+00  1.70000000E+00  1.30000000E+00  1.70000000E+00  1.30000000E+00
  1.70000000E+00  1.30000000E+00  1.30000000E+00  1.70000000E+00  1.30000000E+00
  1.30000000E+00  1.70000000E+00  1.30000000E+00  1.30000000E+00  1.30000000E+00
  1.30000000E+00  1.30000000E+00  1.70000000E+00  1.70000000E+00  1.30000000E+00
  1.30000000E+00  1.30000000E+00  1.70000000E+00  1.30000000E+00  1.30000000E+00
  1.30000000E+00  1.30000000E+00  1.80000000E+00  1.70000000E+00  1.70000000E+00
  1.70000000E+00  1.70000000E+00  1.70000000E+00  1.80000000E+00  1.70000000E+00
  1.70000000E+00  1.30000000E+00  1.70000000E+00  1.70000000E+00  1.70000000E+00
  1.70000000E+00  1.70000000E+00  1.30000000E+00  1.70000000E+00  1.70000000E+00
  1.30000000E+00  1.30000000E+00  1.70000000E+00  1.30000000E+00  1.30000000E+00
  1.70000000E+00  1.30000000E+00  1.30000000E+00  1.70000000E+00  1.30000000E+00
  1.30000000E+00  1.70000000E+00  1.70000000E+00  1.30000000E+00  1.30000000E+00
  1.70000000E+00  1.70000000E+00  1.70000000E+00  1.30000000E+00  1.30000000E+00
  1.70000000E+00  1.30000000E+00  1.70000000E+00  1.30000000E+00  1.70000000E+00
  1.30000000E+00  1.30000000E+00  1.70000000E+00  1.30000000E+00  1.30000000E+00
  1.70000000E+00  1.30000000E+00  1.30000000E+00  1.30000000E+00  1.30000000E+00
  1.30000000E+00  1.70000000E+00  1.70000000E+00  1.30000000E+00  1.30000000E+00
  1.30000000E+00  1.70000000E+00  1.30000000E+00  1.30000000E+00  1.30000000E+00
  1.30000000E+00  1.80000000E+00  1.70000000E+00  1.70000000E+00  1.70000000E+00
  1.70000000E+00  1.70000000E+00  1.80000000E+00  1.70000000E+00  1.70000000E+00
  1.30000000E+00  1.70000000E+00  1.70000000E+00  1.70000000E+00  1.70000000E+00
  1.70000000E+00  1.30000000E+00  1.70000000E+00  1.70000000E+00  1.30000000E+00
  1.30000000E+00  1.70000000E+00  1.30000000E+00  1.30000000E+00  1.70000000E+00
  1.30000000E+00  1.30000000E+00  1.70000000E+00  1.30000000E+00  1.30000000E+00
  1.70000000E+00  1.70000000E+00  1.30000000E+00  1.30000000E+00  1.70000000E+00
  1.70000000E+00  1.70000000E+00  1.30000000E+00  1.30000000E+00  1.70000000E+00
  1.30000000E+00  1.70000000E+00  1.30000000E+00  1.70000000E+00  1.30000000E+00
  1.30000000E+00  1.70000000E+00  1.30000000E+00  1.30000000E+00  1.70000000E+00
  1.30000000E+00  1.30000000E+00  1.30000000E+00  1.30000000E+00  1.30000000E+00
  1.70000000E+00  1.70000000E+00  1.30000000E+00  1.30000000E+00  1.30000000E+00
  1.70000000E+00  1.30000000E+00  1.30000000E+00  1.30000000E+00  1.30000000E+00
  1.80000000E+00  1.70000000E+00  1.70000000E+00  1.70000000E+00  1.70000000E+00
  1.70000000E+00  1.80000000E+00  1.70000000E+00  1.70000000E+00  1.30000000E+00
  1.70000000E+00  1.70000000E+00  1.70000000E+00  1.70000000E+00  1.70000000E+00
  1.30000000E+00  1.70000000E+00  1.70000000E+00  1.30000000E+00  1.30000000E+00
  1.70000000E+00  1.30000000E+00  1.30000000E+00  1.70000000E+00  1.30000000E+00
  1.30000000E+00  1.70000000E+00  1.30000000E+00  1.30000000E+00  1.70000000E+00
  1.70000000E+00  1.30000000E+00  1.30000000E+00  1.70000000E+00  1.70000000E+00
  1.70000000E+00  1.30000000E+00  1.30000000E+00  1.70000000E+00  1.30000000E+00
  1.70000000E+00  1.30000000E+00  1.70000000E+00  1.30000000E+00  1.30000000E+00
  1.70000000E+00  1.30000000E+00  1.30000000E+00  1.70000000E+00  1.30000000E+00
  1.30000000E+00  1.30000000E+00  1.30000000E+00  1.30000000E+00  1.70000000E+00
  1.70000000E+00  1.30000000E+00  1.30000000E+00  1.30000000E+00  1.70000000E+00
  1.30000000E+00  1.30000000E+00  1.30000000E+00  1.30000000E+00  1.80000000E+00
  1.70000000E+00  1.70000000E+00  1.70000000E+00  1.70000000E+00  1.70000000E+00
  1.80000000E+00  1.70000000E+00  1.70000000E+00  1.30000000E+00  1.70000000E+00
  1.70000000E+00  1.70000000E+00  1.70000000E+00  1.70000000E+00  1.30000000E+00
  1.70000000E+00  1.70000000E+00  1.30000000E+00  1.30000000E+00  1.70000000E+00
  1.30000000E+00  1.30000000E+00  1.70000000E+00  1.30000000E+00  1.30000000E+00
  1.70000000E+00  1.30000000E+00  1.30000000E+00  1.70000000E+00  1.70000000E+00
  1.30000000E+00  1.30000000E+00  1.70000000E+00  1.70000000E+00  1.70000000E+00
  1.30000000E+00  1.30000000E+00  1.70000000E+00  1.30000000E+00  1.70000000E+00
  1.30000000E+00  1.70000000E+00  1.30000000E+00  1.30000000E+00  1.70000000E+00
  1.30000000E+00  1.30000000E+00  1.70000000E+00  1.30000000E+00  1.30000000E+00
  1.30000000E+00  1.30000000E+00  1.30000000E+00  1.70000000E+00  1.70000000E+00
  1.30000000E+00  1.30000000E+00  1.30000000E+00  1.70000000E+00  1.30000000E+00
  1.30000000E+00  1.30000000E+00  1.30000000E+00  1.80000000E+00  1.70000000E+00
  1.70000000E+00  1.70000000E+00  1.70000000E+00  1.70000000E+00  1.80000000E+00
  1.70000000E+00  1.70000000E+00  1.30000000E+00  1.70000000E+00  1.70000000E+00
  1.70000000E+00  1.70000000E+00  1.70000000E+00  1.30000000E+00  1.70000000E+00
  1.70000000E+00  1.30000000E+00  1.30000000E+00  1.70000000E+00  1.30000000E+00
  1.30000000E+00  1.70000000E+00  1.30000000E+00  1.30000000E+00  1.70000000E+00
  1.30000000E+00  1.30000000E+00  1.70000000E+00  1.70000000E+00  1.30000000E+00
  1.30000000E+00  1.70000000E+00  1.70000000E+00  1.70000000E+00  1.30000000E+00
  1.30000000E+00  1.70000000E+00  1.30000000E+00  1.70000000E+00  1.30000000E+00
  1.70000000E+00  1.30000000E+00  1.30000000E+00  1.70000000E+00  1.30000000E+00
  1.30000000E+00  1.70000000E+00  1.30000000E+00  1.30000000E+00  1.30000000E+00
  1.30000000E+00  1.30000000E+00  1.70000000E+00  1.70000000E+00  1.30000000E+00
  1.30000000E+00  1.30000000E+00  1.70000000E+00  1.30000000E+00  1.30000000E+00
  1.30000000E+00  1.30000000E+00  1.80000000E+00  1.70000000E+00  1.70000000E+00
  1.70000000E+00  1.70000000E+00  1.70000000E+00  1.80000000E+00  1.70000000E+00
  1.70000000E+00  1.30000000E+00  1.70000000E+00  1.70000000E+00  1.70000000E+00
  1.70000000E+00  1.70000000E+00  1.30000000E+00  1.70000000E+00  1.70000000E+00
  1.30000000E+00  1.30000000E+00  1.70000000E+00  1.30000000E+00  1.30000000E+00
  1.70000000E+00  1.30000000E+00  1.30000000E+00  1.70000000E+00  1.30000000E+00
  1.30000000E+00  1.70000000E+00  1.70000000E+00  1.30000000E+00  1.30000000E+00
  1.70000000E+00  1.70000000E+00  1.70000000E+00  1.30000000E+00  1.30000000E+00
  1.70000000E+00  1.30000000E+00  1.70000000E+00  1.30000000E+00  1.70000000E+00
  1.30000000E+00  1.30000000E+00  1.70000000E+00  1.30000000E+00  1.30000000E+00
  1.70000000E+00  1.30000000E+00  1.30000000E+00  1.30000000E+00  1.30000000E+00
  1.30000000E+00  1.70000000E+00  1.70000000E+00  1.30000000E+00  1.30000000E+00
  1.30000000E+00  1.70000000E+00  1.30000000E+00  1.30000000E+00  1.30000000E+00
  1.30000000E+00  1.80000000E+00  1.70000000E+00  1.70000000E+00  1.70000000E+00
  1.70000000E+00  1.70000000E+00  1.80000000E+00  1.70000000E+00  1.70000000E+00
  1.30000000E+00  1.70000000E+00  1.70000000E+00  1.70000000E+00  1.70000000E+00
  1.70000000E+00  1.30000000E+00  1.70000000E+00  1.70000000E+00  1.30000000E+00
  1.30000000E+00  1.70000000E+00  1.30000000E+00  1.30000000E+00  1.70000000E+00
  1.30000000E+00  1.30000000E+00  1.70000000E+00  1.30000000E+00  1.30000000E+00
  1.70000000E+00  1.70000000E+00  1.30000000E+00  1.30000000E+00  1.70000000E+00
  1.70000000E+00  1.70000000E+00  1.30000000E+00  1.30000000E+00  1.70000000E+00
  1.30000000E+00  1.70000000E+00  1.30000000E+00  1.70000000E+00  1.30000000E+00
  1.30000000E+00  1.70000000E+00  1.30000000E+00  1.30000000E+00  1.70000000E+00
  1.30000000E+00  1.30000000E+00  1.30000000E+00  1.30000000E+00  1.30000000E+00
  1.70000000E+00  1.70000000E+00  1.30000000E+00  1.30000000E+00  1.30000000E+00
  1.70000000E+00  1.30000000E+00  1.30000000E+00  1.30000000E+00  1.30000000E+00
  1.80000000E+00  1.70000000E+00  1.70000000E+00  1.70000000E+00  1.70000000E+00
  1.70000000E+00  1.80000000E+00  1.70000000E+00  1.70000000E+00  1.30000000E+00
  1.70000000E+00  1.70000000E+00  1.70000000E+00  1.70000000E+00  1.70000000E+00
  1.30000000E+00  1.70000000E+00  1.70000000E+00  1.30000000E+00  1.30000000E+00
  1.70000000E+00  1.30000000E+00  1.30000000E+00  1.70000000E+00  1.30000000E+00
  1.30000000E+00  1.70000000E+00  1.30000000E+00  1.30000000E+00  1.70000000E+00
  1.70000000E+00  1.30000000E+00  1.30000000E+00  1.70000000E+00  1.70000000E+00
  1.70000000E+00  1.30000000E+00  1.30000000E+00  1.70000000E+00  1.30000000E+00
  1.70000000E+00  1.30000000E+00  1.70000000E+00  1.30000000E+00  1.30000000E+00
  1.70000000E+00  1.30000000E+00  1.30000000E+00  1.70000000E+00  1.30000000E+00
  1.30000000E+00  1.30000000E+00  1.30000000E+00  1.30000000E+00  1.70000000E+00
  1.70000000E+00  1.30000000E+00  1.30000000E+00  1.30000000E+00  1.70000000E+00
  1.30000000E+00  1.30000000E+00  1.30000000E+00  1.30000000E+00  1.80000000E+00
  1.70000000E+00  1.70000000E+00  1.70000000E+00  1.70000000E+00  1.70000000E+00
  1.80000000E+00  1.70000000E+00  1.70000000E+00  1.30000000E+00  1.70000000E+00
  1.70000000E+00  1.70000000E+00  1.70000000E+00  1.70000000E+00  1.30000000E+00
  1.70000000E+00  1.70000000E+00  1.30000000E+00  1.30000000E+00  1.70000000E+00
  1.30000000E+00  1.30000000E+00  1.70000000E+00  1.30000000E+00  1.30000000E+00
  1.70000000E+00  1.30000000E+00  1.30000000E+00  1.70000000E+00  1.70000000E+00
  1.30000000E+00  1.30000000E+00  1.70000000E+00  1.70000000E+00  1.70000000E+00
  1.30000000E+00  1.30000000E+00  1.70000000E+00  1.30000000E+00  1.70000000E+00
  1.30000000E+00  1.70000000E+00  1.30000000E+00  1.30000000E+00  1.70000000E+00
  1.30000000E+00  1.30000000E+00  1.70000000E+00  1.30000000E+00  1.30000000E+00
  1.30000000E+00  1.30000000E+00  1.30000000E+00  1.70000000E+00  1.70000000E+00
  1.30000000E+00  1.30000000E+00  1.30000000E+00  1.70000000E+00  1.30000000E+00
  1.30000000E+00  1.30000000E+00  1.30000000E+00  1.80000000E+00  1.70000000E+00
  1.70000000E+00  1.70000000E+00  1.70000000E+00  1.70000000E+00  1.80000000E+00
  1.70000000E+00  1.70000000E+00  1.30000000E+00  1.70000000E+00  1.70000000E+00
  1.70000000E+00  1.70000000E+00  1.70000000E+00  1.30000000E+00  1.70000000E+00
  1.70000000E+00  1.30000000E+00  1.30000000E+00  1.70000000E+00  1.30000000E+00
  1.30000000E+00  1.70000000E+00  1.30000000E+00  1.30000000E+00  1.70000000E+00
  1.30000000E+00  1.30000000E+00  1.70000000E+00  1.70000000E+00  1.30000000E+00
  1.30000000E+00  1.70000000E+00  1.70000000E+00  1.70000000E+00  1.30000000E+00
  1.30000000E+00  1.70000000E+00  1.30000000E+00  1.70000000E+00  1.30000000E+00
  1.70000000E+00  1.30000000E+00  1.30000000E+00  1.70000000E+00  1.30000000E+00
  1.30000000E+00  1.70000000E+00  1.30000000E+00  1.30000000E+00  1.30000000E+00
  1.30000000E+00  1.30000000E+00  1.70000000E+00  1.70000000E+00  1.30000000E+00
  1.30000000E+00  1.30000000E+00  1.70000000E+00  1.30000000E+00  1.30000000E+00
  1.30000000E+00  1.30000000E+00  1.80000000E+00  1.70000000E+00  1.70000000E+00
  1.70000000E+00  1.70000000E+00  1.70000000E+00  1.80000000E+00  1.70000000E+00
  1.70000000E+00  1.30000000E+00  1.70000000E+00  1.70000000E+00  1.70000000E+00
  1.70000000E+00  1.70000000E+00  1.30000000E+00  1.70000000E+00  1.70000000E+00
  1.30000000E+00  1.30000000E+00  1.70000000E+00  1.30000000E+00  1.30000000E+00
  1.70000000E+00  1.30000000E+00  1.30000000E+00  1.70000000E+00  1.30000000E+00
  1.30000000E+00  1.70000000E+00  1.70000000E+00  1.30000000E+00  1.30000000E+00
  1.70000000E+00  1.70000000E+00  1.70000000E+00  1.30000000E+00  1.30000000E+00
  1.70000000E+00  1.30000000E+00  1.70000000E+00  1.30000000E+00  1.70000000E+00
  1.30000000E+00  1.30000000E+00  1.70000000E+00  1.30000000E+00  1.30000000E+00
  1.70000000E+00  1.30000000E+00  1.30000000E+00  1.30000000E+00  1.30000000E+00
  1.30000000E+00  1.70000000E+00  1.70000000E+00  1.30000000E+00  1.30000000E+00
  1.30000000E+00  1.70000000E+00  1.30000000E+00  1.30000000E+00  1.30000000E+00
  1.30000000E+00  1.80000000E+00  1.70000000E+00  1.70000000E+00  1.70000000E+00
  1.70000000E+00  1.70000000E+00  1.80000000E+00  1.70000000E+00  1.70000000E+00
  1.30000000E+00  1.70000000E+00  1.70000000E+00  1.70000000E+00  1.70000000E+00
  1.70000000E+00  1.30000000E+00  1.70000000E+00  1.70000000E+00  1.30000000E+00
  1.30000000E+00  1.70000000E+00  1.30000000E+00  1.30000000E+00  1.70000000E+00
  1.30000000E+00  1.30000000E+00  1.70000000E+00  1.30000000E+00  1.30000000E+00
  1.70000000E+00  1.70000000E+00  1.30000000E+00  1.30000000E+00  1.70000000E+00
  1.70000000E+00  1.70000000E+00  1.30000000E+00  1.30000000E+00  1.70000000E+00
  1.30000000E+00  1.70000000E+00  1.30000000E+00  1.70000000E+00  1.30000000E+00
  1.30000000E+00  1.70000000E+00  1.30000000E+00  1.30000000E+00  1.70000000E+00
  1.30000000E+00  1.30000000E+00  1.30000000E+00  1.30000000E+00  1.30000000E+00
  1.70000000E+00  1.70000000E+00  1.30000000E+00  1.30000000E+00  1.30000000E+00
  1.70000000E+00  1.30000000E+00  1.30000000E+00  1.30000000E+00  1.30000000E+00
  1.80000000E+00  1.70000000E+00  1.70000000E+00  1.70000000E+00  1.70000000E+00
  1.70000000E+00  1.80000000E+00  1.70000000E+00  1.70000000E+00  1.30000000E+00
  1.70000000E+00  1.70000000E+00  1.70000000E+00  1.70000000E+00  1.70000000E+00
  1.30000000E+00  1.70000000E+00  1.70000000E+00  1.30000000E+00  1.30000000E+00
  1.70000000E+00  1.30000000E+00  1.30000000E+00  1.70000000E+00  1.30000000E+00
  1.30000000E+00  1.70000000E+00  1.30000000E+00  1.30000000E+00  1.70000000E+00
  1.70000000E+00  1.30000000E+00  1.30000000E+00  1.70000000E+00  1.70000000E+00
  1.70000000E+00  1.30000000E+00  1.30000000E+00  1.70000000E+00  1.30000000E+00
  1.70000000E+00  1.30000000E+00  1.70000000E+00  1.30000000E+00  1.30000000E+00
  1.70000000E+00  1.30000000E+00  1.30000000E+00  1.70000000E+00  1.30000000E+00
  1.30000000E+00  1.30000000E+00  1.30000000E+00  1.30000000E+00  1.70000000E+00
  1.70000000E+00  1.30000000E+00  1.30000000E+00  1.30000000E+00  1.70000000E+00
  1.30000000E+00  1.30000000E+00  1.30000000E+00  1.30000000E+00  1.80000000E+00
  1.70000000E+00  1.70000000E+00  1.70000000E+00  1.70000000E+00  1.70000000E+00
  1.80000000E+00  1.70000000E+00  1.70000000E+00  1.30000000E+00  1.70000000E+00
  1.70000000E+00  1.70000000E+00  1.70000000E+00  1.70000000E+00  1.30000000E+00
  1.70000000E+00  1.70000000E+00  1.30000000E+00  1.30000000E+00  1.70000000E+00
  1.30000000E+00  1.30000000E+00  1.70000000E+00  1.30000000E+00  1.30000000E+00
  1.70000000E+00  1.30000000E+00  1.30000000E+00  1.70000000E+00  1.70000000E+00
  1.30000000E+00  1.30000000E+00  1.70000000E+00  1.70000000E+00  1.70000000E+00
  1.30000000E+00  1.30000000E+00  1.70000000E+00  1.30000000E+00  1.70000000E+00
  1.30000000E+00  1.70000000E+00  1.30000000E+00  1.30000000E+00  1.70000000E+00
  1.30000000E+00  1.30000000E+00  1.70000000E+00  1.30000000E+00  1.30000000E+00
  1.30000000E+00  1.30000000E+00  1.30000000E+00  1.70000000E+00  1.70000000E+00
  1.30000000E+00  1.30000000E+00  1.30000000E+00  1.70000000E+00  1.30000000E+00
  1.30000000E+00  1.30000000E+00  1.30000000E+00  1.80000000E+00  1.70000000E+00
  1.70000000E+00  1.70000000E+00  1.70000000E+00  1.70000000E+00  1.80000000E+00
  1.70000000E+00  1.70000000E+00  1.30000000E+00  1.70000000E+00  1.70000000E+00
  1.70000000E+00  1.70000000E+00  1.70000000E+00  1.30000000E+00  1.70000000E+00
  1.70000000E+00  1.30000000E+00  1.30000000E+00  1.70000000E+00  1.30000000E+00
  1.30000000E+00  1.70000000E+00  1.30000000E+00  1.30000000E+00  1.70000000E+00
  1.30000000E+00  1.30000000E+00  1.70000000E+00  1.70000000E+00  1.30000000E+00
  1.30000000E+00  1.70000000E+00  1.70000000E+00  1.70000000E+00  1.30000000E+00
  1.30000000E+00  1.70000000E+00  1.30000000E+00  1.70000000E+00  1.30000000E+00
  1.70000000E+00  1.30000000E+00  1.30000000E+00  1.70000000E+00  1.30000000E+00
  1.30000000E+00  1.70000000E+00  1.30000000E+00  1.30000000E+00  1.30000000E+00
  1.30000000E+00  1.30000000E+00  1.70000000E+00  1.70000000E+00  1.30000000E+00
  1.30000000E+00  1.30000000E+00  1.70000000E+00  1.30000000E+00  1.30000000E+00
  1.30000000E+00  1.30000000E+00  1.80000000E+00  1.70000000E+00  1.70000000E+00
  1.70000000E+00  1.70000000E+00  1.70000000E+00  1.80000000E+00  1.70000000E+00
  1.70000000E+00  1.30000000E+00  1.70000000E+00  1.70000000E+00  1.70000000E+00
  1.70000000E+00  1.70000000E+00  1.30000000E+00  1.70000000E+00  1.70000000E+00
  1.30000000E+00  1.30000000E+00  1.70000000E+00  1.30000000E+00  1.30000000E+00
  1.70000000E+00  1.30000000E+00  1.30000000E+00  1.70000000E+00  1.30000000E+00
  1.30000000E+00  1.70000000E+00  1.70000000E+00  1.30000000E+00  1.30000000E+00
  1.70000000E+00  1.70000000E+00  1.70000000E+00  1.30000000E+00  1.30000000E+00
  1.70000000E+00  1.30000000E+00  1.70000000E+00  1.30000000E+00  1.70000000E+00
  1.30000000E+00  1.30000000E+00  1.70000000E+00  1.30000000E+00  1.30000000E+00
  1.70000000E+00  1.30000000E+00  1.30000000E+00  1.30000000E+00  1.30000000E+00
  1.30000000E+00  1.70000000E+00  1.70000000E+00  1.30000000E+00  1.30000000E+00
  1.30000000E+00  1.70000000E+00  1.30000000E+00  1.30000000E+00  1.30000000E+00
  1.30000000E+00  1.80000000E+00  1.70000000E+00  1.70000000E+00  1.70000000E+00
  1.70000000E+00  1.70000000E+00  1.80000000E+00  1.70000000E+00  1.70000000E+00
  1.30000000E+00  1.70000000E+00  1.70000000E+00  1.70000000E+00  1.70000000E+00
  1.70000000E+00  1.30000000E+00  1.70000000E+00  1.70000000E+00  1.30000000E+00
  1.30000000E+00  1.70000000E+00  1.30000000E+00  1.30000000E+00  1.70000000E+00
  1.30000000E+00  1.30000000E+00  1.70000000E+00  1.30000000E+00  1.30000000E+00
  1.70000000E+00  1.70000000E+00  1.30000000E+00  1.30000000E+00  1.70000000E+00
  1.70000000E+00  1.70000000E+00  1.30000000E+00  1.30000000E+00  1.70000000E+00
  1.30000000E+00  1.70000000E+00  1.30000000E+00  1.70000000E+00  1.30000000E+00
  1.30000000E+00  1.70000000E+00  1.30000000E+00  1.30000000E+00  1.70000000E+00
  1.30000000E+00  1.30000000E+00  1.30000000E+00  1.30000000E+00  1.30000000E+00
  1.70000000E+00  1.70000000E+00  1.30000000E+00  1.30000000E+00  1.30000000E+00
  1.70000000E+00  1.30000000E+00  1.30000000E+00  1.30000000E+00  1.30000000E+00
  1.80000000E+00  1.70000000E+00  1.70000000E+00  1.70000000E+00  1.70000000E+00
  1.70000000E+00  1.80000000E+00  1.70000000E+00  1.70000000E+00  1.30000000E+00
  1.70000000E+00  1.70000000E+00  1.70000000E+00  1.70000000E+00  1.70000000E+00
  1.30000000E+00  1.70000000E+00  1.70000000E+00  1.30000000E+00  1.30000000E+00
  1.70000000E+00  1.30000000E+00  1.30000000E+00  1.70000000E+00  1.30000000E+00
  1.30000000E+00  1.70000000E+00  1.30000000E+00  1.30000000E+00  1.70000000E+00
  1.70000000E+00  1.30000000E+00  1.30000000E+00  1.70000000E+00  1.70000000E+00
  1.70000000E+00  1.30000000E+00  1.30000000E+00  1.70000000E+00  1.30000000E+00
  1.70000000E+00  1.30000000E+00  1.70000000E+00  1.30000000E+00  1.30000000E+00
  1.70000000E+00  1.30000000E+00  1.30000000E+00  1.70000000E+00  1.30000000E+00
  1.30000000E+00  1.30000000E+00  1.30000000E+00  1.30000000E+00  1.70000000E+00
  1.70000000E+00  1.30000000E+00  1.30000000E+00  1.30000000E+00  1.70000000E+00
  1.30000000E+00  1.30000000E+00  1.30000000E+00  1.30000000E+00  1.80000000E+00
  1.70000000E+00  1.70000000E+00  1.70000000E+00  1.70000000E+00  1.70000000E+00
  1.80000000E+00  1.70000000E+00  1.70000000E+00  1.30000000E+00  1.70000000E+00
  1.70000000E+00  1.70000000E+00  1.70000000E+00  1.70000000E+00  1.30000000E+00
  1.70000000E+00  1.70000000E+00  1.30000000E+00  1.30000000E+00  1.70000000E+00
  1.30000000E+00  1.30000000E+00  1.70000000E+00  1.30000000E+00  1.30000000E+00
  1.70000000E+00  1.30000000E+00  1.30000000E+00  1.70000000E+00  1.70000000E+00
  1.30000000E+00  1.30000000E+00  1.70000000E+00  1.70000000E+00  1.70000000E+00
  1.30000000E+00  1.30000000E+00  1.70000000E+00  1.30000000E+00  1.70000000E+00
  1.30000000E+00  1.70000000E+00  1.30000000E+00  1.30000000E+00  1.70000000E+00
  1.30000000E+00  1.30000000E+00  1.70000000E+00  1.30000000E+00  1.30000000E+00
  1.30000000E+00  1.30000000E+00  1.30000000E+00  1.70000000E+00  1.70000000E+00
  1.30000000E+00  1.30000000E+00  1.30000000E+00  1.70000000E+00  1.30000000E+00
  1.30000000E+00  1.30000000E+00  1.30000000E+00  1.80000000E+00  1.70000000E+00
  1.70000000E+00  1.70000000E+00  1.70000000E+00  1.70000000E+00  1.80000000E+00
  1.70000000E+00  1.70000000E+00  1.30000000E+00  1.70000000E+00  1.70000000E+00
  1.70000000E+00  1.70000000E+00  1.70000000E+00  1.30000000E+00  1.70000000E+00
  1.70000000E+00  1.30000000E+00  1.30000000E+00  1.70000000E+00  1.30000000E+00
  1.30000000E+00  1.70000000E+00  1.30000000E+00  1.30000000E+00  1.70000000E+00
  1.30000000E+00  1.30000000E+00  1.70000000E+00  1.70000000E+00  1.30000000E+00
  1.30000000E+00  1.70000000E+00  1.70000000E+00  1.70000000E+00  1.30000000E+00
  1.30000000E+00  1.70000000E+00  1.30000000E+00  1.70000000E+00  1.30000000E+00
  1.70000000E+00  1.30000000E+00  1.30000000E+00  1.70000000E+00  1.30000000E+00
  1.30000000E+00  1.70000000E+00  1.30000000E+00  1.30000000E+00  1.30000000E+00
  1.30000000E+00  1.30000000E+00  1.70000000E+00  1.70000000E+00  1.30000000E+00
  1.30000000E+00  1.30000000E+00  1.70000000E+00  1.30000000E+00  1.30000000E+00
  1.30000000E+00  1.30000000E+00  1.80000000E+00  1.70000000E+00  1.70000000E+00
  1.70000000E+00  1.70000000E+00  1.70000000E+00  1.80000000E+00  1.70000000E+00
  1.70000000E+00  1.30000000E+00  1.70000000E+00  1.70000000E+00  1.70000000E+00
  1.70000000E+00  1.70000000E+00  1.30000000E+00  1.70000000E+00  1.70000000E+00
  1.30000000E+00  1.30000000E+00  1.70000000E+00  1.30000000E+00  1.30000000E+00
  1.70000000E+00  1.30000000E+00  1.30000000E+00  1.70000000E+00  1.30000000E+00
  1.30000000E+00  1.70000000E+00  1.70000000E+00  1.30000000E+00  1.30000000E+00
  1.70000000E+00  1.70000000E+00  1.70000000E+00  1.30000000E+00  1.30000000E+00
  1.70000000E+00  1.30000000E+00  1.70000000E+00  1.30000000E+00  1.70000000E+00
  1.30000000E+00  1.30000000E+00  1.70000000E+00  1.30000000E+00  1.30000000E+00
  1.70000000E+00  1.30000000E+00  1.30000000E+00  1.30000000E+00  1.30000000E+00
  1.30000000E+00  1.70000000E+00  1.70000000E+00  1.30000000E+00  1.30000000E+00
  1.30000000E+00  1.70000000E+00  1.30000000E+00  1.30000000E+00  1.30000000E+00
  1.30000000E+00  1.80000000E+00  1.70000000E+00  1.70000000E+00  1.70000000E+00
  1.70000000E+00  1.70000000E+00  1.80000000E+00  1.70000000E+00  1.70000000E+00
  1.30000000E+00  1.70000000E+00  1.70000000E+00  1.70000000E+00  1.70000000E+00
  1.70000000E+00  1.30000000E+00  1.70000000E+00  1.70000000E+00  1.30000000E+00
  1.30000000E+00  1.70000000E+00  1.30000000E+00  1.30000000E+00  1.70000000E+00
  1.30000000E+00  1.30000000E+00  1.70000000E+00  1.30000000E+00  1.30000000E+00
  1.70000000E+00  1.70000000E+00  1.30000000E+00  1.30000000E+00  1.70000000E+00
  1.70000000E+00  1.70000000E+00  1.30000000E+00  1.30000000E+00  1.70000000E+00
  1.30000000E+00  1.70000000E+00  1.30000000E+00  1.70000000E+00  1.30000000E+00
  1.30000000E+00  1.70000000E+00  1.30000000E+00  1.30000000E+00  1.70000000E+00
  1.30000000E+00  1.30000000E+00  1.30000000E+00  1.30000000E+00  1.30000000E+00
  1.70000000E+00  1.70000000E+00  1.30000000E+00  1.30000000E+00  1.30000000E+00
  1.70000000E+00  1.30000000E+00  1.30000000E+00  1.30000000E+00  1.30000000E+00
  1.80000000E+00  1.70000000E+00  1.70000000E+00  1.70000000E+00  1.70000000E+00
  1.70000000E+00  1.80000000E+00  1.70000000E+00  1.70000000E+00  1.30000000E+00
  1.70000000E+00  1.70000000E+00  1.70000000E+00  1.70000000E+00  1.70000000E+00
  1.30000000E+00  1.70000000E+00  1.70000000E+00  1.30000000E+00  1.30000000E+00
  1.70000000E+00  1.30000000E+00  1.30000000E+00  1.70000000E+00  1.30000000E+00
  1.30000000E+00  1.70000000E+00  1.30000000E+00  1.30000000E+00  1.70000000E+00
  1.70000000E+00  1.30000000E+00  1.30000000E+00  1.70000000E+00  1.70000000E+00
  1.70000000E+00  1.30000000E+00  1.30000000E+00  1.70000000E+00  1.30000000E+00
  1.70000000E+00  1.30000000E+00  1.70000000E+00  1.30000000E+00  1.30000000E+00
  1.70000000E+00  1.30000000E+00  1.30000000E+00  1.70000000E+00  1.30000000E+00
  1.30000000E+00  1.30000000E+00  1.30000000E+00  1.30000000E+00  1.70000000E+00
  1.70000000E+00  1.30000000E+00  1.30000000E+00  1.30000000E+00  1.70000000E+00
  1.30000000E+00  1.30000000E+00  1.30000000E+00  1.30000000E+00  1.80000000E+00
  1.70000000E+00  1.70000000E+00  1.70000000E+00  1.70000000E+00  1.70000000E+00
  1.80000000E+00  1.70000000E+00  1.70000000E+00  1.30000000E+00  1.70000000E+00
  1.70000000E+00  1.70000000E+00  1.70000000E+00  1.70000000E+00  1.30000000E+00
  1.70000000E+00  1.70000000E+00  1.30000000E+00  1.30000000E+00  1.70000000E+00
  1.30000000E+00  1.30000000E+00  1.70000000E+00  1.30000000E+00  1.30000000E+00
  1.70000000E+00  1.30000000E+00  1.30000000E+00  1.70000000E+00  1.70000000E+00
  1.30000000E+00  1.30000000E+00  1.70000000E+00  1.70000000E+00  1.70000000E+00
  1.30000000E+00  1.30000000E+00  1.70000000E+00  1.30000000E+00  1.70000000E+00
  1.30000000E+00  1.70000000E+00  1.30000000E+00  1.30000000E+00  1.70000000E+00
  1.30000000E+00  1.30000000E+00  1.70000000E+00  1.30000000E+00  1.30000000E+00
  1.30000000E+00  1.30000000E+00  1.30000000E+00  1.70000000E+00  1.70000000E+00
  1.30000000E+00  1.30000000E+00  1.30000000E+00  1.70000000E+00  1.30000000E+00
  1.30000000E+00  1.30000000E+00  1.30000000E+00  1.80000000E+00  1.70000000E+00
  1.70000000E+00  1.70000000E+00  1.70000000E+00  1.70000000E+00  1.80000000E+00
  1.70000000E+00  1.70000000E+00  1.30000000E+00  1.70000000E+00  1.70000000E+00
  1.70000000E+00  1.70000000E+00  1.70000000E+00  1.30000000E+00  1.70000000E+00
  1.70000000E+00  1.30000000E+00  1.30000000E+00  1.70000000E+00  1.30000000E+00
  1.30000000E+00  1.70000000E+00  1.30000000E+00  1.30000000E+00  1.70000000E+00
  1.30000000E+00  1.30000000E+00  1.70000000E+00  1.70000000E+00  1.30000000E+00
  1.30000000E+00  1.70000000E+00  1.70000000E+00  1.70000000E+00  1.30000000E+00
  1.30000000E+00  1.70000000E+00  1.30000000E+00  1.70000000E+00  1.30000000E+00
  1.70000000E+00  1.30000000E+00  1.30000000E+00  1.70000000E+00  1.30000000E+00
  1.30000000E+00  1.70000000E+00  1.30000000E+00  1.30000000E+00  1.30000000E+00
  1.30000000E+00  1.30000000E+00  1.70000000E+00  1.70000000E+00  1.30000000E+00
  1.30000000E+00  1.30000000E+00  1.70000000E+00  1.30000000E+00  1.30000000E+00
  1.30000000E+00  1.30000000E+00  1.80000000E+00  1.70000000E+00  1.70000000E+00
  1.70000000E+00  1.70000000E+00  1.70000000E+00  1.80000000E+00  1.70000000E+00
  1.70000000E+00  1.30000000E+00  1.70000000E+00  1.70000000E+00  1.70000000E+00
  1.70000000E+00  1.70000000E+00  1.30000000E+00  1.70000000E+00  1.70000000E+00
  1.30000000E+00  1.30000000E+00  1.70000000E+00  1.30000000E+00  1.30000000E+00
  1.70000000E+00  1.30000000E+00  1.30000000E+00  1.70000000E+00  1.30000000E+00
  1.30000000E+00  1.70000000E+00  1.70000000E+00  1.30000000E+00  1.30000000E+00
  1.70000000E+00  1.70000000E+00  1.70000000E+00  1.30000000E+00  1.30000000E+00
  1.70000000E+00  1.30000000E+00  1.70000000E+00  1.30000000E+00  1.70000000E+00
  1.30000000E+00  1.30000000E+00  1.70000000E+00  1.30000000E+00  1.30000000E+00
  1.70000000E+00  1.30000000E+00  1.30000000E+00  1.30000000E+00  1.30000000E+00
  1.30000000E+00  1.70000000E+00  1.70000000E+00  1.30000000E+00  1.30000000E+00
  1.30000000E+00  1.70000000E+00  1.30000000E+00  1.30000000E+00  1.30000000E+00
  1.30000000E+00  1.80000000E+00  1.70000000E+00  1.70000000E+00  1.70000000E+00
  1.70000000E+00  1.70000000E+00  1.80000000E+00  1.70000000E+00  1.70000000E+00
  1.30000000E+00  1.70000000E+00  1.70000000E+00  1.70000000E+00  1.70000000E+00
  1.70000000E+00  1.30000000E+00  1.70000000E+00  1.70000000E+00  1.30000000E+00
  1.30000000E+00  1.70000000E+00  1.30000000E+00  1.30000000E+00  1.70000000E+00
  1.30000000E+00  1.30000000E+00  1.70000000E+00  1.30000000E+00  1.30000000E+00
  1.70000000E+00  1.70000000E+00  1.30000000E+00  1.30000000E+00  1.70000000E+00
  1.70000000E+00  1.70000000E+00  1.30000000E+00  1.30000000E+00  1.70000000E+00
  1.30000000E+00  1.70000000E+00  1.30000000E+00  1.70000000E+00  1.30000000E+00
  1.30000000E+00  1.70000000E+00  1.30000000E+00  1.30000000E+00  1.70000000E+00
  1.30000000E+00  1.30000000E+00  1.30000000E+00  1.30000000E+00  1.30000000E+00
  1.70000000E+00  1.70000000E+00  1.30000000E+00  1.30000000E+00  1.30000000E+00
  1.70000000E+00  1.30000000E+00  1.30000000E+00  1.30000000E+00  1.30000000E+00
  1.80000000E+00  1.70000000E+00  1.70000000E+00  1.70000000E+00  1.70000000E+00
  1.70000000E+00  1.80000000E+00  1.70000000E+00  1.70000000E+00  1.30000000E+00
  1.70000000E+00  1.70000000E+00  1.70000000E+00  1.70000000E+00  1.70000000E+00
  1.30000000E+00  1.70000000E+00  1.70000000E+00  1.30000000E+00  1.30000000E+00
  1.70000000E+00  1.30000000E+00  1.30000000E+00  1.70000000E+00  1.30000000E+00
  1.30000000E+00  1.70000000E+00  1.30000000E+00  1.30000000E+00  1.70000000E+00
  1.70000000E+00  1.30000000E+00  1.30000000E+00  1.70000000E+00  1.70000000E+00
  1.70000000E+00  1.30000000E+00  1.30000000E+00  1.70000000E+00  1.30000000E+00
  1.70000000E+00  1.30000000E+00  1.70000000E+00  1.30000000E+00  1.30000000E+00
  1.70000000E+00  1.30000000E+00  1.30000000E+00  1.70000000E+00  1.30000000E+00
  1.30000000E+00  1.30000000E+00  1.30000000E+00  1.30000000E+00  1.70000000E+00
  1.70000000E+00  1.30000000E+00  1.30000000E+00  1.30000000E+00  1.70000000E+00
  1.30000000E+00  1.30000000E+00  1.30000000E+00  1.30000000E+00  1.80000000E+00
  1.70000000E+00  1.70000000E+00  1.70000000E+00  1.70000000E+00  1.70000000E+00
  1.80000000E+00  1.70000000E+00  1.70000000E+00  1.30000000E+00  1.70000000E+00
  1.70000000E+00  1.70000000E+00  1.70000000E+00  1.70000000E+00  1.30000000E+00
  1.70000000E+00  1.70000000E+00  1.30000000E+00  1.30000000E+00  1.70000000E+00
  1.30000000E+00  1.30000000E+00  1.70000000E+00  1.30000000E+00  1.30000000E+00
  1.70000000E+00  1.30000000E+00  1.30000000E+00  1.70000000E+00  1.70000000E+00
  1.30000000E+00  1.30000000E+00  1.70000000E+00  1.70000000E+00  1.70000000E+00
  1.30000000E+00  1.30000000E+00  1.70000000E+00  1.30000000E+00  1.70000000E+00
  1.30000000E+00  1.70000000E+00  1.30000000E+00  1.30000000E+00  1.70000000E+00
  1.30000000E+00  1.30000000E+00  1.70000000E+00  1.30000000E+00  1.30000000E+00
  1.30000000E+00  1.30000000E+00  1.30000000E+00  1.70000000E+00  1.70000000E+00
  1.30000000E+00  1.30000000E+00  1.30000000E+00  1.70000000E+00  1.30000000E+00
  1.30000000E+00  1.30000000E+00  1.30000000E+00  1.80000000E+00  1.70000000E+00
  1.70000000E+00  1.70000000E+00  1.70000000E+00  1.70000000E+00  1.80000000E+00
  1.70000000E+00  1.70000000E+00  1.30000000E+00  1.70000000E+00  1.70000000E+00
  1.70000000E+00  1.70000000E+00  1.70000000E+00  1.30000000E+00  1.70000000E+00
  1.70000000E+00  1.30000000E+00  1.30000000E+00  1.70000000E+00  1.30000000E+00
  1.30000000E+00  1.70000000E+00  1.30000000E+00  1.30000000E+00  1.70000000E+00
  1.30000000E+00  1.30000000E+00  1.70000000E+00  1.70000000E+00  1.30000000E+00
  1.30000000E+00  1.70000000E+00  1.70000000E+00  1.70000000E+00  1.30000000E+00
  1.30000000E+00  1.70000000E+00  1.30000000E+00  1.70000000E+00  1.30000000E+00
  1.70000000E+00  1.30000000E+00  1.30000000E+00  1.70000000E+00  1.30000000E+00
  1.30000000E+00  1.70000000E+00  1.30000000E+00  1.30000000E+00  1.30000000E+00
  1.30000000E+00  1.30000000E+00  1.70000000E+00  1.70000000E+00  1.30000000E+00
  1.30000000E+00  1.30000000E+00  1.70000000E+00  1.30000000E+00  1.30000000E+00
  1.30000000E+00  1.30000000E+00  1.80000000E+00  1.70000000E+00  1.70000000E+00
  1.70000000E+00  1.70000000E+00  1.70000000E+00  1.80000000E+00  1.70000000E+00
  1.70000000E+00  1.30000000E+00  1.70000000E+00  1.70000000E+00  1.70000000E+00
  1.70000000E+00  1.70000000E+00  1.30000000E+00  1.70000000E+00  1.70000000E+00
  1.30000000E+00  1.30000000E+00  1.70000000E+00  1.30000000E+00  1.30000000E+00
  1.70000000E+00  1.30000000E+00  1.30000000E+00  1.70000000E+00  1.30000000E+00
  1.30000000E+00  1.70000000E+00  1.70000000E+00  1.30000000E+00  1.30000000E+00
  1.70000000E+00  1.70000000E+00  1.70000000E+00  1.30000000E+00  1.30000000E+00
  1.70000000E+00  1.30000000E+00  1.70000000E+00  1.30000000E+00  1.70000000E+00
  1.30000000E+00  1.30000000E+00  1.70000000E+00  1.30000000E+00  1.30000000E+00
  1.70000000E+00  1.30000000E+00  1.30000000E+00  1.30000000E+00  1.30000000E+00
  1.30000000E+00  1.70000000E+00  1.70000000E+00  1.30000000E+00  1.30000000E+00
  1.30000000E+00  1.70000000E+00  1.30000000E+00  1.30000000E+00  1.30000000E+00
  1.30000000E+00  1.80000000E+00  1.70000000E+00  1.70000000E+00  1.70000000E+00
  1.70000000E+00  1.70000000E+00  1.80000000E+00  1.70000000E+00  1.70000000E+00
  1.30000000E+00  1.70000000E+00  1.70000000E+00  1.70000000E+00  1.70000000E+00
  1.70000000E+00  1.30000000E+00  1.70000000E+00  1.70000000E+00  1.30000000E+00
  1.30000000E+00  1.70000000E+00  1.30000000E+00  1.30000000E+00  1.70000000E+00
  1.30000000E+00  1.30000000E+00  1.70000000E+00  1.30000000E+00  1.30000000E+00
  1.70000000E+00  1.70000000E+00  1.30000000E+00  1.30000000E+00  1.70000000E+00
  1.70000000E+00  1.70000000E+00  1.30000000E+00  1.30000000E+00  1.70000000E+00
  1.30000000E+00  1.70000000E+00  1.30000000E+00  1.70000000E+00  1.30000000E+00
  1.30000000E+00  1.70000000E+00  1.30000000E+00  1.30000000E+00  1.70000000E+00
  1.30000000E+00  1.30000000E+00  1.30000000E+00  1.30000000E+00  1.30000000E+00
  1.70000000E+00  1.70000000E+00  1.30000000E+00  1.30000000E+00  1.30000000E+00
  1.70000000E+00  1.30000000E+00  1.30000000E+00  1.30000000E+00  1.30000000E+00
  1.80000000E+00  1.70000000E+00  1.70000000E+00  1.70000000E+00  1.70000000E+00
  1.70000000E+00  1.80000000E+00  1.70000000E+00  1.70000000E+00  1.30000000E+00
  1.70000000E+00  1.70000000E+00  1.70000000E+00  1.70000000E+00  1.70000000E+00
  1.30000000E+00  1.70000000E+00  1.70000000E+00  1.30000000E+00  1.30000000E+00
  1.70000000E+00  1.30000000E+00  1.30000000E+00  1.70000000E+00  1.30000000E+00
  1.30000000E+00  1.70000000E+00  1.30000000E+00  1.30000000E+00  1.70000000E+00
  1.70000000E+00  1.30000000E+00  1.30000000E+00  1.70000000E+00  1.70000000E+00
  1.70000000E+00  1.30000000E+00  1.30000000E+00  1.70000000E+00  1.30000000E+00
  1.70000000E+00  1.30000000E+00  1.70000000E+00  1.30000000E+00  1.30000000E+00
  1.70000000E+00  1.30000000E+00  1.30000000E+00  1.70000000E+00  1.30000000E+00
  1.30000000E+00  1.30000000E+00  1.30000000E+00  1.30000000E+00  1.70000000E+00
  1.70000000E+00  1.30000000E+00  1.30000000E+00  1.30000000E+00  1.70000000E+00
  1.30000000E+00  1.30000000E+00  1.30000000E+00  1.30000000E+00  1.80000000E+00
  1.70000000E+00  1.70000000E+00  1.70000000E+00  1.70000000E+00  1.70000000E+00
  1.80000000E+00  1.70000000E+00  1.70000000E+00  1.30000000E+00  1.70000000E+00
  1.70000000E+00  1.70000000E+00  1.70000000E+00  1.70000000E+00  1.30000000E+00
  1.70000000E+00  1.70000000E+00  1.30000000E+00  1.30000000E+00  1.70000000E+00
  1.30000000E+00  1.30000000E+00  1.70000000E+00  1.30000000E+00  1.30000000E+00
  1.70000000E+00  1.30000000E+00  1.30000000E+00  1.70000000E+00  1.70000000E+00
  1.30000000E+00  1.30000000E+00  1.70000000E+00  1.70000000E+00  1.70000000E+00
  1.30000000E+00  1.30000000E+00  1.70000000E+00  1.30000000E+00  1.70000000E+00
  1.30000000E+00  1.70000000E+00  1.30000000E+00  1.30000000E+00  1.70000000E+00
  1.30000000E+00  1.30000000E+00  1.70000000E+00  1.30000000E+00  1.30000000E+00
  1.30000000E+00  1.30000000E+00  1.30000000E+00  1.70000000E+00  1.70000000E+00
  1.30000000E+00  1.30000000E+00  1.30000000E+00  1.70000000E+00  1.30000000E+00
  1.30000000E+00  1.30000000E+00  1.30000000E+00  1.80000000E+00  1.70000000E+00
  1.70000000E+00  1.70000000E+00  1.70000000E+00  1.70000000E+00  1.80000000E+00
  1.70000000E+00  1.70000000E+00  1.30000000E+00  1.70000000E+00  1.70000000E+00
  1.70000000E+00  1.70000000E+00  1.70000000E+00  1.30000000E+00  1.70000000E+00
  1.70000000E+00  1.30000000E+00  1.30000000E+00  1.70000000E+00  1.30000000E+00
  1.30000000E+00  1.70000000E+00  1.30000000E+00  1.30000000E+00  1.70000000E+00
  1.30000000E+00  1.30000000E+00  1.70000000E+00  1.70000000E+00  1.30000000E+00
  1.30000000E+00  1.70000000E+00  1.70000000E+00  1.70000000E+00  1.30000000E+00
  1.30000000E+00  1.70000000E+00  1.30000000E+00  1.70000000E+00  1.30000000E+00
  1.70000000E+00  1.30000000E+00  1.30000000E+00  1.70000000E+00  1.30000000E+00
  1.30000000E+00  1.70000000E+00  1.30000000E+00  1.30000000E+00  1.30000000E+00
  1.30000000E+00  1.30000000E+00  1.70000000E+00  1.70000000E+00  1.30000000E+00
  1.30000000E+00  1.30000000E+00  1.70000000E+00  1.30000000E+00  1.30000000E+00
  1.30000000E+00  1.30000000E+00  1.80000000E+00  1.70000000E+00  1.70000000E+00
  1.70000000E+00  1.70000000E+00  1.70000000E+00  1.80000000E+00  1.70000000E+00
  1.70000000E+00  1.30000000E+00  1.70000000E+00  1.70000000E+00  1.70000000E+00
  1.70000000E+00  1.70000000E+00  1.30000000E+00  1.70000000E+00  1.70000000E+00
  1.30000000E+00  1.30000000E+00  1.70000000E+00  1.30000000E+00  1.30000000E+00
  1.70000000E+00  1.30000000E+00  1.30000000E+00  1.70000000E+00  1.30000000E+00
  1.30000000E+00  1.70000000E+00  1.70000000E+00  1.30000000E+00  1.30000000E+00
  1.70000000E+00  1.70000000E+00  1.70000000E+00  1.30000000E+00  1.30000000E+00
  1.70000000E+00  1.30000000E+00  1.70000000E+00  1.30000000E+00  1.70000000E+00
  1.30000000E+00  1.30000000E+00  1.70000000E+00  1.30000000E+00  1.30000000E+00
  1.70000000E+00  1.30000000E+00  1.30000000E+00  1.30000000E+00  1.30000000E+00
  1.30000000E+00  1.70000000E+00  1.70000000E+00  1.30000000E+00  1.30000000E+00
  1.30000000E+00  1.70000000E+00  1.30000000E+00  1.30000000E+00  1.30000000E+00
  1.30000000E+00  1.80000000E+00  1.70000000E+00  1.70000000E+00  1.70000000E+00
  1.70000000E+00  1.70000000E+00  1.80000000E+00  1.70000000E+00  1.70000000E+00
  1.30000000E+00  1.70000000E+00  1.70000000E+00  1.70000000E+00  1.70000000E+00
  1.70000000E+00  1.30000000E+00  1.70000000E+00  1.70000000E+00  1.30000000E+00
  1.30000000E+00  1.70000000E+00  1.30000000E+00  1.30000000E+00  1.70000000E+00
  1.30000000E+00  1.30000000E+00  1.70000000E+00  1.30000000E+00  1.30000000E+00
  1.70000000E+00  1.70000000E+00  1.30000000E+00  1.30000000E+00  1.70000000E+00
  1.70000000E+00  1.70000000E+00  1.30000000E+00  1.30000000E+00  1.70000000E+00
  1.30000000E+00  1.70000000E+00  1.30000000E+00  1.70000000E+00  1.30000000E+00
  1.30000000E+00  1.70000000E+00  1.30000000E+00  1.30000000E+00  1.70000000E+00
  1.30000000E+00  1.30000000E+00  1.30000000E+00  1.30000000E+00  1.30000000E+00
  1.70000000E+00  1.70000000E+00  1.30000000E+00  1.30000000E+00  1.30000000E+00
  1.70000000E+00  1.30000000E+00  1.30000000E+00  1.30000000E+00  1.30000000E+00
  1.80000000E+00  1.70000000E+00  1.70000000E+00  1.70000000E+00  1.70000000E+00
  1.70000000E+00  1.80000000E+00  1.70000000E+00  1.70000000E+00  1.30000000E+00
  1.70000000E+00  1.70000000E+00  1.70000000E+00  1.70000000E+00  1.70000000E+00
  1.30000000E+00  1.70000000E+00  1.70000000E+00  1.30000000E+00  1.30000000E+00
  1.70000000E+00  1.30000000E+00  1.30000000E+00  1.70000000E+00  1.30000000E+00
  1.30000000E+00  1.70000000E+00  1.30000000E+00  1.30000000E+00  1.70000000E+00
  1.70000000E+00  1.30000000E+00  1.30000000E+00  1.70000000E+00  1.70000000E+00
  1.70000000E+00  1.30000000E+00  1.30000000E+00  1.70000000E+00  1.30000000E+00
  1.70000000E+00  1.30000000E+00  1.70000000E+00  1.30000000E+00  1.30000000E+00
  1.70000000E+00  1.30000000E+00  1.30000000E+00  1.70000000E+00  1.30000000E+00
  1.30000000E+00  1.30000000E+00  1.30000000E+00  1.30000000E+00  1.70000000E+00
  1.70000000E+00  1.30000000E+00  1.30000000E+00  1.30000000E+00  1.70000000E+00
  1.30000000E+00  1.30000000E+00  1.30000000E+00  1.30000000E+00  1.80000000E+00
  1.70000000E+00  1.70000000E+00  1.70000000E+00  1.70000000E+00  1.70000000E+00
  1.80000000E+00  1.70000000E+00  1.70000000E+00  1.30000000E+00  1.70000000E+00
  1.70000000E+00  1.70000000E+00  1.70000000E+00  1.70000000E+00  1.30000000E+00
  1.70000000E+00  1.70000000E+00  1.30000000E+00  1.30000000E+00  1.70000000E+00
  1.30000000E+00  1.30000000E+00  1.70000000E+00  1.30000000E+00  1.30000000E+00
  1.70000000E+00  1.30000000E+00  1.30000000E+00  1.70000000E+00  1.70000000E+00
  1.30000000E+00  1.30000000E+00  1.70000000E+00  1.70000000E+00  1.70000000E+00
  1.30000000E+00  1.30000000E+00  1.70000000E+00  1.30000000E+00  1.70000000E+00
  1.30000000E+00  1.70000000E+00  1.30000000E+00  1.30000000E+00  1.70000000E+00
  1.30000000E+00  1.30000000E+00  1.70000000E+00  1.30000000E+00  1.30000000E+00
  1.30000000E+00  1.30000000E+00  1.30000000E+00  1.70000000E+00  1.70000000E+00
  1.30000000E+00  1.30000000E+00  1.30000000E+00  1.70000000E+00  1.30000000E+00
  1.30000000E+00  1.30000000E+00  1.30000000E+00  1.80000000E+00  1.70000000E+00
  1.70000000E+00  1.70000000E+00  1.70000000E+00  1.70000000E+00  1.80000000E+00
  1.70000000E+00  1.70000000E+00  1.30000000E+00  1.70000000E+00  1.70000000E+00
  1.70000000E+00  1.70000000E+00  1.70000000E+00  1.30000000E+00  1.70000000E+00
  1.70000000E+00  1.30000000E+00  1.30000000E+00  1.70000000E+00  1.30000000E+00
  1.30000000E+00  1.70000000E+00  1.30000000E+00  1.30000000E+00  1.70000000E+00
  1.30000000E+00  1.30000000E+00  1.70000000E+00  1.70000000E+00  1.30000000E+00
  1.30000000E+00  1.70000000E+00  1.70000000E+00  1.70000000E+00  1.30000000E+00
  1.30000000E+00  1.70000000E+00  1.30000000E+00  1.70000000E+00  1.30000000E+00
  1.70000000E+00  1.30000000E+00  1.30000000E+00  1.70000000E+00  1.30000000E+00
  1.30000000E+00  1.70000000E+00  1.30000000E+00  1.30000000E+00  1.30000000E+00
  1.30000000E+00  1.30000000E+00  1.70000000E+00  1.70000000E+00  1.30000000E+00
  1.30000000E+00  1.30000000E+00  1.70000000E+00  1.30000000E+00  1.30000000E+00
  1.30000000E+00  1.30000000E+00  1.80000000E+00  1.70000000E+00  1.70000000E+00
  1.70000000E+00  1.70000000E+00  1.70000000E+00  1.80000000E+00  1.70000000E+00
  1.70000000E+00  1.30000000E+00  1.70000000E+00  1.70000000E+00  1.70000000E+00
  1.70000000E+00  1.70000000E+00  1.30000000E+00  1.70000000E+00  1.70000000E+00
  1.30000000E+00  1.30000000E+00  1.70000000E+00  1.30000000E+00  1.30000000E+00
  1.70000000E+00  1.30000000E+00  1.30000000E+00  1.70000000E+00  1.30000000E+00
  1.30000000E+00  1.70000000E+00  1.70000000E+00  1.30000000E+00  1.30000000E+00
  1.70000000E+00  1.70000000E+00  1.70000000E+00  1.30000000E+00  1.30000000E+00
  1.70000000E+00  1.30000000E+00  1.70000000E+00  1.30000000E+00  1.70000000E+00
  1.30000000E+00  1.30000000E+00  1.70000000E+00  1.30000000E+00  1.30000000E+00
  1.70000000E+00  1.30000000E+00  1.30000000E+00  1.30000000E+00  1.30000000E+00
  1.30000000E+00  1.70000000E+00  1.70000000E+00  1.30000000E+00  1.30000000E+00
  1.30000000E+00  1.70000000E+00  1.30000000E+00  1.30000000E+00  1.30000000E+00
  1.30000000E+00  1.80000000E+00  1.70000000E+00  1.70000000E+00  1.70000000E+00
  1.70000000E+00  1.70000000E+00  1.80000000E+00  1.70000000E+00  1.70000000E+00
  1.30000000E+00  1.70000000E+00  1.70000000E+00  1.70000000E+00  1.70000000E+00
  1.70000000E+00  1.30000000E+00  1.70000000E+00  1.70000000E+00  1.30000000E+00
  1.30000000E+00  1.70000000E+00  1.30000000E+00  1.30000000E+00  1.70000000E+00
  1.30000000E+00  1.30000000E+00  1.70000000E+00  1.30000000E+00  1.30000000E+00
  1.70000000E+00  1.70000000E+00  1.30000000E+00  1.30000000E+00  1.70000000E+00
  1.70000000E+00  1.70000000E+00  1.30000000E+00  1.30000000E+00  1.70000000E+00
  1.30000000E+00  1.70000000E+00  1.30000000E+00  1.70000000E+00  1.30000000E+00
  1.30000000E+00  1.70000000E+00  1.30000000E+00  1.30000000E+00  1.70000000E+00
  1.30000000E+00  1.30000000E+00  1.30000000E+00  1.30000000E+00  1.30000000E+00
  1.70000000E+00  1.70000000E+00  1.30000000E+00  1.30000000E+00  1.30000000E+00
  1.70000000E+00  1.30000000E+00  1.30000000E+00  1.30000000E+00  1.30000000E+00
  1.80000000E+00  1.70000000E+00  1.70000000E+00  1.70000000E+00  1.70000000E+00
  1.70000000E+00  1.80000000E+00  1.70000000E+00  1.70000000E+00  1.30000000E+00
  1.70000000E+00  1.70000000E+00  1.70000000E+00  1.70000000E+00  1.70000000E+00
  1.30000000E+00  1.70000000E+00  1.70000000E+00  1.30000000E+00  1.30000000E+00
  1.70000000E+00  1.30000000E+00  1.30000000E+00  1.70000000E+00  1.30000000E+00
  1.30000000E+00  1.70000000E+00  1.30000000E+00  1.30000000E+00  1.70000000E+00
  1.70000000E+00  1.30000000E+00  1.30000000E+00  1.70000000E+00  1.70000000E+00
  1.70000000E+00  1.30000000E+00  1.30000000E+00  1.70000000E+00  1.30000000E+00
  1.70000000E+00  1.30000000E+00  1.70000000E+00  1.30000000E+00  1.30000000E+00
  1.70000000E+00  1.30000000E+00  1.30000000E+00  1.70000000E+00  1.30000000E+00
  1.30000000E+00  1.30000000E+00  1.30000000E+00  1.30000000E+00  1.70000000E+00
  1.70000000E+00  1.30000000E+00  1.30000000E+00  1.30000000E+00  1.70000000E+00
  1.30000000E+00  1.30000000E+00  1.30000000E+00  1.30000000E+00  1.80000000E+00
  1.70000000E+00  1.70000000E+00  1.70000000E+00  1.70000000E+00  1.70000000E+00
  1.80000000E+00  1.70000000E+00  1.70000000E+00  1.30000000E+00  1.70000000E+00
  1.70000000E+00  1.70000000E+00  1.70000000E+00  1.70000000E+00  1.30000000E+00
  1.70000000E+00  1.70000000E+00  1.30000000E+00  1.30000000E+00  1.70000000E+00
  1.30000000E+00  1.30000000E+00  1.70000000E+00  1.30000000E+00  1.30000000E+00
  1.70000000E+00  1.30000000E+00  1.30000000E+00  1.70000000E+00  1.70000000E+00
  1.30000000E+00  1.30000000E+00  1.70000000E+00  1.70000000E+00  1.70000000E+00
  1.30000000E+00  1.30000000E+00  1.70000000E+00  1.30000000E+00  1.70000000E+00
  1.30000000E+00  1.70000000E+00  1.30000000E+00  1.30000000E+00  1.70000000E+00
  1.30000000E+00  1.30000000E+00  1.70000000E+00  1.30000000E+00  1.30000000E+00
  1.30000000E+00  1.30000000E+00  1.30000000E+00  1.70000000E+00  1.70000000E+00
  1.30000000E+00  1.30000000E+00  1.30000000E+00  1.70000000E+00  1.30000000E+00
  1.30000000E+00  1.30000000E+00  1.30000000E+00  1.80000000E+00  1.70000000E+00
  1.70000000E+00  1.70000000E+00  1.70000000E+00  1.70000000E+00  1.80000000E+00
  1.70000000E+00  1.70000000E+00  1.30000000E+00  1.70000000E+00  1.70000000E+00
  1.70000000E+00  1.70000000E+00  1.70000000E+00  1.30000000E+00  1.70000000E+00
  1.70000000E+00  1.30000000E+00  1.30000000E+00  1.70000000E+00  1.30000000E+00
  1.30000000E+00  1.70000000E+00  1.30000000E+00  1.30000000E+00  1.70000000E+00
  1.30000000E+00  1.30000000E+00  1.70000000E+00  1.70000000E+00  1.30000000E+00
  1.30000000E+00  1.70000000E+00  1.70000000E+00  1.70000000E+00  1.30000000E+00
  1.30000000E+00  1.70000000E+00  1.30000000E+00  1.70000000E+00  1.30000000E+00
  1.70000000E+00  1.30000000E+00  1.30000000E+00  1.70000000E+00  1.30000000E+00
  1.30000000E+00  1.70000000E+00  1.30000000E+00  1.30000000E+00  1.30000000E+00
  1.30000000E+00  1.30000000E+00  1.70000000E+00  1.70000000E+00  1.30000000E+00
  1.30000000E+00  1.30000000E+00  1.70000000E+00  1.30000000E+00  1.30000000E+00
  1.30000000E+00  1.30000000E+00  1.80000000E+00  1.70000000E+00  1.70000000E+00
  1.70000000E+00  1.70000000E+00  1.70000000E+00  1.80000000E+00  1.70000000E+00
  1.70000000E+00  1.30000000E+00  1.70000000E+00  1.70000000E+00  1.70000000E+00
  1.70000000E+00  1.70000000E+00  1.30000000E+00  1.70000000E+00  1.70000000E+00
  1.30000000E+00  1.30000000E+00  1.70000000E+00  1.30000000E+00  1.30000000E+00
  1.70000000E+00  1.30000000E+00  1.30000000E+00  1.70000000E+00  1.30000000E+00
  1.30000000E+00  1.70000000E+00  1.70000000E+00  1.30000000E+00  1.30000000E+00
  1.70000000E+00  1.70000000E+00  1.70000000E+00  1.30000000E+00  1.30000000E+00
  1.70000000E+00  1.30000000E+00  1.70000000E+00  1.30000000E+00  1.70000000E+00
  1.30000000E+00  1.30000000E+00  1.70000000E+00  1.30000000E+00  1.30000000E+00
  1.70000000E+00  1.30000000E+00  1.30000000E+00  1.30000000E+00  1.30000000E+00
  1.30000000E+00  1.70000000E+00  1.70000000E+00  1.30000000E+00  1.30000000E+00
  1.30000000E+00  1.70000000E+00  1.30000000E+00  1.30000000E+00  1.30000000E+00
  1.30000000E+00  1.80000000E+00  1.70000000E+00  1.70000000E+00  1.70000000E+00
  1.70000000E+00  1.70000000E+00  1.80000000E+00  1.70000000E+00  1.70000000E+00
  1.30000000E+00  1.70000000E+00  1.70000000E+00  1.70000000E+00  1.70000000E+00
  1.70000000E+00  1.30000000E+00  1.70000000E+00  1.70000000E+00  1.30000000E+00
  1.30000000E+00  1.70000000E+00  1.30000000E+00  1.30000000E+00  1.70000000E+00
  1.30000000E+00  1.30000000E+00  1.70000000E+00  1.30000000E+00  1.30000000E+00
  1.70000000E+00  1.70000000E+00  1.30000000E+00  1.30000000E+00  1.70000000E+00
  1.70000000E+00  1.70000000E+00  1.30000000E+00  1.30000000E+00  1.70000000E+00
  1.30000000E+00  1.70000000E+00  1.30000000E+00  1.70000000E+00  1.30000000E+00
  1.30000000E+00  1.70000000E+00  1.30000000E+00  1.30000000E+00  1.70000000E+00
  1.30000000E+00  1.30000000E+00  1.30000000E+00  1.30000000E+00  1.30000000E+00
  1.70000000E+00  1.70000000E+00  1.30000000E+00  1.30000000E+00  1.30000000E+00
  1.70000000E+00  1.30000000E+00  1.30000000E+00  1.30000000E+00  1.30000000E+00
  1.80000000E+00  1.70000000E+00  1.70000000E+00  1.70000000E+00  1.70000000E+00
  1.70000000E+00  1.80000000E+00  1.70000000E+00  1.70000000E+00  1.30000000E+00
  1.70000000E+00  1.70000000E+00  1.70000000E+00  1.70000000E+00  1.70000000E+00
  1.30000000E+00  1.70000000E+00  1.70000000E+00  1.30000000E+00  1.30000000E+00
  1.70000000E+00  1.30000000E+00  1.30000000E+00  1.70000000E+00  1.30000000E+00
  1.30000000E+00  1.70000000E+00  1.30000000E+00  1.30000000E+00  1.70000000E+00
  1.70000000E+00  1.30000000E+00  1.30000000E+00  1.70000000E+00  1.70000000E+00
  1.70000000E+00  1.30000000E+00  1.30000000E+00  1.70000000E+00  1.30000000E+00
  1.70000000E+00  1.30000000E+00  1.70000000E+00  1.30000000E+00  1.30000000E+00
  1.70000000E+00  1.30000000E+00  1.30000000E+00  1.70000000E+00  1.30000000E+00
  1.30000000E+00  1.30000000E+00  1.30000000E+00  1.30000000E+00  1.70000000E+00
  1.70000000E+00  1.30000000E+00  1.30000000E+00  1.30000000E+00  1.70000000E+00
  1.30000000E+00  1.30000000E+00  1.30000000E+00  1.30000000E+00  1.80000000E+00
  1.70000000E+00  1.70000000E+00  1.70000000E+00  1.70000000E+00  1.70000000E+00
  1.80000000E+00  1.70000000E+00  1.70000000E+00  1.30000000E+00  1.70000000E+00
  1.70000000E+00  1.70000000E+00  1.70000000E+00  1.70000000E+00  1.30000000E+00
  1.70000000E+00  1.70000000E+00  1.30000000E+00  1.30000000E+00  1.70000000E+00
  1.30000000E+00  1.30000000E+00  1.70000000E+00  1.30000000E+00  1.30000000E+00
  1.70000000E+00  1.30000000E+00  1.30000000E+00  1.70000000E+00  1.70000000E+00
  1.30000000E+00  1.30000000E+00  1.70000000E+00  1.70000000E+00  1.70000000E+00
  1.30000000E+00  1.30000000E+00  1.70000000E+00  1.30000000E+00  1.70000000E+00
  1.30000000E+00  1.70000000E+00  1.30000000E+00  1.30000000E+00  1.70000000E+00
  1.30000000E+00  1.30000000E+00  1.70000000E+00  1.30000000E+00  1.30000000E+00
  1.30000000E+00  1.30000000E+00  1.30000000E+00  1.70000000E+00  1.70000000E+00
  1.30000000E+00  1.30000000E+00  1.30000000E+00  1.70000000E+00  1.30000000E+00
  1.30000000E+00  1.30000000E+00  1.30000000E+00  1.80000000E+00  1.70000000E+00
  1.70000000E+00  1.70000000E+00  1.70000000E+00  1.70000000E+00  1.80000000E+00
  1.70000000E+00  1.70000000E+00  1.30000000E+00  1.70000000E+00  1.70000000E+00
  1.70000000E+00  1.70000000E+00  1.70000000E+00  1.30000000E+00  1.70000000E+00
  1.70000000E+00  1.30000000E+00  1.30000000E+00  1.70000000E+00  1.30000000E+00
  1.30000000E+00  1.70000000E+00  1.30000000E+00  1.30000000E+00  1.70000000E+00
  1.30000000E+00  1.30000000E+00  1.70000000E+00  1.70000000E+00  1.30000000E+00
  1.30000000E+00  1.70000000E+00  1.70000000E+00  1.70000000E+00  1.30000000E+00
  1.30000000E+00  1.70000000E+00  1.30000000E+00  1.70000000E+00  1.30000000E+00
  1.70000000E+00  1.30000000E+00  1.30000000E+00  1.70000000E+00  1.30000000E+00
  1.30000000E+00  1.70000000E+00  1.30000000E+00  1.30000000E+00  1.30000000E+00
  1.30000000E+00  1.30000000E+00  1.70000000E+00  1.70000000E+00  1.30000000E+00
  1.30000000E+00  1.30000000E+00  1.70000000E+00  1.30000000E+00  1.30000000E+00
  1.30000000E+00  1.30000000E+00  1.80000000E+00  1.70000000E+00  1.70000000E+00
  1.70000000E+00  1.70000000E+00  1.70000000E+00  1.80000000E+00  1.70000000E+00
  1.70000000E+00  1.30000000E+00  1.70000000E+00  1.70000000E+00  1.70000000E+00
  1.70000000E+00  1.70000000E+00  1.30000000E+00  1.70000000E+00  1.70000000E+00
  1.30000000E+00  1.30000000E+00  1.70000000E+00  1.30000000E+00  1.30000000E+00
  1.70000000E+00  1.30000000E+00  1.30000000E+00  1.70000000E+00  1.30000000E+00
  1.30000000E+00  1.70000000E+00  1.70000000E+00  1.30000000E+00  1.30000000E+00
  1.70000000E+00  1.70000000E+00  1.70000000E+00  1.30000000E+00  1.30000000E+00
  1.70000000E+00  1.30000000E+00  1.70000000E+00  1.30000000E+00  1.70000000E+00
  1.30000000E+00  1.30000000E+00  1.70000000E+00  1.30000000E+00  1.30000000E+00
  1.70000000E+00  1.30000000E+00  1.30000000E+00  1.30000000E+00  1.30000000E+00
  1.30000000E+00  1.70000000E+00  1.70000000E+00  1.30000000E+00  1.30000000E+00
  1.30000000E+00  1.70000000E+00  1.30000000E+00  1.30000000E+00  1.30000000E+00
  1.30000000E+00  1.80000000E+00  1.70000000E+00  1.70000000E+00  1.70000000E+00
  1.70000000E+00  1.70000000E+00  1.80000000E+00  1.70000000E+00  1.70000000E+00
  1.30000000E+00  1.70000000E+00  1.70000000E+00  1.70000000E+00  1.70000000E+00
  1.70000000E+00  1.30000000E+00  1.70000000E+00  1.70000000E+00  1.30000000E+00
  1.30000000E+00  1.70000000E+00  1.30000000E+00  1.30000000E+00  1.70000000E+00
  1.30000000E+00  1.30000000E+00  1.70000000E+00  1.30000000E+00  1.30000000E+00
  1.70000000E+00  1.70000000E+00  1.30000000E+00  1.30000000E+00  1.70000000E+00
  1.70000000E+00  1.70000000E+00  1.30000000E+00  1.30000000E+00  1.70000000E+00
  1.30000000E+00  1.70000000E+00  1.30000000E+00  1.70000000E+00  1.30000000E+00
  1.30000000E+00  1.70000000E+00  1.30000000E+00  1.30000000E+00  1.70000000E+00
  1.30000000E+00  1.30000000E+00  1.30000000E+00  1.30000000E+00  1.30000000E+00
  1.70000000E+00  1.70000000E+00  1.30000000E+00  1.30000000E+00  1.30000000E+00
  1.70000000E+00  1.30000000E+00  1.30000000E+00  1.30000000E+00  1.30000000E+00
  1.80000000E+00  1.70000000E+00  1.70000000E+00  1.70000000E+00  1.70000000E+00
  1.70000000E+00  1.80000000E+00  1.70000000E+00  1.70000000E+00  1.30000000E+00
  1.70000000E+00  1.70000000E+00  1.70000000E+00  1.70000000E+00  1.70000000E+00
  1.30000000E+00  1.70000000E+00  1.70000000E+00  1.30000000E+00  1.30000000E+00
  1.70000000E+00  1.30000000E+00  1.30000000E+00  1.70000000E+00  1.30000000E+00
  1.30000000E+00  1.70000000E+00  1.30000000E+00  1.30000000E+00  1.70000000E+00
  1.70000000E+00  1.30000000E+00  1.30000000E+00  1.70000000E+00  1.70000000E+00
  1.70000000E+00  1.30000000E+00  1.30000000E+00  1.70000000E+00  1.30000000E+00
  1.70000000E+00  1.30000000E+00  1.70000000E+00  1.30000000E+00  1.30000000E+00
  1.70000000E+00  1.30000000E+00  1.30000000E+00  1.70000000E+00  1.30000000E+00
  1.30000000E+00  1.30000000E+00  1.30000000E+00  1.30000000E+00  1.70000000E+00
  1.70000000E+00  1.30000000E+00  1.30000000E+00  1.30000000E+00  1.70000000E+00
  1.30000000E+00  1.30000000E+00  1.30000000E+00  1.30000000E+00  1.80000000E+00
  1.70000000E+00  1.70000000E+00  1.70000000E+00  1.70000000E+00  1.70000000E+00
  1.80000000E+00  1.70000000E+00  1.70000000E+00  1.30000000E+00  1.70000000E+00
  1.70000000E+00  1.70000000E+00  1.70000000E+00  1.70000000E+00  1.30000000E+00
  1.70000000E+00  1.70000000E+00  1.30000000E+00  1.30000000E+00  1.70000000E+00
  1.30000000E+00  1.30000000E+00  1.70000000E+00  1.30000000E+00  1.30000000E+00
  1.70000000E+00  1.30000000E+00  1.30000000E+00  1.70000000E+00  1.70000000E+00
  1.30000000E+00  1.30000000E+00  1.70000000E+00  1.70000000E+00  1.70000000E+00
  1.30000000E+00  1.30000000E+00  1.70000000E+00  1.30000000E+00  1.70000000E+00
  1.30000000E+00  1.70000000E+00  1.30000000E+00  1.30000000E+00  1.70000000E+00
  1.30000000E+00  1.30000000E+00  1.70000000E+00  1.30000000E+00  1.30000000E+00
  1.30000000E+00  1.30000000E+00  1.30000000E+00  1.70000000E+00  1.70000000E+00
  1.30000000E+00  1.30000000E+00  1.30000000E+00  1.70000000E+00  1.30000000E+00
  1.30000000E+00  1.30000000E+00  1.30000000E+00  1.80000000E+00  1.70000000E+00
  1.70000000E+00  1.70000000E+00  1.70000000E+00  1.70000000E+00  1.80000000E+00
  1.70000000E+00  1.70000000E+00  1.30000000E+00  1.70000000E+00  1.70000000E+00
  1.70000000E+00  1.70000000E+00  1.70000000E+00  1.30000000E+00  1.70000000E+00
  1.70000000E+00  1.30000000E+00  1.30000000E+00  1.70000000E+00  1.30000000E+00
  1.30000000E+00  1.70000000E+00  1.30000000E+00  1.30000000E+00  1.70000000E+00
  1.30000000E+00  1.30000000E+00  1.70000000E+00  1.70000000E+00  1.30000000E+00
  1.30000000E+00  1.70000000E+00  1.70000000E+00  1.70000000E+00  1.30000000E+00
  1.30000000E+00  1.70000000E+00  1.30000000E+00  1.70000000E+00  1.30000000E+00
  1.70000000E+00  1.30000000E+00  1.30000000E+00  1.70000000E+00  1.30000000E+00
  1.30000000E+00  1.70000000E+00  1.30000000E+00  1.30000000E+00  1.30000000E+00
  1.30000000E+00  1.30000000E+00  1.70000000E+00  1.70000000E+00  1.30000000E+00
  1.30000000E+00  1.30000000E+00  1.70000000E+00  1.30000000E+00  1.30000000E+00
  1.30000000E+00  1.30000000E+00  1.80000000E+00  1.70000000E+00  1.70000000E+00
  1.70000000E+00  1.70000000E+00  1.70000000E+00  1.80000000E+00  1.70000000E+00
  1.70000000E+00  1.30000000E+00  1.70000000E+00  1.70000000E+00  1.70000000E+00
  1.70000000E+00  1.70000000E+00  1.30000000E+00  1.70000000E+00  1.70000000E+00
  1.30000000E+00  1.30000000E+00  1.70000000E+00  1.30000000E+00  1.30000000E+00
  1.70000000E+00  1.30000000E+00  1.30000000E+00  1.70000000E+00  1.30000000E+00
  1.30000000E+00  1.70000000E+00  1.70000000E+00  1.30000000E+00  1.30000000E+00
  1.70000000E+00  1.70000000E+00  1.70000000E+00  1.30000000E+00  1.30000000E+00
  1.70000000E+00  1.30000000E+00  1.70000000E+00  1.30000000E+00  1.70000000E+00
  1.30000000E+00  1.30000000E+00  1.70000000E+00  1.30000000E+00  1.30000000E+00
  1.70000000E+00  1.30000000E+00  1.30000000E+00  1.30000000E+00  1.30000000E+00
  1.30000000E+00  1.70000000E+00  1.70000000E+00  1.30000000E+00  1.30000000E+00
  1.30000000E+00  1.70000000E+00  1.30000000E+00  1.30000000E+00  1.30000000E+00
  1.30000000E+00  1.80000000E+00  1.70000000E+00  1.70000000E+00  1.70000000E+00
  1.70000000E+00  1.70000000E+00  1.80000000E+00  1.70000000E+00  1.70000000E+00
  1.30000000E+00  1.70000000E+00  1.70000000E+00  1.70000000E+00  1.70000000E+00
  1.70000000E+00  1.30000000E+00  1.70000000E+00  1.70000000E+00  1.30000000E+00
  1.30000000E+00  1.70000000E+00  1.30000000E+00  1.30000000E+00  1.70000000E+00
  1.30000000E+00  1.30000000E+00  1.70000000E+00  1.30000000E+00  1.30000000E+00
  1.70000000E+00  1.70000000E+00  1.30000000E+00  1.30000000E+00  1.70000000E+00
  1.70000000E+00  1.70000000E+00  1.30000000E+00  1.30000000E+00  1.70000000E+00
  1.30000000E+00  1.70000000E+00  1.30000000E+00  1.70000000E+00  1.30000000E+00
  1.30000000E+00  1.70000000E+00  1.30000000E+00  1.30000000E+00  1.70000000E+00
  1.30000000E+00  1.30000000E+00  1.30000000E+00  1.30000000E+00  1.30000000E+00
  1.70000000E+00  1.70000000E+00  1.30000000E+00  1.30000000E+00  1.30000000E+00
  1.70000000E+00  1.30000000E+00  1.30000000E+00  1.30000000E+00  1.30000000E+00
  1.80000000E+00  1.70000000E+00  1.70000000E+00  1.70000000E+00  1.70000000E+00
  1.70000000E+00  1.80000000E+00  1.70000000E+00  1.70000000E+00  1.30000000E+00
  1.70000000E+00  1.70000000E+00  1.70000000E+00  1.70000000E+00  1.70000000E+00
  1.30000000E+00  1.70000000E+00  1.70000000E+00  1.30000000E+00  1.30000000E+00
  1.70000000E+00  1.30000000E+00  1.30000000E+00  1.70000000E+00  1.30000000E+00
  1.30000000E+00  1.70000000E+00  1.30000000E+00  1.30000000E+00  1.70000000E+00
  1.70000000E+00  1.30000000E+00  1.30000000E+00  1.70000000E+00  1.70000000E+00
  1.70000000E+00  1.30000000E+00  1.30000000E+00  1.70000000E+00  1.30000000E+00
  1.70000000E+00  1.30000000E+00  1.70000000E+00  1.30000000E+00  1.30000000E+00
  1.70000000E+00  1.30000000E+00  1.30000000E+00  1.70000000E+00  1.30000000E+00
  1.30000000E+00  1.30000000E+00  1.30000000E+00  1.30000000E+00  1.70000000E+00
  1.70000000E+00  1.30000000E+00  1.30000000E+00  1.30000000E+00  1.70000000E+00
  1.30000000E+00  1.30000000E+00  1.30000000E+00  1.30000000E+00  1.80000000E+00
  1.70000000E+00  1.70000000E+00  1.70000000E+00  1.70000000E+00  1.70000000E+00
  1.80000000E+00  1.70000000E+00  1.70000000E+00  1.30000000E+00  1.70000000E+00
  1.70000000E+00  1.70000000E+00  1.70000000E+00  1.70000000E+00  1.30000000E+00
  1.70000000E+00  1.70000000E+00  1.30000000E+00  1.30000000E+00  1.70000000E+00
  1.30000000E+00  1.30000000E+00  1.70000000E+00  1.30000000E+00  1.30000000E+00
  1.70000000E+00  1.30000000E+00  1.30000000E+00  1.70000000E+00  1.70000000E+00
  1.30000000E+00  1.30000000E+00  1.70000000E+00  1.70000000E+00  1.70000000E+00
  1.30000000E+00  1.30000000E+00  1.70000000E+00  1.30000000E+00  1.70000000E+00
  1.30000000E+00  1.70000000E+00  1.30000000E+00  1.30000000E+00  1.70000000E+00
  1.30000000E+00  1.30000000E+00  1.70000000E+00  1.30000000E+00  1.30000000E+00
  1.30000000E+00  1.30000000E+00  1.30000000E+00  1.70000000E+00  1.70000000E+00
  1.30000000E+00  1.30000000E+00  1.30000000E+00  1.70000000E+00  1.30000000E+00
  1.30000000E+00  1.30000000E+00  1.30000000E+00  1.80000000E+00  1.70000000E+00
  1.70000000E+00  1.70000000E+00  1.70000000E+00  1.70000000E+00  1.80000000E+00
  1.70000000E+00  1.70000000E+00  1.30000000E+00  1.70000000E+00  1.70000000E+00
  1.70000000E+00  1.70000000E+00  1.70000000E+00  1.30000000E+00  1.70000000E+00
  1.70000000E+00  1.30000000E+00  1.30000000E+00  1.70000000E+00  1.30000000E+00
  1.30000000E+00  1.70000000E+00  1.30000000E+00  1.30000000E+00  1.70000000E+00
  1.30000000E+00  1.30000000E+00  1.70000000E+00  1.70000000E+00  1.30000000E+00
  1.30000000E+00  1.70000000E+00  1.70000000E+00  1.70000000E+00  1.30000000E+00
  1.30000000E+00  1.70000000E+00  1.30000000E+00  1.70000000E+00  1.30000000E+00
  1.70000000E+00  1.30000000E+00  1.30000000E+00  1.70000000E+00  1.30000000E+00
  1.30000000E+00  1.70000000E+00  1.30000000E+00  1.30000000E+00  1.30000000E+00
  1.30000000E+00  1.30000000E+00  1.70000000E+00  1.70000000E+00  1.30000000E+00
  1.30000000E+00  1.30000000E+00  1.70000000E+00  1.30000000E+00  1.30000000E+00
  1.30000000E+00  1.30000000E+00  1.80000000E+00  1.70000000E+00  1.70000000E+00
  1.70000000E+00  1.70000000E+00  1.70000000E+00  1.80000000E+00  1.70000000E+00
  1.70000000E+00  1.30000000E+00  1.70000000E+00  1.70000000E+00  1.70000000E+00
  1.70000000E+00  1.70000000E+00  1.30000000E+00  1.70000000E+00  1.70000000E+00
  1.30000000E+00  1.30000000E+00  1.70000000E+00  1.30000000E+00  1.30000000E+00
  1.70000000E+00  1.30000000E+00  1.30000000E+00  1.70000000E+00  1.30000000E+00
  1.30000000E+00  1.70000000E+00  1.70000000E+00  1.30000000E+00  1.30000000E+00
  1.70000000E+00  1.70000000E+00  1.70000000E+00  1.30000000E+00  1.30000000E+00
  1.70000000E+00  1.30000000E+00  1.70000000E+00  1.30000000E+00  1.70000000E+00
  1.30000000E+00  1.30000000E+00  1.70000000E+00  1.30000000E+00  1.30000000E+00
  1.70000000E+00  1.30000000E+00  1.30000000E+00  1.30000000E+00  1.30000000E+00
  1.30000000E+00  1.70000000E+00  1.70000000E+00  1.30000000E+00  1.30000000E+00
  1.30000000E+00  1.70000000E+00  1.30000000E+00  1.30000000E+00  1.30000000E+00
  1.30000000E+00  1.80000000E+00  1.70000000E+00  1.70000000E+00  1.70000000E+00
  1.70000000E+00  1.70000000E+00  1.80000000E+00  1.70000000E+00  1.70000000E+00
  1.30000000E+00  1.70000000E+00  1.70000000E+00  1.70000000E+00  1.70000000E+00
  1.70000000E+00  1.30000000E+00  1.70000000E+00  1.70000000E+00  1.30000000E+00
  1.30000000E+00  1.70000000E+00  1.30000000E+00  1.30000000E+00  1.70000000E+00
  1.30000000E+00  1.30000000E+00  1.70000000E+00  1.30000000E+00  1.30000000E+00
  1.70000000E+00  1.70000000E+00  1.30000000E+00  1.30000000E+00  1.70000000E+00
  1.70000000E+00  1.70000000E+00  1.30000000E+00  1.30000000E+00  1.70000000E+00
  1.30000000E+00  1.70000000E+00  1.30000000E+00  1.70000000E+00  1.30000000E+00
  1.30000000E+00  1.70000000E+00  1.30000000E+00  1.30000000E+00  1.70000000E+00
  1.30000000E+00  1.30000000E+00  1.30000000E+00  1.30000000E+00  1.30000000E+00
  1.70000000E+00  1.70000000E+00  1.30000000E+00  1.30000000E+00  1.30000000E+00
  1.70000000E+00  1.30000000E+00  1.30000000E+00  1.30000000E+00  1.30000000E+00
  1.80000000E+00  1.70000000E+00  1.70000000E+00  1.70000000E+00  1.70000000E+00
  1.70000000E+00  1.80000000E+00  1.70000000E+00  1.70000000E+00  1.30000000E+00
  1.70000000E+00  1.70000000E+00  1.70000000E+00  1.70000000E+00  1.70000000E+00
  1.30000000E+00  1.70000000E+00  1.70000000E+00  1.30000000E+00  1.30000000E+00
  1.70000000E+00  1.30000000E+00  1.30000000E+00  1.70000000E+00  1.30000000E+00
  1.30000000E+00  1.70000000E+00  1.30000000E+00  1.30000000E+00  1.70000000E+00
  1.70000000E+00  1.30000000E+00  1.30000000E+00  1.70000000E+00  1.70000000E+00
  1.70000000E+00  1.30000000E+00  1.30000000E+00  1.70000000E+00  1.30000000E+00
  1.70000000E+00  1.30000000E+00  1.70000000E+00  1.30000000E+00  1.30000000E+00
  1.70000000E+00  1.30000000E+00  1.30000000E+00  1.70000000E+00  1.30000000E+00
  1.30000000E+00  1.30000000E+00  1.30000000E+00  1.30000000E+00  1.70000000E+00
  1.70000000E+00  1.30000000E+00  1.30000000E+00  1.30000000E+00  1.70000000E+00
  1.30000000E+00  1.30000000E+00  1.30000000E+00  1.30000000E+00  1.80000000E+00
  1.70000000E+00  1.70000000E+00  1.70000000E+00  1.70000000E+00  1.70000000E+00
  1.80000000E+00  1.70000000E+00  1.70000000E+00  1.30000000E+00  1.70000000E+00
  1.70000000E+00  1.70000000E+00  1.70000000E+00  1.70000000E+00  1.30000000E+00
  1.70000000E+00  1.70000000E+00  1.30000000E+00  1.30000000E+00  1.70000000E+00
  1.30000000E+00  1.30000000E+00  1.70000000E+00  1.30000000E+00  1.30000000E+00
  1.70000000E+00  1.30000000E+00  1.30000000E+00  1.70000000E+00  1.70000000E+00
  1.30000000E+00  1.30000000E+00  1.70000000E+00  1.70000000E+00  1.70000000E+00
  1.30000000E+00  1.30000000E+00  1.70000000E+00  1.30000000E+00  1.70000000E+00
  1.30000000E+00  1.70000000E+00  1.30000000E+00  1.30000000E+00  1.70000000E+00
  1.30000000E+00  1.30000000E+00  1.70000000E+00  1.30000000E+00  1.30000000E+00
  1.30000000E+00  1.30000000E+00  1.30000000E+00  1.70000000E+00  1.70000000E+00
  1.30000000E+00  1.30000000E+00  1.30000000E+00  1.70000000E+00  1.30000000E+00
  1.30000000E+00  1.30000000E+00  1.30000000E+00  1.80000000E+00  1.70000000E+00
  1.70000000E+00  1.70000000E+00  1.70000000E+00  1.70000000E+00  1.80000000E+00
  1.70000000E+00  1.70000000E+00  1.30000000E+00  1.70000000E+00  1.70000000E+00
  1.70000000E+00  1.70000000E+00  1.70000000E+00  1.30000000E+00  1.70000000E+00
  1.70000000E+00  1.30000000E+00  1.30000000E+00  1.70000000E+00  1.30000000E+00
  1.30000000E+00  1.70000000E+00  1.30000000E+00  1.30000000E+00  1.70000000E+00
  1.30000000E+00  1.30000000E+00  1.70000000E+00  1.70000000E+00  1.30000000E+00
  1.30000000E+00  1.70000000E+00  1.70000000E+00  1.70000000E+00  1.30000000E+00
  1.30000000E+00  1.70000000E+00  1.30000000E+00  1.70000000E+00  1.30000000E+00
  1.70000000E+00  1.30000000E+00  1.30000000E+00  1.70000000E+00  1.30000000E+00
  1.30000000E+00  1.70000000E+00  1.30000000E+00  1.30000000E+00  1.30000000E+00
  1.30000000E+00  1.30000000E+00  1.70000000E+00  1.70000000E+00  1.30000000E+00
  1.30000000E+00  1.30000000E+00  1.70000000E+00  1.30000000E+00  1.30000000E+00
  1.30000000E+00  1.30000000E+00  1.80000000E+00  1.70000000E+00  1.70000000E+00
  1.70000000E+00  1.70000000E+00  1.70000000E+00  1.80000000E+00  1.70000000E+00
  1.70000000E+00  1.30000000E+00  1.70000000E+00  1.70000000E+00  1.70000000E+00
  1.70000000E+00  1.70000000E+00  1.30000000E+00  1.70000000E+00  1.70000000E+00
  1.30000000E+00  1.30000000E+00  1.70000000E+00  1.30000000E+00  1.30000000E+00
  1.70000000E+00  1.30000000E+00  1.30000000E+00  1.70000000E+00  1.30000000E+00
  1.30000000E+00  1.70000000E+00  1.70000000E+00  1.30000000E+00  1.30000000E+00
  1.70000000E+00  1.70000000E+00  1.70000000E+00  1.30000000E+00  1.30000000E+00
  1.70000000E+00  1.30000000E+00  1.70000000E+00  1.30000000E+00  1.70000000E+00
  1.30000000E+00  1.30000000E+00  1.70000000E+00  1.30000000E+00  1.30000000E+00
  1.70000000E+00  1.30000000E+00  1.30000000E+00  1.30000000E+00  1.30000000E+00
  1.30000000E+00  1.70000000E+00  1.70000000E+00  1.30000000E+00  1.30000000E+00
  1.30000000E+00  1.70000000E+00  1.30000000E+00  1.30000000E+00  1.30000000E+00
  1.30000000E+00  1.80000000E+00  1.70000000E+00  1.70000000E+00  1.70000000E+00
  1.70000000E+00  1.70000000E+00  1.80000000E+00  1.70000000E+00  1.70000000E+00
  1.30000000E+00  1.70000000E+00  1.70000000E+00  1.70000000E+00  1.70000000E+00
  1.70000000E+00  1.30000000E+00  1.70000000E+00  1.70000000E+00  1.30000000E+00
  1.30000000E+00  1.70000000E+00  1.30000000E+00  1.30000000E+00  1.70000000E+00
  1.30000000E+00  1.30000000E+00  1.70000000E+00  1.30000000E+00  1.30000000E+00
  1.70000000E+00  1.70000000E+00  1.30000000E+00  1.30000000E+00  1.70000000E+00
  1.70000000E+00  1.70000000E+00  1.30000000E+00  1.30000000E+00  1.70000000E+00
  1.30000000E+00  1.70000000E+00  1.30000000E+00  1.70000000E+00  1.30000000E+00
  1.30000000E+00  1.70000000E+00  1.30000000E+00  1.30000000E+00  1.70000000E+00
  1.30000000E+00  1.30000000E+00  1.30000000E+00  1.30000000E+00  1.30000000E+00
  1.70000000E+00  1.70000000E+00  1.30000000E+00  1.30000000E+00  1.30000000E+00
  1.70000000E+00  1.30000000E+00  1.30000000E+00  1.30000000E+00  1.30000000E+00
  1.80000000E+00  1.70000000E+00  1.70000000E+00  1.70000000E+00  1.70000000E+00
  1.70000000E+00  1.80000000E+00  1.70000000E+00  1.70000000E+00  1.30000000E+00
  1.70000000E+00  1.70000000E+00  1.70000000E+00  1.70000000E+00  1.70000000E+00
  1.30000000E+00  1.70000000E+00  1.70000000E+00  1.30000000E+00  1.30000000E+00
  1.70000000E+00  1.30000000E+00  1.30000000E+00  1.70000000E+00  1.30000000E+00
  1.30000000E+00  1.70000000E+00  1.30000000E+00  1.30000000E+00  1.70000000E+00
  1.70000000E+00  1.30000000E+00  1.30000000E+00  1.70000000E+00  1.70000000E+00
  1.70000000E+00  1.30000000E+00  1.30000000E+00  1.70000000E+00  1.30000000E+00
  1.70000000E+00  1.30000000E+00  1.70000000E+00  1.30000000E+00  1.30000000E+00
  1.70000000E+00  1.30000000E+00  1.30000000E+00  1.70000000E+00  1.30000000E+00
  1.30000000E+00  1.30000000E+00  1.30000000E+00  1.30000000E+00  1.70000000E+00
  1.70000000E+00  1.30000000E+00  1.30000000E+00  1.30000000E+00  1.70000000E+00
  1.30000000E+00  1.30000000E+00  1.30000000E+00  1.30000000E+00  1.80000000E+00
  1.70000000E+00  1.70000000E+00  1.70000000E+00  1.70000000E+00  1.70000000E+00
  1.80000000E+00  1.70000000E+00  1.70000000E+00  1.30000000E+00  1.70000000E+00
  1.70000000E+00  1.70000000E+00  1.70000000E+00  1.70000000E+00  1.30000000E+00
  1.70000000E+00  1.70000000E+00  1.30000000E+00  1.30000000E+00  1.70000000E+00
  1.30000000E+00  1.30000000E+00  1.70000000E+00  1.30000000E+00  1.30000000E+00
  1.70000000E+00  1.30000000E+00  1.30000000E+00  1.70000000E+00  1.70000000E+00
  1.30000000E+00  1.30000000E+00  1.70000000E+00  1.70000000E+00  1.70000000E+00
  1.30000000E+00  1.30000000E+00  1.70000000E+00  1.30000000E+00  1.70000000E+00
  1.30000000E+00  1.70000000E+00  1.30000000E+00  1.30000000E+00  1.70000000E+00
  1.30000000E+00  1.30000000E+00  1.70000000E+00  1.30000000E+00  1.30000000E+00
  1.30000000E+00  1.30000000E+00  1.30000000E+00  1.70000000E+00  1.70000000E+00
  1.30000000E+00  1.30000000E+00  1.30000000E+00  1.70000000E+00  1.30000000E+00
  1.30000000E+00  1.30000000E+00  1.30000000E+00  1.80000000E+00  1.70000000E+00
  1.70000000E+00  1.70000000E+00  1.70000000E+00  1.70000000E+00  1.80000000E+00
  1.70000000E+00  1.70000000E+00  1.30000000E+00  1.70000000E+00  1.70000000E+00
  1.70000000E+00  1.70000000E+00  1.70000000E+00  1.30000000E+00  1.70000000E+00
  1.70000000E+00  1.30000000E+00  1.30000000E+00  1.70000000E+00  1.30000000E+00
  1.30000000E+00  1.70000000E+00  1.30000000E+00  1.30000000E+00  1.70000000E+00
  1.30000000E+00  1.30000000E+00  1.70000000E+00  1.70000000E+00  1.30000000E+00
  1.30000000E+00  1.70000000E+00  1.70000000E+00  1.70000000E+00  1.30000000E+00
  1.30000000E+00  1.70000000E+00  1.30000000E+00  1.70000000E+00  1.30000000E+00
  1.70000000E+00  1.30000000E+00  1.30000000E+00  1.70000000E+00  1.30000000E+00
  1.30000000E+00  1.70000000E+00  1.30000000E+00  1.30000000E+00  1.30000000E+00
  1.30000000E+00  1.30000000E+00  1.70000000E+00  1.70000000E+00  1.30000000E+00
  1.30000000E+00  1.30000000E+00  1.70000000E+00  1.30000000E+00  1.30000000E+00
  1.30000000E+00  1.30000000E+00  1.80000000E+00  1.70000000E+00  1.70000000E+00
  1.70000000E+00  1.70000000E+00  1.70000000E+00  1.80000000E+00  1.70000000E+00
  1.70000000E+00  1.30000000E+00  1.70000000E+00  1.70000000E+00  1.70000000E+00
  1.70000000E+00  1.70000000E+00  1.30000000E+00  1.70000000E+00  1.70000000E+00
  1.30000000E+00  1.30000000E+00  1.70000000E+00  1.30000000E+00  1.30000000E+00
  1.70000000E+00  1.30000000E+00  1.30000000E+00  1.70000000E+00  1.30000000E+00
  1.30000000E+00  1.70000000E+00  1.70000000E+00  1.30000000E+00  1.30000000E+00
  1.70000000E+00  1.70000000E+00  1.70000000E+00  1.30000000E+00  1.30000000E+00
  1.70000000E+00  1.30000000E+00  1.70000000E+00  1.30000000E+00  1.70000000E+00
  1.30000000E+00  1.30000000E+00  1.70000000E+00  1.30000000E+00  1.30000000E+00
  1.70000000E+00  1.30000000E+00  1.30000000E+00  1.30000000E+00  1.30000000E+00
  1.30000000E+00  1.70000000E+00  1.70000000E+00  1.30000000E+00  1.30000000E+00
  1.30000000E+00  1.70000000E+00  1.30000000E+00  1.30000000E+00  1.30000000E+00
  1.30000000E+00  1.80000000E+00  1.70000000E+00  1.70000000E+00  1.70000000E+00
  1.70000000E+00  1.70000000E+00  1.80000000E+00  1.70000000E+00  1.70000000E+00
  1.30000000E+00  1.70000000E+00  1.70000000E+00  1.70000000E+00  1.70000000E+00
  1.70000000E+00  1.30000000E+00  1.70000000E+00  1.70000000E+00  1.30000000E+00
  1.30000000E+00  1.70000000E+00  1.30000000E+00  1.30000000E+00  1.70000000E+00
  1.30000000E+00  1.30000000E+00  1.70000000E+00  1.30000000E+00  1.30000000E+00
  1.70000000E+00  1.70000000E+00  1.30000000E+00  1.30000000E+00  1.70000000E+00
  1.70000000E+00  1.70000000E+00  1.30000000E+00  1.30000000E+00  1.70000000E+00
  1.30000000E+00  1.70000000E+00  1.30000000E+00  1.70000000E+00  1.30000000E+00
  1.30000000E+00  1.70000000E+00  1.30000000E+00  1.30000000E+00  1.70000000E+00
  1.30000000E+00  1.30000000E+00  1.30000000E+00  1.30000000E+00  1.30000000E+00
  1.70000000E+00  1.70000000E+00  1.30000000E+00  1.30000000E+00  1.30000000E+00
  1.70000000E+00  1.30000000E+00  1.30000000E+00  1.30000000E+00  1.30000000E+00
  1.80000000E+00  1.70000000E+00  1.70000000E+00  1.70000000E+00  1.70000000E+00
  1.70000000E+00  1.80000000E+00  1.70000000E+00  1.70000000E+00  1.30000000E+00
  1.70000000E+00  1.70000000E+00  1.70000000E+00  1.70000000E+00  1.70000000E+00
  1.30000000E+00  1.70000000E+00  1.70000000E+00  1.30000000E+00  1.30000000E+00
  1.70000000E+00  1.30000000E+00  1.30000000E+00  1.70000000E+00  1.30000000E+00
  1.30000000E+00  1.70000000E+00  1.30000000E+00  1.30000000E+00  1.70000000E+00
  1.70000000E+00  1.30000000E+00  1.30000000E+00  1.70000000E+00  1.70000000E+00
  1.70000000E+00  1.30000000E+00  1.30000000E+00  1.70000000E+00  1.30000000E+00
  1.70000000E+00  1.30000000E+00  1.70000000E+00  1.30000000E+00  1.30000000E+00
  1.70000000E+00  1.30000000E+00  1.30000000E+00  1.70000000E+00  1.30000000E+00
  1.30000000E+00  1.30000000E+00  1.30000000E+00  1.30000000E+00  1.70000000E+00
  1.70000000E+00  1.30000000E+00  1.30000000E+00  1.30000000E+00  1.70000000E+00
  1.30000000E+00  1.30000000E+00  1.30000000E+00  1.30000000E+00  1.80000000E+00
  1.70000000E+00  1.70000000E+00  1.70000000E+00  1.70000000E+00  1.70000000E+00
  1.80000000E+00  1.70000000E+00  1.70000000E+00  1.30000000E+00  1.70000000E+00
  1.70000000E+00  1.70000000E+00  1.70000000E+00  1.70000000E+00  1.30000000E+00
  1.70000000E+00  1.70000000E+00  1.30000000E+00  1.30000000E+00  1.70000000E+00
  1.30000000E+00  1.30000000E+00  1.70000000E+00  1.30000000E+00  1.30000000E+00
  1.70000000E+00  1.30000000E+00  1.30000000E+00  1.70000000E+00  1.70000000E+00
  1.30000000E+00  1.30000000E+00  1.70000000E+00  1.70000000E+00  1.70000000E+00
  1.30000000E+00  1.30000000E+00  1.70000000E+00  1.30000000E+00  1.70000000E+00
  1.30000000E+00  1.70000000E+00  1.30000000E+00  1.30000000E+00  1.70000000E+00
  1.30000000E+00  1.30000000E+00  1.70000000E+00  1.30000000E+00  1.30000000E+00
  1.30000000E+00  1.30000000E+00  1.30000000E+00  1.70000000E+00  1.70000000E+00
  1.30000000E+00  1.30000000E+00  1.30000000E+00  1.70000000E+00  1.30000000E+00
  1.30000000E+00  1.30000000E+00  1.30000000E+00  1.80000000E+00  1.70000000E+00
  1.70000000E+00  1.70000000E+00  1.70000000E+00  1.70000000E+00  1.80000000E+00
  1.70000000E+00  1.70000000E+00  1.30000000E+00  1.70000000E+00  1.70000000E+00
  1.70000000E+00  1.70000000E+00  1.70000000E+00  1.30000000E+00  1.70000000E+00
  1.70000000E+00  1.30000000E+00  1.30000000E+00  1.70000000E+00  1.30000000E+00
  1.30000000E+00  1.70000000E+00  1.30000000E+00  1.30000000E+00  1.70000000E+00
  1.30000000E+00  1.30000000E+00  1.70000000E+00  1.70000000E+00  1.30000000E+00
  1.30000000E+00  1.70000000E+00  1.70000000E+00  1.70000000E+00  1.30000000E+00
  1.30000000E+00  1.70000000E+00  1.30000000E+00  1.70000000E+00  1.30000000E+00
  1.70000000E+00  1.30000000E+00  1.30000000E+00  1.70000000E+00  1.30000000E+00
  1.30000000E+00  1.70000000E+00  1.30000000E+00  1.30000000E+00  1.30000000E+00
  1.30000000E+00  1.30000000E+00  1.70000000E+00  1.70000000E+00  1.30000000E+00
  1.30000000E+00  1.30000000E+00  1.70000000E+00  1.30000000E+00  1.30000000E+00
  1.30000000E+00  1.30000000E+00  1.80000000E+00  1.70000000E+00  1.70000000E+00
  1.70000000E+00  1.70000000E+00  1.70000000E+00  1.80000000E+00  1.70000000E+00
  1.70000000E+00  1.30000000E+00  1.70000000E+00  1.70000000E+00  1.70000000E+00
  1.70000000E+00  1.70000000E+00  1.30000000E+00  1.70000000E+00  1.70000000E+00
  1.30000000E+00  1.30000000E+00  1.70000000E+00  1.30000000E+00  1.30000000E+00
  1.70000000E+00  1.30000000E+00  1.30000000E+00  1.70000000E+00  1.30000000E+00
  1.30000000E+00  1.70000000E+00  1.70000000E+00  1.30000000E+00  1.30000000E+00
  1.70000000E+00  1.70000000E+00  1.70000000E+00  1.30000000E+00  1.30000000E+00
  1.70000000E+00  1.30000000E+00  1.70000000E+00  1.30000000E+00  1.70000000E+00
  1.30000000E+00  1.30000000E+00  1.70000000E+00  1.30000000E+00  1.30000000E+00
  1.70000000E+00  1.30000000E+00  1.30000000E+00  1.30000000E+00  1.30000000E+00
  1.30000000E+00  1.70000000E+00  1.70000000E+00  1.30000000E+00  1.30000000E+00
  1.30000000E+00  1.70000000E+00  1.30000000E+00  1.30000000E+00  1.30000000E+00
  1.30000000E+00  1.80000000E+00  1.70000000E+00  1.70000000E+00  1.70000000E+00
  1.70000000E+00  1.70000000E+00  1.80000000E+00  1.70000000E+00  1.70000000E+00
  1.30000000E+00  1.70000000E+00  1.70000000E+00  1.70000000E+00  1.70000000E+00
  1.70000000E+00  1.30000000E+00  1.70000000E+00  1.70000000E+00  1.30000000E+00
  1.30000000E+00  1.70000000E+00  1.30000000E+00  1.30000000E+00  1.70000000E+00
  1.30000000E+00  1.30000000E+00  1.70000000E+00  1.30000000E+00  1.30000000E+00
  1.70000000E+00  1.70000000E+00  1.30000000E+00  1.30000000E+00  1.70000000E+00
  1.70000000E+00  1.70000000E+00  1.30000000E+00  1.30000000E+00  1.70000000E+00
  1.30000000E+00  1.70000000E+00  1.30000000E+00  1.70000000E+00  1.30000000E+00
  1.30000000E+00  1.70000000E+00  1.30000000E+00  1.30000000E+00  1.70000000E+00
  1.30000000E+00  1.30000000E+00  1.30000000E+00  1.30000000E+00  1.30000000E+00
  1.70000000E+00  1.70000000E+00  1.30000000E+00  1.30000000E+00  1.30000000E+00
  1.70000000E+00  1.30000000E+00  1.30000000E+00  1.30000000E+00  1.30000000E+00
  1.80000000E+00  1.70000000E+00  1.70000000E+00  1.70000000E+00  1.70000000E+00
  1.70000000E+00  1.80000000E+00  1.70000000E+00  1.70000000E+00  1.30000000E+00
  1.70000000E+00  1.70000000E+00  1.70000000E+00  1.70000000E+00  1.70000000E+00
  1.30000000E+00  1.70000000E+00  1.70000000E+00  1.30000000E+00  1.30000000E+00
  1.70000000E+00  1.30000000E+00  1.30000000E+00  1.70000000E+00  1.30000000E+00
  1.30000000E+00  1.70000000E+00  1.30000000E+00  1.30000000E+00  1.70000000E+00
  1.70000000E+00  1.30000000E+00  1.30000000E+00  1.70000000E+00  1.70000000E+00
  1.70000000E+00  1.30000000E+00  1.30000000E+00  1.70000000E+00  1.30000000E+00
  1.70000000E+00  1.30000000E+00  1.70000000E+00  1.30000000E+00  1.30000000E+00
  1.70000000E+00  1.30000000E+00  1.30000000E+00  1.70000000E+00  1.30000000E+00
  1.30000000E+00  1.30000000E+00  1.30000000E+00  1.30000000E+00  1.70000000E+00
  1.70000000E+00  1.30000000E+00  1.30000000E+00  1.30000000E+00  1.70000000E+00
  1.30000000E+00  1.30000000E+00  1.30000000E+00  1.30000000E+00  1.80000000E+00
  1.70000000E+00  1.70000000E+00  1.70000000E+00  1.70000000E+00  1.70000000E+00
  1.80000000E+00  1.70000000E+00  1.70000000E+00  1.30000000E+00  1.70000000E+00
  1.70000000E+00  1.70000000E+00  1.70000000E+00  1.70000000E+00  1.30000000E+00
  1.70000000E+00  1.70000000E+00  1.30000000E+00  1.30000000E+00  1.70000000E+00
  1.30000000E+00  1.30000000E+00  1.70000000E+00  1.30000000E+00  1.30000000E+00
  1.70000000E+00  1.30000000E+00  1.30000000E+00  1.70000000E+00  1.70000000E+00
  1.30000000E+00  1.30000000E+00  1.70000000E+00  1.70000000E+00  1.70000000E+00
  1.30000000E+00  1.30000000E+00  1.70000000E+00  1.30000000E+00  1.70000000E+00
  1.30000000E+00  1.70000000E+00  1.30000000E+00  1.30000000E+00  1.70000000E+00
  1.30000000E+00  1.30000000E+00  1.70000000E+00  1.30000000E+00  1.30000000E+00
  1.30000000E+00  1.30000000E+00  1.30000000E+00  1.70000000E+00  1.70000000E+00
  1.30000000E+00  1.30000000E+00  1.30000000E+00  1.70000000E+00  1.30000000E+00
  1.30000000E+00  1.30000000E+00  1.30000000E+00  1.80000000E+00  1.70000000E+00
  1.70000000E+00  1.70000000E+00  1.70000000E+00  1.70000000E+00  1.80000000E+00
  1.70000000E+00  1.70000000E+00  1.30000000E+00  1.70000000E+00  1.70000000E+00
  1.70000000E+00  1.70000000E+00  1.70000000E+00  1.30000000E+00  1.70000000E+00
  1.70000000E+00  1.30000000E+00  1.30000000E+00  1.70000000E+00  1.30000000E+00
  1.30000000E+00  1.70000000E+00  1.30000000E+00  1.30000000E+00  1.70000000E+00
  1.30000000E+00  1.30000000E+00  1.70000000E+00  1.70000000E+00  1.30000000E+00
  1.30000000E+00  1.70000000E+00  1.70000000E+00  1.70000000E+00  1.30000000E+00
  1.30000000E+00  1.70000000E+00  1.30000000E+00  1.70000000E+00  1.30000000E+00
  1.70000000E+00  1.30000000E+00  1.30000000E+00  1.70000000E+00  1.30000000E+00
  1.30000000E+00  1.70000000E+00  1.30000000E+00  1.30000000E+00  1.30000000E+00
  1.30000000E+00  1.30000000E+00  1.70000000E+00  1.70000000E+00  1.30000000E+00
  1.30000000E+00  1.30000000E+00  1.70000000E+00  1.30000000E+00  1.30000000E+00
  1.30000000E+00  1.30000000E+00  1.80000000E+00  1.70000000E+00  1.70000000E+00
  1.70000000E+00  1.70000000E+00  1.70000000E+00  1.80000000E+00  1.70000000E+00
  1.70000000E+00  1.30000000E+00  1.70000000E+00  1.70000000E+00  1.70000000E+00
  1.70000000E+00  1.70000000E+00  1.30000000E+00  1.70000000E+00  1.70000000E+00
  1.30000000E+00  1.30000000E+00  1.70000000E+00  1.30000000E+00  1.30000000E+00
  1.70000000E+00  1.30000000E+00  1.30000000E+00  1.70000000E+00  1.30000000E+00
  1.30000000E+00  1.70000000E+00  1.70000000E+00  1.30000000E+00  1.30000000E+00
  1.70000000E+00  1.70000000E+00  1.70000000E+00  1.30000000E+00  1.30000000E+00
  1.70000000E+00  1.30000000E+00  1.70000000E+00  1.30000000E+00  1.70000000E+00
  1.30000000E+00  1.30000000E+00  1.70000000E+00  1.30000000E+00  1.30000000E+00
  1.70000000E+00  1.30000000E+00  1.30000000E+00  1.30000000E+00  1.30000000E+00
  1.30000000E+00  1.70000000E+00  1.70000000E+00  1.30000000E+00  1.30000000E+00
  1.30000000E+00  1.70000000E+00  1.30000000E+00  1.30000000E+00  1.30000000E+00
  1.30000000E+00  1.80000000E+00  1.70000000E+00  1.70000000E+00  1.70000000E+00
  1.70000000E+00  1.70000000E+00  1.80000000E+00  1.70000000E+00  1.70000000E+00
  1.30000000E+00  1.70000000E+00  1.70000000E+00  1.70000000E+00  1.70000000E+00
  1.70000000E+00  1.30000000E+00  1.70000000E+00  1.70000000E+00  1.30000000E+00
  1.30000000E+00  1.70000000E+00  1.30000000E+00  1.30000000E+00  1.70000000E+00
  1.30000000E+00  1.30000000E+00  1.70000000E+00  1.30000000E+00  1.30000000E+00
  1.70000000E+00  1.70000000E+00  1.30000000E+00  1.30000000E+00  1.70000000E+00
  1.70000000E+00  1.70000000E+00  1.30000000E+00  1.30000000E+00  1.70000000E+00
  1.30000000E+00  1.70000000E+00  1.30000000E+00  1.70000000E+00  1.30000000E+00
  1.30000000E+00  1.70000000E+00  1.30000000E+00  1.30000000E+00  1.70000000E+00
  1.30000000E+00  1.30000000E+00  1.30000000E+00  1.30000000E+00  1.30000000E+00
  1.70000000E+00  1.70000000E+00  1.30000000E+00  1.30000000E+00  1.30000000E+00
  1.70000000E+00  1.30000000E+00  1.30000000E+00  1.30000000E+00  1.30000000E+00
  1.80000000E+00  1.70000000E+00  1.70000000E+00  1.70000000E+00  1.70000000E+00
  1.70000000E+00  1.80000000E+00  1.70000000E+00  1.70000000E+00  1.30000000E+00
  1.70000000E+00  1.70000000E+00  1.70000000E+00  1.70000000E+00  1.70000000E+00
  1.30000000E+00  1.70000000E+00  1.70000000E+00  1.30000000E+00  1.30000000E+00
  1.70000000E+00  1.30000000E+00  1.30000000E+00  1.70000000E+00  1.30000000E+00
  1.30000000E+00  1.70000000E+00  1.30000000E+00  1.30000000E+00  1.70000000E+00
  1.70000000E+00  1.30000000E+00  1.30000000E+00  1.70000000E+00  1.70000000E+00
  1.70000000E+00  1.30000000E+00  1.30000000E+00  1.70000000E+00  1.30000000E+00
  1.70000000E+00  1.30000000E+00  1.70000000E+00  1.30000000E+00  1.30000000E+00
  1.70000000E+00  1.30000000E+00  1.30000000E+00  1.70000000E+00  1.30000000E+00
  1.30000000E+00  1.30000000E+00  1.30000000E+00  1.30000000E+00  1.70000000E+00
  1.70000000E+00  1.30000000E+00  1.30000000E+00  1.30000000E+00  1.70000000E+00
  1.30000000E+00  1.30000000E+00  1.30000000E+00  1.30000000E+00  1.80000000E+00
  1.70000000E+00  1.70000000E+00  1.70000000E+00  1.70000000E+00  1.70000000E+00
  1.80000000E+00  1.70000000E+00  1.70000000E+00  1.30000000E+00  1.70000000E+00
  1.70000000E+00  1.70000000E+00  1.70000000E+00  1.70000000E+00  1.30000000E+00
  1.70000000E+00  1.70000000E+00  1.30000000E+00  1.30000000E+00  1.70000000E+00
  1.30000000E+00  1.30000000E+00  1.70000000E+00  1.30000000E+00  1.30000000E+00
  1.70000000E+00  1.30000000E+00  1.30000000E+00  1.70000000E+00  1.70000000E+00
  1.30000000E+00  1.30000000E+00  1.70000000E+00  1.70000000E+00  1.70000000E+00
  1.30000000E+00  1.30000000E+00  1.70000000E+00  1.30000000E+00  1.70000000E+00
  1.30000000E+00  1.70000000E+00  1.30000000E+00  1.30000000E+00  1.70000000E+00
  1.30000000E+00  1.30000000E+00  1.70000000E+00  1.30000000E+00  1.30000000E+00
  1.30000000E+00  1.30000000E+00  1.30000000E+00  1.70000000E+00  1.70000000E+00
  1.30000000E+00  1.30000000E+00  1.30000000E+00  1.70000000E+00  1.30000000E+00
  1.30000000E+00  1.30000000E+00  1.30000000E+00  1.80000000E+00  1.70000000E+00
  1.70000000E+00  1.70000000E+00  1.70000000E+00  1.70000000E+00  1.80000000E+00
  1.70000000E+00  1.70000000E+00  1.30000000E+00  1.70000000E+00  1.70000000E+00
  1.70000000E+00  1.70000000E+00  1.70000000E+00  1.30000000E+00  1.70000000E+00
  1.70000000E+00  1.30000000E+00  1.30000000E+00  1.70000000E+00  1.30000000E+00
  1.30000000E+00  1.70000000E+00  1.30000000E+00  1.30000000E+00  1.70000000E+00
  1.30000000E+00  1.30000000E+00  1.70000000E+00  1.70000000E+00  1.30000000E+00
  1.30000000E+00  1.70000000E+00  1.70000000E+00  1.70000000E+00  1.30000000E+00
  1.30000000E+00  1.70000000E+00  1.30000000E+00  1.70000000E+00  1.30000000E+00
  1.70000000E+00  1.30000000E+00  1.30000000E+00  1.70000000E+00  1.30000000E+00
  1.30000000E+00  1.70000000E+00  1.30000000E+00  1.30000000E+00  1.30000000E+00
  1.30000000E+00  1.30000000E+00  1.70000000E+00  1.70000000E+00  1.30000000E+00
  1.30000000E+00  1.30000000E+00  1.70000000E+00  1.30000000E+00  1.30000000E+00
  1.30000000E+00  1.30000000E+00  1.80000000E+00  1.70000000E+00  1.70000000E+00
  1.70000000E+00  1.70000000E+00  1.70000000E+00  1.80000000E+00  1.70000000E+00
  1.70000000E+00  1.30000000E+00  1.70000000E+00  1.70000000E+00  1.70000000E+00
  1.70000000E+00  1.70000000E+00  1.30000000E+00  1.70000000E+00  1.70000000E+00
  1.30000000E+00  1.30000000E+00  1.70000000E+00  1.30000000E+00  1.30000000E+00
  1.70000000E+00  1.30000000E+00  1.30000000E+00  1.70000000E+00  1.30000000E+00
  1.30000000E+00  1.70000000E+00  1.70000000E+00  1.30000000E+00  1.30000000E+00
  1.70000000E+00  1.70000000E+00  1.70000000E+00  1.30000000E+00  1.30000000E+00
  1.70000000E+00  1.30000000E+00  1.70000000E+00  1.30000000E+00  1.70000000E+00
  1.30000000E+00  1.30000000E+00  1.70000000E+00  1.30000000E+00  1.30000000E+00
  1.70000000E+00  1.30000000E+00  1.30000000E+00  1.30000000E+00  1.30000000E+00
  1.30000000E+00  1.70000000E+00  1.70000000E+00  1.30000000E+00  1.30000000E+00
  1.30000000E+00  1.70000000E+00  1.30000000E+00  1.30000000E+00  1.30000000E+00
  1.30000000E+00  1.80000000E+00  1.70000000E+00  1.70000000E+00  1.70000000E+00
  1.70000000E+00  1.70000000E+00  1.80000000E+00  1.70000000E+00  1.70000000E+00
  1.30000000E+00  1.70000000E+00  1.70000000E+00  1.70000000E+00  1.70000000E+00
  1.70000000E+00  1.30000000E+00  1.70000000E+00  1.70000000E+00  1.30000000E+00
  1.30000000E+00  1.70000000E+00  1.30000000E+00  1.30000000E+00  1.70000000E+00
  1.30000000E+00  1.30000000E+00  1.70000000E+00  1.30000000E+00  1.30000000E+00
  1.70000000E+00  1.70000000E+00  1.30000000E+00  1.30000000E+00  1.70000000E+00
  1.70000000E+00  1.70000000E+00  1.30000000E+00  1.30000000E+00  1.70000000E+00
  1.30000000E+00  1.70000000E+00  1.30000000E+00  1.70000000E+00  1.30000000E+00
  1.30000000E+00  1.70000000E+00  1.30000000E+00  1.30000000E+00  1.70000000E+00
  1.30000000E+00  1.30000000E+00  1.30000000E+00  1.30000000E+00  1.30000000E+00
  1.70000000E+00  1.70000000E+00  1.30000000E+00  1.30000000E+00  1.30000000E+00
  1.70000000E+00  1.30000000E+00  1.30000000E+00  1.30000000E+00  1.30000000E+00
  1.80000000E+00  1.70000000E+00  1.70000000E+00  1.70000000E+00  1.70000000E+00
  1.70000000E+00  1.80000000E+00  1.70000000E+00  1.70000000E+00  1.30000000E+00
  1.70000000E+00  1.70000000E+00  1.70000000E+00  1.70000000E+00  1.70000000E+00
  1.30000000E+00  1.70000000E+00  1.70000000E+00  1.30000000E+00  1.30000000E+00
  1.70000000E+00  1.30000000E+00  1.30000000E+00  1.70000000E+00  1.30000000E+00
  1.30000000E+00  1.70000000E+00  1.30000000E+00  1.30000000E+00  1.70000000E+00
  1.70000000E+00  1.30000000E+00  1.30000000E+00  1.70000000E+00  1.70000000E+00
  1.70000000E+00  1.30000000E+00  1.30000000E+00  1.70000000E+00  1.30000000E+00
  1.70000000E+00  1.30000000E+00  1.70000000E+00  1.30000000E+00  1.30000000E+00
  1.70000000E+00  1.30000000E+00  1.30000000E+00  1.70000000E+00  1.30000000E+00
  1.30000000E+00  1.30000000E+00  1.30000000E+00  1.30000000E+00  1.70000000E+00
  1.70000000E+00  1.30000000E+00  1.30000000E+00  1.30000000E+00  1.70000000E+00
  1.30000000E+00  1.30000000E+00  1.30000000E+00  1.30000000E+00  1.80000000E+00
  1.70000000E+00  1.70000000E+00  1.70000000E+00  1.70000000E+00  1.70000000E+00
  1.80000000E+00  1.70000000E+00  1.70000000E+00  1.30000000E+00  1.70000000E+00
  1.70000000E+00  1.70000000E+00  1.70000000E+00  1.70000000E+00  1.30000000E+00
  1.70000000E+00  1.70000000E+00  1.30000000E+00  1.30000000E+00  1.70000000E+00
  1.30000000E+00  1.30000000E+00  1.70000000E+00  1.30000000E+00  1.30000000E+00
  1.70000000E+00  1.30000000E+00  1.30000000E+00  1.70000000E+00  1.70000000E+00
  1.30000000E+00  1.30000000E+00  1.70000000E+00  1.70000000E+00  1.70000000E+00
  1.30000000E+00  1.30000000E+00  1.70000000E+00  1.30000000E+00  1.70000000E+00
  1.30000000E+00  1.70000000E+00  1.30000000E+00  1.30000000E+00  1.70000000E+00
  1.30000000E+00  1.30000000E+00  1.70000000E+00  1.30000000E+00  1.30000000E+00
  1.30000000E+00  1.30000000E+00  1.30000000E+00  1.70000000E+00  1.70000000E+00
  1.30000000E+00  1.30000000E+00  1.30000000E+00  1.70000000E+00  1.30000000E+00
  1.30000000E+00  1.30000000E+00  1.30000000E+00  1.80000000E+00  1.70000000E+00
  1.70000000E+00  1.70000000E+00  1.70000000E+00  1.70000000E+00  1.80000000E+00
  1.70000000E+00  1.70000000E+00  1.30000000E+00  1.70000000E+00  1.70000000E+00
  1.70000000E+00  1.70000000E+00  1.70000000E+00  1.30000000E+00  1.70000000E+00
  1.70000000E+00  1.30000000E+00  1.30000000E+00  1.70000000E+00  1.30000000E+00
  1.30000000E+00  1.70000000E+00  1.30000000E+00  1.30000000E+00  1.70000000E+00
  1.30000000E+00  1.30000000E+00  1.70000000E+00  1.70000000E+00  1.30000000E+00
  1.30000000E+00  1.70000000E+00  1.70000000E+00  1.70000000E+00  1.30000000E+00
  1.30000000E+00  1.70000000E+00  1.30000000E+00  1.70000000E+00  1.30000000E+00
  1.70000000E+00  1.30000000E+00  1.30000000E+00  1.70000000E+00  1.30000000E+00
  1.30000000E+00  1.70000000E+00  1.30000000E+00  1.30000000E+00  1.30000000E+00
  1.30000000E+00  1.30000000E+00  1.70000000E+00  1.70000000E+00  1.30000000E+00
  1.30000000E+00  1.30000000E+00  1.70000000E+00  1.30000000E+00  1.30000000E+00
  1.30000000E+00  1.30000000E+00  1.80000000E+00  1.70000000E+00  1.70000000E+00
  1.70000000E+00  1.70000000E+00  1.70000000E+00  1.80000000E+00  1.70000000E+00
  1.70000000E+00  1.30000000E+00  1.70000000E+00  1.70000000E+00  1.70000000E+00
  1.70000000E+00  1.70000000E+00  1.30000000E+00  1.70000000E+00  1.70000000E+00
  1.30000000E+00  1.30000000E+00  1.70000000E+00  1.30000000E+00  1.30000000E+00
  1.70000000E+00  1.30000000E+00  1.30000000E+00  1.70000000E+00  1.30000000E+00
  1.30000000E+00  1.70000000E+00  1.70000000E+00  1.30000000E+00  1.30000000E+00
  1.70000000E+00  1.70000000E+00  1.70000000E+00  1.30000000E+00  1.30000000E+00
  1.70000000E+00  1.30000000E+00  1.70000000E+00  1.30000000E+00  1.70000000E+00
  1.30000000E+00  1.30000000E+00  1.70000000E+00  1.30000000E+00  1.30000000E+00
  1.70000000E+00  1.30000000E+00  1.30000000E+00  1.30000000E+00  1.30000000E+00
  1.30000000E+00  1.70000000E+00  1.70000000E+00  1.30000000E+00  1.30000000E+00
  1.30000000E+00  1.70000000E+00  1.30000000E+00  1.30000000E+00  1.30000000E+00
  1.30000000E+00  1.80000000E+00  1.70000000E+00  1.70000000E+00  1.70000000E+00
  1.70000000E+00  1.70000000E+00  1.80000000E+00  1.70000000E+00  1.70000000E+00
  1.30000000E+00  1.70000000E+00  1.70000000E+00  1.70000000E+00  1.70000000E+00
  1.70000000E+00  1.30000000E+00  1.70000000E+00  1.70000000E+00  1.30000000E+00
  1.30000000E+00  1.70000000E+00  1.30000000E+00  1.30000000E+00  1.70000000E+00
  1.30000000E+00  1.30000000E+00  1.70000000E+00  1.30000000E+00  1.30000000E+00
  1.70000000E+00  1.70000000E+00  1.30000000E+00  1.30000000E+00  1.70000000E+00
  1.70000000E+00  1.70000000E+00  1.30000000E+00  1.30000000E+00  1.70000000E+00
  1.30000000E+00  1.70000000E+00  1.30000000E+00  1.70000000E+00  1.30000000E+00
  1.30000000E+00  1.70000000E+00  1.30000000E+00  1.30000000E+00  1.70000000E+00
  1.30000000E+00  1.30000000E+00  1.30000000E+00  1.30000000E+00  1.30000000E+00
  1.70000000E+00  1.70000000E+00  1.30000000E+00  1.30000000E+00  1.30000000E+00
  1.70000000E+00  1.30000000E+00  1.30000000E+00  1.30000000E+00  1.30000000E+00
  1.80000000E+00  1.70000000E+00  1.70000000E+00  1.70000000E+00  1.70000000E+00
  1.70000000E+00  1.80000000E+00  1.70000000E+00  1.70000000E+00  1.30000000E+00
  1.70000000E+00  1.70000000E+00  1.70000000E+00  1.70000000E+00  1.70000000E+00
  1.30000000E+00  1.70000000E+00  1.70000000E+00  1.30000000E+00  1.30000000E+00
  1.70000000E+00  1.30000000E+00  1.30000000E+00  1.70000000E+00  1.30000000E+00
  1.30000000E+00  1.70000000E+00  1.30000000E+00  1.30000000E+00  1.70000000E+00
  1.70000000E+00  1.30000000E+00  1.30000000E+00  1.70000000E+00  1.70000000E+00
  1.70000000E+00  1.30000000E+00  1.30000000E+00  1.70000000E+00  1.30000000E+00
  1.70000000E+00  1.30000000E+00  1.70000000E+00  1.30000000E+00  1.30000000E+00
  1.70000000E+00  1.30000000E+00  1.30000000E+00  1.70000000E+00  1.30000000E+00
  1.30000000E+00  1.30000000E+00  1.30000000E+00  1.30000000E+00  1.70000000E+00
  1.70000000E+00  1.30000000E+00  1.30000000E+00  1.30000000E+00  1.70000000E+00
  1.30000000E+00  1.30000000E+00  1.30000000E+00  1.30000000E+00  1.80000000E+00
  1.70000000E+00  1.70000000E+00  1.70000000E+00  1.70000000E+00  1.70000000E+00
  1.80000000E+00  1.70000000E+00  1.70000000E+00  1.30000000E+00  1.70000000E+00
  1.70000000E+00  1.70000000E+00  1.70000000E+00  1.70000000E+00  1.30000000E+00
  1.70000000E+00  1.70000000E+00  1.30000000E+00  1.30000000E+00  1.70000000E+00
  1.30000000E+00  1.30000000E+00  1.70000000E+00  1.30000000E+00  1.30000000E+00
  1.70000000E+00  1.30000000E+00  1.30000000E+00  1.70000000E+00  1.70000000E+00
  1.30000000E+00  1.30000000E+00  1.70000000E+00  1.70000000E+00  1.70000000E+00
  1.30000000E+00  1.30000000E+00  1.70000000E+00  1.30000000E+00  1.70000000E+00
  1.30000000E+00  1.70000000E+00  1.30000000E+00  1.30000000E+00  1.70000000E+00
  1.30000000E+00  1.30000000E+00  1.70000000E+00  1.30000000E+00  1.30000000E+00
  1.30000000E+00  1.30000000E+00  1.30000000E+00  1.70000000E+00  1.70000000E+00
  1.30000000E+00  1.30000000E+00  1.30000000E+00  1.70000000E+00  1.30000000E+00
  1.30000000E+00  1.30000000E+00  1.30000000E+00  1.80000000E+00  1.70000000E+00
  1.70000000E+00  1.70000000E+00  1.70000000E+00  1.70000000E+00  1.80000000E+00
  1.70000000E+00  1.70000000E+00  1.30000000E+00  1.70000000E+00  1.70000000E+00
  1.70000000E+00  1.70000000E+00  1.70000000E+00  1.30000000E+00  1.70000000E+00
  1.70000000E+00  1.30000000E+00  1.30000000E+00  1.70000000E+00  1.30000000E+00
  1.30000000E+00  1.70000000E+00  1.30000000E+00  1.30000000E+00  1.70000000E+00
  1.30000000E+00  1.30000000E+00  1.70000000E+00  1.70000000E+00  1.30000000E+00
  1.30000000E+00  1.70000000E+00  1.70000000E+00  1.70000000E+00  1.30000000E+00
  1.30000000E+00  1.70000000E+00  1.30000000E+00  1.70000000E+00  1.30000000E+00
  1.70000000E+00  1.30000000E+00  1.30000000E+00  1.70000000E+00  1.30000000E+00
  1.30000000E+00  1.70000000E+00  1.30000000E+00  1.30000000E+00  1.30000000E+00
  1.30000000E+00  1.30000000E+00  1.70000000E+00  1.70000000E+00  1.30000000E+00
  1.30000000E+00  1.30000000E+00  1.70000000E+00  1.30000000E+00  1.30000000E+00
  1.30000000E+00  1.30000000E+00  1.80000000E+00  1.70000000E+00  1.70000000E+00
  1.70000000E+00  1.70000000E+00  1.70000000E+00  1.80000000E+00  1.70000000E+00
  1.70000000E+00  1.30000000E+00  1.70000000E+00  1.70000000E+00  1.70000000E+00
  1.70000000E+00  1.70000000E+00  1.30000000E+00  1.70000000E+00  1.70000000E+00
  1.30000000E+00  1.30000000E+00  1.70000000E+00  1.30000000E+00  1.30000000E+00
  1.70000000E+00  1.30000000E+00  1.30000000E+00  1.70000000E+00  1.30000000E+00
  1.30000000E+00  1.70000000E+00  1.70000000E+00  1.30000000E+00  1.30000000E+00
  1.70000000E+00  1.70000000E+00  1.70000000E+00  1.30000000E+00  1.30000000E+00
  1.70000000E+00  1.30000000E+00  1.70000000E+00  1.30000000E+00  1.70000000E+00
  1.30000000E+00  1.30000000E+00  1.70000000E+00  1.30000000E+00  1.30000000E+00
  1.70000000E+00  1.30000000E+00  1.30000000E+00  1.30000000E+00  1.30000000E+00
  1.30000000E+00  1.70000000E+00  1.70000000E+00  1.30000000E+00  1.30000000E+00
  1.30000000E+00  1.70000000E+00  1.30000000E+00  1.30000000E+00  1.30000000E+00
  1.30000000E+00  1.80000000E+00  1.70000000E+00  1.70000000E+00  1.70000000E+00
  1.70000000E+00  1.70000000E+00  1.80000000E+00  1.70000000E+00  1.70000000E+00
  1.30000000E+00  1.70000000E+00  1.70000000E+00  1.70000000E+00  1.70000000E+00
  1.70000000E+00  1.30000000E+00  1.70000000E+00  1.70000000E+00  1.30000000E+00
  1.30000000E+00  1.70000000E+00  1.30000000E+00  1.30000000E+00  1.70000000E+00
  1.30000000E+00  1.30000000E+00  1.70000000E+00  1.30000000E+00  1.30000000E+00
  1.70000000E+00  1.70000000E+00  1.30000000E+00  1.30000000E+00  1.70000000E+00
  1.70000000E+00  1.70000000E+00  1.30000000E+00  1.30000000E+00  1.70000000E+00
  1.30000000E+00  1.70000000E+00  1.30000000E+00  1.70000000E+00  1.30000000E+00
  1.30000000E+00  1.70000000E+00  1.30000000E+00  1.30000000E+00  1.70000000E+00
  1.30000000E+00  1.30000000E+00  1.30000000E+00  1.30000000E+00  1.30000000E+00
  1.70000000E+00  1.70000000E+00  1.30000000E+00  1.30000000E+00  1.30000000E+00
  1.70000000E+00  1.30000000E+00  1.30000000E+00  1.30000000E+00  1.30000000E+00
  1.80000000E+00  1.70000000E+00  1.70000000E+00  1.70000000E+00  1.70000000E+00
  1.70000000E+00  1.80000000E+00  1.70000000E+00  1.70000000E+00  1.30000000E+00
  1.70000000E+00  1.70000000E+00  1.70000000E+00  1.70000000E+00  1.70000000E+00
  1.30000000E+00  1.70000000E+00  1.70000000E+00  1.30000000E+00  1.30000000E+00
  1.70000000E+00  1.30000000E+00  1.30000000E+00  1.70000000E+00  1.30000000E+00
  1.30000000E+00  1.70000000E+00  1.30000000E+00  1.30000000E+00  1.70000000E+00
  1.70000000E+00  1.30000000E+00  1.30000000E+00  1.70000000E+00  1.70000000E+00
  1.70000000E+00  1.30000000E+00  1.30000000E+00  1.70000000E+00  1.30000000E+00
  1.70000000E+00  1.30000000E+00  1.70000000E+00  1.30000000E+00  1.30000000E+00
  1.70000000E+00  1.30000000E+00  1.30000000E+00  1.70000000E+00  1.30000000E+00
  1.30000000E+00  1.30000000E+00  1.30000000E+00  1.30000000E+00  1.70000000E+00
  1.70000000E+00  1.30000000E+00  1.30000000E+00  1.30000000E+00  1.70000000E+00
  1.30000000E+00  1.30000000E+00  1.30000000E+00  1.30000000E+00  1.80000000E+00
  1.70000000E+00  1.70000000E+00  1.70000000E+00  1.70000000E+00  1.70000000E+00
  1.80000000E+00  1.70000000E+00  1.70000000E+00  1.30000000E+00  1.70000000E+00
  1.70000000E+00  1.70000000E+00  1.70000000E+00  1.70000000E+00  1.30000000E+00
  1.70000000E+00  1.70000000E+00  1.30000000E+00  1.30000000E+00  1.70000000E+00
  1.30000000E+00  1.30000000E+00  1.70000000E+00  1.30000000E+00  1.30000000E+00
  1.70000000E+00  1.30000000E+00  1.30000000E+00  1.70000000E+00  1.70000000E+00
  1.30000000E+00  1.30000000E+00  1.70000000E+00  1.70000000E+00  1.70000000E+00
  1.30000000E+00  1.30000000E+00  1.70000000E+00  1.30000000E+00  1.70000000E+00
  1.30000000E+00  1.70000000E+00  1.30000000E+00  1.30000000E+00  1.70000000E+00
  1.30000000E+00  1.30000000E+00  1.70000000E+00  1.30000000E+00  1.30000000E+00
  1.30000000E+00  1.30000000E+00  1.30000000E+00  1.70000000E+00  1.70000000E+00
  1.30000000E+00  1.30000000E+00  1.30000000E+00  1.70000000E+00  1.30000000E+00
  1.30000000E+00  1.30000000E+00  1.30000000E+00  1.80000000E+00  1.70000000E+00
  1.70000000E+00  1.70000000E+00  1.70000000E+00  1.70000000E+00  1.80000000E+00
  1.70000000E+00  1.70000000E+00  1.30000000E+00  1.70000000E+00  1.70000000E+00
  1.70000000E+00  1.70000000E+00  1.70000000E+00  1.30000000E+00  1.70000000E+00
  1.70000000E+00  1.30000000E+00  1.30000000E+00  1.70000000E+00  1.30000000E+00
  1.30000000E+00  1.70000000E+00  1.30000000E+00  1.30000000E+00  1.70000000E+00
  1.30000000E+00  1.30000000E+00  1.70000000E+00  1.70000000E+00  1.30000000E+00
  1.30000000E+00  1.70000000E+00  1.70000000E+00  1.70000000E+00  1.30000000E+00
  1.30000000E+00  1.70000000E+00  1.30000000E+00  1.70000000E+00  1.30000000E+00
  1.70000000E+00  1.30000000E+00  1.30000000E+00  1.70000000E+00  1.30000000E+00
  1.30000000E+00  1.70000000E+00  1.30000000E+00  1.30000000E+00  1.30000000E+00
  1.30000000E+00  1.30000000E+00  1.70000000E+00  1.70000000E+00  1.30000000E+00
  1.30000000E+00  1.30000000E+00  1.70000000E+00  1.30000000E+00  1.30000000E+00
  1.30000000E+00  1.30000000E+00  1.80000000E+00  1.70000000E+00  1.70000000E+00
  1.70000000E+00  1.70000000E+00  1.70000000E+00  1.80000000E+00  1.70000000E+00
  1.70000000E+00  1.30000000E+00  1.70000000E+00  1.70000000E+00  1.70000000E+00
  1.70000000E+00  1.70000000E+00  1.30000000E+00  1.70000000E+00  1.70000000E+00
  1.30000000E+00  1.30000000E+00  1.70000000E+00  1.30000000E+00  1.30000000E+00
  1.70000000E+00  1.30000000E+00  1.30000000E+00  1.70000000E+00  1.30000000E+00
  1.30000000E+00  1.70000000E+00  1.70000000E+00  1.30000000E+00  1.30000000E+00
  1.70000000E+00  1.70000000E+00  1.70000000E+00  1.30000000E+00  1.30000000E+00
  1.70000000E+00  1.30000000E+00  1.70000000E+00  1.30000000E+00  1.70000000E+00
  1.30000000E+00  1.30000000E+00  1.70000000E+00  1.30000000E+00  1.30000000E+00
  1.70000000E+00  1.30000000E+00  1.30000000E+00  1.30000000E+00  1.30000000E+00
  1.30000000E+00  1.70000000E+00  1.70000000E+00  1.30000000E+00  1.30000000E+00
  1.30000000E+00  1.70000000E+00  1.30000000E+00  1.30000000E+00  1.30000000E+00
  1.30000000E+00  1.80000000E+00  1.70000000E+00  1.70000000E+00  1.70000000E+00
  1.70000000E+00  1.70000000E+00  1.80000000E+00  1.70000000E+00  1.70000000E+00
  1.30000000E+00  1.70000000E+00  1.70000000E+00  1.70000000E+00  1.70000000E+00
  1.70000000E+00  1.30000000E+00  1.70000000E+00  1.70000000E+00  1.30000000E+00
  1.30000000E+00  1.70000000E+00  1.30000000E+00  1.30000000E+00  1.70000000E+00
  1.30000000E+00  1.30000000E+00  1.70000000E+00  1.30000000E+00  1.30000000E+00
  1.70000000E+00  1.70000000E+00  1.30000000E+00  1.30000000E+00  1.70000000E+00
  1.70000000E+00  1.70000000E+00  1.30000000E+00  1.30000000E+00  1.70000000E+00
  1.30000000E+00  1.70000000E+00  1.30000000E+00  1.70000000E+00  1.30000000E+00
  1.30000000E+00  1.70000000E+00  1.30000000E+00  1.30000000E+00  1.70000000E+00
  1.30000000E+00  1.30000000E+00  1.30000000E+00  1.30000000E+00  1.30000000E+00
  1.70000000E+00  1.70000000E+00  1.30000000E+00  1.30000000E+00  1.30000000E+00
  1.70000000E+00  1.30000000E+00  1.30000000E+00  1.30000000E+00  1.30000000E+00
  1.80000000E+00  1.70000000E+00  1.70000000E+00  1.70000000E+00  1.70000000E+00
  1.70000000E+00  1.80000000E+00  1.70000000E+00  1.70000000E+00  1.30000000E+00
  1.70000000E+00  1.70000000E+00  1.70000000E+00  1.70000000E+00  1.70000000E+00
  1.30000000E+00  1.70000000E+00  1.70000000E+00  1.30000000E+00  1.30000000E+00
  1.70000000E+00  1.30000000E+00  1.30000000E+00  1.70000000E+00  1.30000000E+00
  1.30000000E+00  1.70000000E+00  1.30000000E+00  1.30000000E+00  1.70000000E+00
  1.70000000E+00  1.30000000E+00  1.30000000E+00  1.70000000E+00  1.70000000E+00
  1.70000000E+00  1.30000000E+00  1.30000000E+00  1.70000000E+00  1.30000000E+00
  1.70000000E+00  1.30000000E+00  1.70000000E+00  1.30000000E+00  1.30000000E+00
  1.70000000E+00  1.30000000E+00  1.30000000E+00  1.70000000E+00  1.30000000E+00
  1.30000000E+00  1.30000000E+00  1.30000000E+00  1.30000000E+00  1.70000000E+00
  1.70000000E+00  1.30000000E+00  1.30000000E+00  1.30000000E+00  1.70000000E+00
  1.30000000E+00  1.30000000E+00  1.30000000E+00  1.30000000E+00  1.80000000E+00
  1.70000000E+00  1.70000000E+00  1.70000000E+00  1.70000000E+00  1.70000000E+00
  1.80000000E+00  1.70000000E+00  1.70000000E+00  1.30000000E+00  1.70000000E+00
  1.70000000E+00  1.70000000E+00  1.70000000E+00  1.70000000E+00  1.30000000E+00
  1.70000000E+00  1.70000000E+00  1.30000000E+00  1.30000000E+00  1.70000000E+00
  1.30000000E+00  1.30000000E+00  1.70000000E+00  1.30000000E+00  1.30000000E+00
  1.70000000E+00  1.30000000E+00  1.30000000E+00  1.70000000E+00  1.70000000E+00
  1.30000000E+00  1.30000000E+00  1.70000000E+00  1.70000000E+00  1.70000000E+00
  1.30000000E+00  1.30000000E+00  1.70000000E+00  1.30000000E+00  1.70000000E+00
  1.30000000E+00  1.70000000E+00  1.30000000E+00  1.30000000E+00  1.70000000E+00
  1.30000000E+00  1.30000000E+00  1.70000000E+00  1.30000000E+00  1.30000000E+00
  1.30000000E+00  1.30000000E+00  1.30000000E+00  1.70000000E+00  1.70000000E+00
  1.30000000E+00  1.30000000E+00  1.30000000E+00  1.70000000E+00  1.30000000E+00
  1.30000000E+00  1.30000000E+00  1.30000000E+00  1.80000000E+00  1.70000000E+00
  1.70000000E+00  1.70000000E+00  1.70000000E+00  1.70000000E+00  1.80000000E+00
  1.70000000E+00  1.70000000E+00  1.30000000E+00  1.70000000E+00  1.70000000E+00
  1.70000000E+00  1.70000000E+00  1.70000000E+00  1.30000000E+00  1.70000000E+00
  1.70000000E+00  1.30000000E+00  1.30000000E+00  1.70000000E+00  1.30000000E+00
  1.30000000E+00  1.70000000E+00  1.30000000E+00  1.30000000E+00  1.70000000E+00
  1.30000000E+00  1.30000000E+00  1.70000000E+00  1.70000000E+00  1.30000000E+00
  1.30000000E+00  1.70000000E+00  1.70000000E+00  1.70000000E+00  1.30000000E+00
  1.30000000E+00  1.70000000E+00  1.30000000E+00  1.70000000E+00  1.30000000E+00
  1.70000000E+00  1.30000000E+00  1.30000000E+00  1.70000000E+00  1.30000000E+00
  1.30000000E+00  1.70000000E+00  1.30000000E+00  1.30000000E+00  1.30000000E+00
  1.30000000E+00  1.30000000E+00  1.70000000E+00  1.70000000E+00  1.30000000E+00
  1.30000000E+00  1.30000000E+00  1.70000000E+00  1.30000000E+00  1.30000000E+00
  1.30000000E+00  1.30000000E+00  1.80000000E+00  1.70000000E+00  1.70000000E+00
  1.70000000E+00  1.70000000E+00  1.70000000E+00  1.80000000E+00  1.70000000E+00
  1.70000000E+00  1.30000000E+00  1.70000000E+00  1.70000000E+00  1.70000000E+00
  1.70000000E+00  1.70000000E+00  1.30000000E+00  1.70000000E+00  1.70000000E+00
  1.30000000E+00  1.30000000E+00  1.70000000E+00  1.30000000E+00  1.30000000E+00
  1.70000000E+00  1.30000000E+00  1.30000000E+00  1.70000000E+00  1.30000000E+00
  1.30000000E+00  1.70000000E+00  1.70000000E+00  1.30000000E+00  1.30000000E+00
  1.70000000E+00  1.70000000E+00  1.70000000E+00  1.30000000E+00  1.30000000E+00
  1.70000000E+00  1.30000000E+00  1.70000000E+00  1.30000000E+00  1.70000000E+00
  1.30000000E+00  1.30000000E+00  1.70000000E+00  1.30000000E+00  1.30000000E+00
  1.70000000E+00  1.30000000E+00  1.30000000E+00  1.30000000E+00  1.30000000E+00
  1.30000000E+00  1.70000000E+00  1.70000000E+00  1.30000000E+00  1.30000000E+00
  1.30000000E+00  1.70000000E+00  1.30000000E+00  1.30000000E+00  1.30000000E+00
  1.30000000E+00  1.80000000E+00  1.70000000E+00  1.70000000E+00  1.70000000E+00
  1.70000000E+00  1.70000000E+00  1.80000000E+00  1.70000000E+00  1.70000000E+00
  1.30000000E+00  1.70000000E+00  1.70000000E+00  1.70000000E+00  1.70000000E+00
  1.70000000E+00  1.30000000E+00  1.70000000E+00  1.70000000E+00  1.30000000E+00
  1.30000000E+00  1.70000000E+00  1.30000000E+00  1.30000000E+00  1.70000000E+00
  1.30000000E+00  1.30000000E+00  1.70000000E+00  1.30000000E+00  1.30000000E+00
  1.70000000E+00  1.70000000E+00  1.30000000E+00  1.30000000E+00  1.70000000E+00
  1.70000000E+00  1.70000000E+00  1.30000000E+00  1.30000000E+00  1.70000000E+00
  1.30000000E+00  1.70000000E+00  1.30000000E+00  1.70000000E+00  1.30000000E+00
  1.30000000E+00  1.70000000E+00  1.30000000E+00  1.30000000E+00  1.70000000E+00
  1.30000000E+00  1.30000000E+00  1.30000000E+00  1.30000000E+00  1.30000000E+00
  1.70000000E+00  1.70000000E+00  1.30000000E+00  1.30000000E+00  1.30000000E+00
  1.70000000E+00  1.30000000E+00  1.30000000E+00  1.30000000E+00  1.30000000E+00
  1.80000000E+00  1.70000000E+00  1.70000000E+00  1.70000000E+00  1.70000000E+00
  1.70000000E+00  1.80000000E+00  1.70000000E+00  1.70000000E+00  1.30000000E+00
  1.70000000E+00  1.70000000E+00  1.70000000E+00  1.70000000E+00  1.70000000E+00
  1.30000000E+00  1.70000000E+00  1.70000000E+00  1.30000000E+00  1.30000000E+00
  1.70000000E+00  1.30000000E+00  1.30000000E+00  1.70000000E+00  1.30000000E+00
  1.30000000E+00  1.70000000E+00  1.30000000E+00  1.30000000E+00  1.70000000E+00
  1.70000000E+00  1.30000000E+00  1.30000000E+00  1.70000000E+00  1.70000000E+00
  1.70000000E+00  1.30000000E+00  1.30000000E+00  1.70000000E+00  1.30000000E+00
  1.70000000E+00  1.30000000E+00  1.70000000E+00  1.30000000E+00  1.30000000E+00
  1.70000000E+00  1.30000000E+00  1.30000000E+00  1.70000000E+00  1.30000000E+00
  1.30000000E+00  1.30000000E+00  1.30000000E+00  1.30000000E+00  1.70000000E+00
  1.70000000E+00  1.30000000E+00  1.30000000E+00  1.30000000E+00  1.70000000E+00
  1.30000000E+00  1.30000000E+00  1.30000000E+00  1.30000000E+00  1.80000000E+00
  1.70000000E+00  1.70000000E+00  1.70000000E+00  1.70000000E+00  1.70000000E+00
  1.80000000E+00  1.70000000E+00  1.70000000E+00  1.30000000E+00  1.70000000E+00
  1.70000000E+00  1.70000000E+00  1.70000000E+00  1.70000000E+00  1.30000000E+00
  1.70000000E+00  1.70000000E+00  1.30000000E+00  1.30000000E+00  1.70000000E+00
  1.30000000E+00  1.30000000E+00  1.70000000E+00  1.30000000E+00  1.30000000E+00
  1.70000000E+00  1.30000000E+00  1.30000000E+00  1.70000000E+00  1.70000000E+00
  1.30000000E+00  1.30000000E+00  1.70000000E+00  1.70000000E+00  1.70000000E+00
  1.30000000E+00  1.30000000E+00  1.70000000E+00  1.30000000E+00  1.70000000E+00
  1.30000000E+00  1.70000000E+00  1.30000000E+00  1.30000000E+00  1.70000000E+00
  1.30000000E+00  1.30000000E+00  1.70000000E+00  1.30000000E+00  1.30000000E+00
  1.30000000E+00  1.30000000E+00  1.30000000E+00  1.70000000E+00  1.70000000E+00
  1.30000000E+00  1.30000000E+00  1.30000000E+00  1.70000000E+00  1.30000000E+00
  1.30000000E+00  1.30000000E+00  1.30000000E+00  1.80000000E+00  1.70000000E+00
  1.70000000E+00  1.70000000E+00  1.70000000E+00  1.70000000E+00  1.80000000E+00
  1.70000000E+00  1.70000000E+00  1.30000000E+00  1.70000000E+00  1.70000000E+00
  1.70000000E+00  1.70000000E+00  1.70000000E+00  1.30000000E+00  1.70000000E+00
  1.70000000E+00  1.30000000E+00  1.30000000E+00  1.70000000E+00  1.30000000E+00
  1.30000000E+00  1.70000000E+00  1.30000000E+00  1.30000000E+00  1.70000000E+00
  1.30000000E+00  1.30000000E+00  1.70000000E+00  1.70000000E+00  1.30000000E+00
  1.30000000E+00  1.70000000E+00  1.70000000E+00  1.70000000E+00  1.30000000E+00
  1.30000000E+00  1.70000000E+00  1.30000000E+00  1.70000000E+00  1.30000000E+00
  1.70000000E+00  1.30000000E+00  1.30000000E+00  1.70000000E+00  1.30000000E+00
  1.30000000E+00  1.70000000E+00  1.30000000E+00  1.30000000E+00  1.30000000E+00
  1.30000000E+00  1.30000000E+00  1.70000000E+00  1.70000000E+00  1.30000000E+00
  1.30000000E+00  1.30000000E+00  1.70000000E+00  1.30000000E+00  1.30000000E+00
  1.30000000E+00  1.30000000E+00  1.80000000E+00  1.70000000E+00  1.70000000E+00
  1.70000000E+00  1.70000000E+00  1.70000000E+00  1.80000000E+00  1.70000000E+00
  1.70000000E+00  1.30000000E+00  1.70000000E+00  1.70000000E+00  1.70000000E+00
  1.70000000E+00  1.70000000E+00  1.30000000E+00  1.70000000E+00  1.70000000E+00
  1.30000000E+00  1.30000000E+00  1.70000000E+00  1.30000000E+00  1.30000000E+00
  1.70000000E+00  1.30000000E+00  1.30000000E+00  1.70000000E+00  1.30000000E+00
  1.30000000E+00  1.70000000E+00  1.70000000E+00  1.30000000E+00  1.30000000E+00
  1.70000000E+00  1.70000000E+00  1.70000000E+00  1.30000000E+00  1.30000000E+00
  1.70000000E+00  1.30000000E+00  1.70000000E+00  1.30000000E+00  1.70000000E+00
  1.30000000E+00  1.30000000E+00  1.70000000E+00  1.30000000E+00  1.30000000E+00
  1.70000000E+00  1.30000000E+00  1.30000000E+00  1.30000000E+00  1.30000000E+00
  1.30000000E+00  1.70000000E+00  1.70000000E+00  1.30000000E+00  1.30000000E+00
  1.30000000E+00  1.70000000E+00  1.30000000E+00  1.30000000E+00  1.30000000E+00
  1.30000000E+00  1.80000000E+00  1.70000000E+00  1.70000000E+00  1.70000000E+00
  1.70000000E+00  1.70000000E+00  1.80000000E+00  1.70000000E+00  1.70000000E+00
  1.30000000E+00  1.70000000E+00  1.70000000E+00  1.70000000E+00  1.70000000E+00
  1.70000000E+00  1.30000000E+00  1.70000000E+00  1.70000000E+00  1.30000000E+00
  1.30000000E+00  1.70000000E+00  1.30000000E+00  1.30000000E+00  1.70000000E+00
  1.30000000E+00  1.30000000E+00  1.70000000E+00  1.30000000E+00  1.30000000E+00
  1.70000000E+00  1.70000000E+00  1.30000000E+00  1.30000000E+00  1.70000000E+00
  1.70000000E+00  1.70000000E+00  1.30000000E+00  1.30000000E+00  1.70000000E+00
  1.30000000E+00  1.70000000E+00  1.30000000E+00  1.70000000E+00  1.30000000E+00
  1.30000000E+00  1.70000000E+00  1.30000000E+00  1.30000000E+00  1.70000000E+00
  1.30000000E+00  1.30000000E+00  1.30000000E+00  1.30000000E+00  1.30000000E+00
  1.70000000E+00  1.70000000E+00  1.30000000E+00  1.30000000E+00  1.30000000E+00
  1.70000000E+00  1.30000000E+00  1.30000000E+00  1.30000000E+00  1.30000000E+00
  1.80000000E+00  1.70000000E+00  1.70000000E+00  1.70000000E+00  1.70000000E+00
  1.70000000E+00  1.80000000E+00  1.70000000E+00  1.70000000E+00  1.30000000E+00
  1.70000000E+00  1.70000000E+00  1.70000000E+00  1.70000000E+00  1.70000000E+00
  1.30000000E+00  1.70000000E+00  1.70000000E+00  1.30000000E+00  1.30000000E+00
  1.70000000E+00  1.30000000E+00  1.30000000E+00  1.70000000E+00  1.30000000E+00
  1.30000000E+00  1.70000000E+00  1.30000000E+00  1.30000000E+00  1.70000000E+00
  1.70000000E+00  1.30000000E+00  1.30000000E+00  1.70000000E+00  1.70000000E+00
  1.70000000E+00  1.30000000E+00  1.30000000E+00  1.70000000E+00  1.30000000E+00
  1.70000000E+00  1.30000000E+00  1.70000000E+00  1.30000000E+00  1.30000000E+00
  1.70000000E+00  1.30000000E+00  1.30000000E+00  1.70000000E+00  1.30000000E+00
  1.30000000E+00  1.30000000E+00  1.30000000E+00  1.30000000E+00  1.70000000E+00
  1.70000000E+00  1.30000000E+00  1.30000000E+00  1.30000000E+00  1.70000000E+00
  1.30000000E+00  1.30000000E+00  1.30000000E+00  1.30000000E+00  1.80000000E+00
  1.70000000E+00  1.70000000E+00  1.70000000E+00  1.70000000E+00  1.70000000E+00
  1.80000000E+00  1.70000000E+00  1.70000000E+00  1.30000000E+00  1.70000000E+00
  1.70000000E+00  1.70000000E+00  1.70000000E+00  1.70000000E+00  1.30000000E+00
  1.70000000E+00  1.70000000E+00  1.30000000E+00  1.30000000E+00  1.70000000E+00
  1.30000000E+00  1.30000000E+00  1.70000000E+00  1.30000000E+00  1.30000000E+00
  1.70000000E+00  1.30000000E+00  1.30000000E+00  1.70000000E+00  1.70000000E+00
  1.30000000E+00  1.30000000E+00  1.70000000E+00  1.70000000E+00  1.70000000E+00
  1.30000000E+00  1.30000000E+00  1.70000000E+00  1.30000000E+00  1.70000000E+00
  1.30000000E+00  1.70000000E+00  1.30000000E+00  1.30000000E+00  1.70000000E+00
  1.30000000E+00  1.30000000E+00  1.70000000E+00  1.30000000E+00  1.30000000E+00
  1.30000000E+00  1.30000000E+00  1.30000000E+00  1.70000000E+00  1.70000000E+00
  1.30000000E+00  1.30000000E+00  1.30000000E+00  1.70000000E+00  1.30000000E+00
  1.30000000E+00  1.30000000E+00  1.30000000E+00  1.80000000E+00  1.70000000E+00
  1.70000000E+00  1.70000000E+00  1.70000000E+00  1.70000000E+00  1.80000000E+00
  1.70000000E+00  1.70000000E+00  1.30000000E+00  1.70000000E+00  1.70000000E+00
  1.70000000E+00  1.70000000E+00  1.70000000E+00  1.30000000E+00  1.70000000E+00
  1.70000000E+00  1.30000000E+00  1.30000000E+00  1.70000000E+00  1.30000000E+00
  1.30000000E+00  1.70000000E+00  1.30000000E+00  1.30000000E+00  1.70000000E+00
  1.30000000E+00  1.30000000E+00  1.70000000E+00  1.70000000E+00  1.30000000E+00
  1.30000000E+00  1.70000000E+00  1.70000000E+00  1.70000000E+00  1.30000000E+00
  1.30000000E+00  1.70000000E+00  1.30000000E+00  1.70000000E+00  1.30000000E+00
  1.70000000E+00  1.30000000E+00  1.30000000E+00  1.70000000E+00  1.30000000E+00
  1.30000000E+00  1.70000000E+00  1.30000000E+00  1.30000000E+00  1.30000000E+00
  1.30000000E+00  1.30000000E+00  1.70000000E+00  1.70000000E+00  1.30000000E+00
  1.30000000E+00  1.30000000E+00  1.70000000E+00  1.30000000E+00  1.30000000E+00
  1.30000000E+00  1.30000000E+00  1.80000000E+00  1.70000000E+00  1.70000000E+00
  1.70000000E+00  1.70000000E+00  1.70000000E+00  1.80000000E+00  1.70000000E+00
  1.70000000E+00  1.30000000E+00  1.70000000E+00  1.70000000E+00  1.70000000E+00
  1.70000000E+00  1.70000000E+00  1.30000000E+00  1.70000000E+00  1.70000000E+00
  1.30000000E+00  1.30000000E+00  1.70000000E+00  1.30000000E+00  1.30000000E+00
  1.70000000E+00  1.30000000E+00  1.30000000E+00  1.70000000E+00  1.30000000E+00
  1.30000000E+00  1.70000000E+00  1.70000000E+00  1.30000000E+00  1.30000000E+00
  1.70000000E+00  1.70000000E+00  1.70000000E+00  1.30000000E+00  1.30000000E+00
  1.70000000E+00  1.30000000E+00  1.70000000E+00  1.30000000E+00  1.70000000E+00
  1.30000000E+00  1.30000000E+00  1.70000000E+00  1.30000000E+00  1.30000000E+00
  1.70000000E+00  1.30000000E+00  1.30000000E+00  1.30000000E+00  1.30000000E+00
  1.30000000E+00  1.70000000E+00  1.70000000E+00  1.30000000E+00  1.30000000E+00
  1.30000000E+00  1.70000000E+00  1.30000000E+00  1.30000000E+00  1.30000000E+00
  1.30000000E+00  1.80000000E+00  1.70000000E+00  1.70000000E+00  1.70000000E+00
  1.70000000E+00  1.70000000E+00  1.80000000E+00  1.70000000E+00  1.70000000E+00
  1.30000000E+00  1.70000000E+00  1.70000000E+00  1.70000000E+00  1.70000000E+00
  1.70000000E+00  1.30000000E+00  1.70000000E+00  1.70000000E+00  1.30000000E+00
  1.30000000E+00  1.70000000E+00  1.30000000E+00  1.30000000E+00  1.70000000E+00
  1.30000000E+00  1.30000000E+00  1.70000000E+00  1.30000000E+00  1.30000000E+00
  1.70000000E+00  1.70000000E+00  1.30000000E+00  1.30000000E+00  1.70000000E+00
  1.70000000E+00  1.70000000E+00  1.30000000E+00  1.30000000E+00  1.70000000E+00
  1.30000000E+00  1.70000000E+00  1.30000000E+00  1.70000000E+00  1.30000000E+00
  1.30000000E+00  1.70000000E+00  1.30000000E+00  1.30000000E+00  1.70000000E+00
  1.30000000E+00  1.30000000E+00  1.30000000E+00  1.30000000E+00  1.30000000E+00
  1.70000000E+00  1.70000000E+00  1.30000000E+00  1.30000000E+00  1.30000000E+00
  1.70000000E+00  1.30000000E+00  1.30000000E+00  1.30000000E+00  1.30000000E+00
  1.80000000E+00  1.70000000E+00  1.70000000E+00  1.70000000E+00  1.70000000E+00
  1.70000000E+00  1.80000000E+00  1.70000000E+00  1.70000000E+00  1.30000000E+00
  1.70000000E+00  1.70000000E+00  1.70000000E+00  1.70000000E+00  1.70000000E+00
  1.30000000E+00  1.70000000E+00  1.70000000E+00  1.30000000E+00  1.30000000E+00
  1.70000000E+00  1.30000000E+00  1.30000000E+00  1.70000000E+00  1.30000000E+00
  1.30000000E+00  1.70000000E+00  1.30000000E+00  1.30000000E+00  1.70000000E+00
  1.70000000E+00  1.30000000E+00  1.30000000E+00  1.70000000E+00  1.70000000E+00
  1.70000000E+00  1.30000000E+00  1.30000000E+00  1.70000000E+00  1.30000000E+00
  1.70000000E+00  1.30000000E+00  1.70000000E+00  1.30000000E+00  1.30000000E+00
  1.70000000E+00  1.30000000E+00  1.30000000E+00  1.70000000E+00  1.30000000E+00
  1.30000000E+00  1.30000000E+00  1.30000000E+00  1.30000000E+00  1.70000000E+00
  1.70000000E+00  1.30000000E+00  1.30000000E+00  1.30000000E+00  1.70000000E+00
  1.30000000E+00  1.30000000E+00  1.30000000E+00  1.30000000E+00  1.80000000E+00
  1.70000000E+00  1.70000000E+00  1.70000000E+00  1.70000000E+00  1.70000000E+00
  1.80000000E+00  1.70000000E+00  1.70000000E+00  1.30000000E+00  1.70000000E+00
  1.70000000E+00  1.70000000E+00  1.70000000E+00  1.70000000E+00  1.30000000E+00
  1.70000000E+00  1.70000000E+00  1.30000000E+00  1.30000000E+00  1.70000000E+00
  1.30000000E+00  1.30000000E+00  1.70000000E+00  1.30000000E+00  1.30000000E+00
  1.70000000E+00  1.30000000E+00  1.30000000E+00  1.70000000E+00  1.70000000E+00
  1.30000000E+00  1.30000000E+00  1.70000000E+00  1.70000000E+00  1.70000000E+00
  1.30000000E+00  1.30000000E+00  1.70000000E+00  1.30000000E+00  1.70000000E+00
  1.30000000E+00  1.70000000E+00  1.30000000E+00  1.30000000E+00  1.70000000E+00
  1.30000000E+00  1.30000000E+00  1.70000000E+00  1.30000000E+00  1.30000000E+00
  1.30000000E+00  1.30000000E+00  1.30000000E+00  1.70000000E+00  1.70000000E+00
  1.30000000E+00  1.30000000E+00  1.30000000E+00  1.70000000E+00  1.30000000E+00
  1.30000000E+00  1.30000000E+00  1.30000000E+00  1.80000000E+00  1.70000000E+00
  1.70000000E+00  1.70000000E+00  1.70000000E+00  1.70000000E+00  1.80000000E+00
  1.70000000E+00  1.70000000E+00  1.30000000E+00  1.70000000E+00  1.70000000E+00
  1.70000000E+00  1.70000000E+00  1.70000000E+00  1.30000000E+00  1.70000000E+00
  1.70000000E+00  1.30000000E+00  1.30000000E+00  1.70000000E+00  1.30000000E+00
  1.30000000E+00  1.70000000E+00  1.30000000E+00  1.30000000E+00  1.70000000E+00
  1.30000000E+00  1.30000000E+00  1.70000000E+00  1.70000000E+00  1.30000000E+00
  1.30000000E+00  1.70000000E+00  1.70000000E+00  1.70000000E+00  1.30000000E+00
  1.30000000E+00  1.70000000E+00  1.30000000E+00  1.70000000E+00  1.30000000E+00
  1.70000000E+00  1.30000000E+00  1.30000000E+00  1.70000000E+00  1.30000000E+00
  1.30000000E+00  1.70000000E+00  1.30000000E+00  1.30000000E+00  1.30000000E+00
  1.30000000E+00  1.30000000E+00  1.70000000E+00  1.70000000E+00  1.30000000E+00
  1.30000000E+00  1.30000000E+00  1.70000000E+00  1.30000000E+00  1.30000000E+00
  1.30000000E+00  1.30000000E+00  1.80000000E+00  1.70000000E+00  1.70000000E+00
  1.70000000E+00  1.70000000E+00  1.70000000E+00  1.80000000E+00  1.70000000E+00
  1.70000000E+00  1.30000000E+00  1.70000000E+00  1.70000000E+00  1.70000000E+00
  1.70000000E+00  1.70000000E+00  1.30000000E+00  1.70000000E+00  1.70000000E+00
  1.30000000E+00  1.30000000E+00  1.70000000E+00  1.30000000E+00  1.30000000E+00
  1.70000000E+00  1.30000000E+00  1.30000000E+00  1.70000000E+00  1.30000000E+00
  1.30000000E+00  1.70000000E+00  1.70000000E+00  1.30000000E+00  1.30000000E+00
  1.70000000E+00  1.70000000E+00  1.70000000E+00  1.30000000E+00  1.30000000E+00
  1.70000000E+00  1.30000000E+00  1.70000000E+00  1.30000000E+00  1.70000000E+00
  1.30000000E+00  1.30000000E+00  1.70000000E+00  1.30000000E+00  1.30000000E+00
  1.70000000E+00  1.30000000E+00  1.30000000E+00  1.30000000E+00  1.30000000E+00
  1.30000000E+00  1.70000000E+00  1.70000000E+00  1.30000000E+00  1.30000000E+00
  1.30000000E+00  1.70000000E+00  1.30000000E+00  1.30000000E+00  1.30000000E+00
  1.30000000E+00  1.80000000E+00  1.70000000E+00  1.70000000E+00  1.70000000E+00
  1.70000000E+00  1.70000000E+00  1.80000000E+00  1.70000000E+00  1.70000000E+00
  1.30000000E+00  1.70000000E+00  1.70000000E+00  1.70000000E+00  1.70000000E+00
  1.70000000E+00  1.30000000E+00  1.70000000E+00  1.70000000E+00  1.30000000E+00
  1.30000000E+00  1.70000000E+00  1.30000000E+00  1.30000000E+00  1.70000000E+00
  1.30000000E+00  1.30000000E+00  1.70000000E+00  1.30000000E+00  1.30000000E+00
  1.70000000E+00  1.70000000E+00  1.30000000E+00  1.30000000E+00  1.70000000E+00
  1.70000000E+00  1.70000000E+00  1.30000000E+00  1.30000000E+00  1.70000000E+00
  1.30000000E+00  1.70000000E+00  1.30000000E+00  1.70000000E+00  1.30000000E+00
  1.30000000E+00  1.70000000E+00  1.30000000E+00  1.30000000E+00  1.70000000E+00
  1.30000000E+00  1.30000000E+00  1.30000000E+00  1.30000000E+00  1.30000000E+00
  1.70000000E+00  1.70000000E+00  1.30000000E+00  1.30000000E+00  1.30000000E+00
  1.70000000E+00  1.30000000E+00  1.30000000E+00  1.30000000E+00  1.30000000E+00
  1.80000000E+00  1.70000000E+00  1.70000000E+00  1.70000000E+00  1.70000000E+00
  1.70000000E+00  1.80000000E+00  1.70000000E+00  1.70000000E+00  1.30000000E+00
  1.70000000E+00  1.70000000E+00  1.70000000E+00  1.70000000E+00  1.70000000E+00
  1.30000000E+00  1.70000000E+00  1.70000000E+00  1.30000000E+00  1.30000000E+00
  1.70000000E+00  1.30000000E+00  1.30000000E+00  1.70000000E+00  1.30000000E+00
  1.30000000E+00  1.70000000E+00  1.30000000E+00  1.30000000E+00  1.70000000E+00
  1.70000000E+00  1.30000000E+00  1.30000000E+00  1.70000000E+00  1.70000000E+00
  1.70000000E+00  1.30000000E+00  1.30000000E+00  1.70000000E+00  1.30000000E+00
  1.70000000E+00  1.30000000E+00  1.70000000E+00  1.30000000E+00  1.30000000E+00
  1.70000000E+00  1.30000000E+00  1.30000000E+00  1.70000000E+00  1.30000000E+00
  1.30000000E+00  1.30000000E+00  1.30000000E+00  1.30000000E+00  1.70000000E+00
  1.70000000E+00  1.30000000E+00  1.30000000E+00  1.30000000E+00  1.70000000E+00
  1.30000000E+00  1.30000000E+00  1.30000000E+00  1.30000000E+00  1.80000000E+00
  1.70000000E+00  1.70000000E+00  1.70000000E+00  1.70000000E+00  1.70000000E+00
  1.80000000E+00  1.70000000E+00  1.70000000E+00  1.30000000E+00  1.70000000E+00
  1.70000000E+00  1.70000000E+00  1.70000000E+00  1.70000000E+00  1.30000000E+00
  1.70000000E+00  1.70000000E+00  1.30000000E+00  1.30000000E+00  1.70000000E+00
  1.30000000E+00  1.30000000E+00  1.70000000E+00  1.30000000E+00  1.30000000E+00
  1.70000000E+00  1.30000000E+00  1.30000000E+00  1.70000000E+00  1.70000000E+00
  1.30000000E+00  1.30000000E+00  1.70000000E+00  1.70000000E+00  1.70000000E+00
  1.30000000E+00  1.30000000E+00  1.70000000E+00  1.30000000E+00  1.70000000E+00
  1.30000000E+00  1.70000000E+00  1.30000000E+00  1.30000000E+00  1.70000000E+00
  1.30000000E+00  1.30000000E+00  1.70000000E+00  1.30000000E+00  1.30000000E+00
  1.30000000E+00  1.30000000E+00  1.30000000E+00  1.70000000E+00  1.70000000E+00
  1.30000000E+00  1.30000000E+00  1.30000000E+00  1.70000000E+00  1.30000000E+00
  1.30000000E+00  1.30000000E+00  1.30000000E+00  1.80000000E+00  1.70000000E+00
  1.70000000E+00  1.70000000E+00  1.70000000E+00  1.70000000E+00  1.80000000E+00
  1.70000000E+00  1.70000000E+00  1.30000000E+00  1.70000000E+00  1.70000000E+00
  1.70000000E+00  1.70000000E+00  1.70000000E+00  1.30000000E+00  1.70000000E+00
  1.70000000E+00  1.30000000E+00  1.30000000E+00  1.70000000E+00  1.30000000E+00
  1.30000000E+00  1.70000000E+00  1.30000000E+00  1.30000000E+00  1.70000000E+00
  1.30000000E+00  1.30000000E+00  1.70000000E+00  1.70000000E+00  1.30000000E+00
  1.30000000E+00  1.70000000E+00  1.70000000E+00  1.70000000E+00  1.30000000E+00
  1.30000000E+00  1.70000000E+00  1.30000000E+00  1.70000000E+00  1.30000000E+00
  1.70000000E+00  1.30000000E+00  1.30000000E+00  1.70000000E+00  1.30000000E+00
  1.30000000E+00  1.70000000E+00  1.30000000E+00  1.30000000E+00  1.30000000E+00
  1.30000000E+00  1.30000000E+00  1.70000000E+00  1.70000000E+00  1.30000000E+00
  1.30000000E+00  1.30000000E+00  1.70000000E+00  1.30000000E+00  1.30000000E+00
  1.30000000E+00  1.30000000E+00  1.80000000E+00  1.70000000E+00  1.70000000E+00
  1.70000000E+00  1.70000000E+00  1.70000000E+00  1.80000000E+00  1.70000000E+00
  1.70000000E+00  1.30000000E+00  1.70000000E+00  1.70000000E+00  1.70000000E+00
  1.70000000E+00  1.70000000E+00  1.30000000E+00  1.70000000E+00  1.70000000E+00
  1.30000000E+00  1.30000000E+00  1.70000000E+00  1.30000000E+00  1.30000000E+00
  1.70000000E+00  1.30000000E+00  1.30000000E+00  1.70000000E+00  1.30000000E+00
  1.30000000E+00  1.70000000E+00  1.70000000E+00  1.30000000E+00  1.30000000E+00
  1.70000000E+00  1.70000000E+00  1.70000000E+00  1.30000000E+00  1.30000000E+00
  1.70000000E+00  1.30000000E+00  1.70000000E+00  1.30000000E+00  1.70000000E+00
  1.30000000E+00  1.30000000E+00  1.70000000E+00  1.30000000E+00  1.30000000E+00
  1.70000000E+00  1.30000000E+00  1.30000000E+00  1.30000000E+00  1.30000000E+00
  1.30000000E+00  1.70000000E+00  1.70000000E+00  1.30000000E+00  1.30000000E+00
  1.30000000E+00  1.70000000E+00  1.30000000E+00  1.30000000E+00  1.30000000E+00
  1.30000000E+00  1.80000000E+00  1.70000000E+00  1.70000000E+00  1.70000000E+00
  1.70000000E+00  1.70000000E+00  1.80000000E+00  1.70000000E+00  1.70000000E+00
  1.30000000E+00  1.70000000E+00  1.70000000E+00  1.70000000E+00  1.70000000E+00
  1.70000000E+00  1.30000000E+00  1.70000000E+00  1.70000000E+00  1.30000000E+00
  1.30000000E+00  1.70000000E+00  1.30000000E+00  1.30000000E+00  1.70000000E+00
  1.30000000E+00  1.30000000E+00  1.70000000E+00  1.30000000E+00  1.30000000E+00
  1.70000000E+00  1.70000000E+00  1.30000000E+00  1.30000000E+00  1.70000000E+00
  1.70000000E+00  1.70000000E+00  1.30000000E+00  1.30000000E+00  1.70000000E+00
  1.30000000E+00  1.70000000E+00  1.30000000E+00  1.70000000E+00  1.30000000E+00
  1.30000000E+00  1.70000000E+00  1.30000000E+00  1.30000000E+00  1.70000000E+00
  1.30000000E+00  1.30000000E+00  1.30000000E+00  1.30000000E+00  1.30000000E+00
  1.70000000E+00  1.70000000E+00  1.30000000E+00  1.30000000E+00  1.30000000E+00
  1.70000000E+00  1.30000000E+00  1.30000000E+00  1.30000000E+00  1.30000000E+00
  1.80000000E+00  1.70000000E+00  1.70000000E+00  1.70000000E+00  1.70000000E+00
  1.70000000E+00  1.80000000E+00  1.70000000E+00  1.70000000E+00  1.30000000E+00
  1.70000000E+00  1.70000000E+00  1.70000000E+00  1.70000000E+00  1.70000000E+00
  1.30000000E+00  1.70000000E+00  1.70000000E+00  1.30000000E+00  1.30000000E+00
  1.70000000E+00  1.30000000E+00  1.30000000E+00  1.70000000E+00  1.30000000E+00
  1.30000000E+00  1.70000000E+00  1.30000000E+00  1.30000000E+00  1.70000000E+00
  1.70000000E+00  1.30000000E+00  1.30000000E+00  1.70000000E+00  1.70000000E+00
  1.70000000E+00  1.30000000E+00  1.30000000E+00  1.70000000E+00  1.30000000E+00
  1.70000000E+00  1.30000000E+00  1.70000000E+00  1.30000000E+00  1.30000000E+00
  1.70000000E+00  1.30000000E+00  1.30000000E+00  1.70000000E+00  1.30000000E+00
  1.30000000E+00  1.30000000E+00  1.30000000E+00  1.30000000E+00  1.70000000E+00
  1.70000000E+00  1.30000000E+00  1.30000000E+00  1.30000000E+00  1.70000000E+00
  1.30000000E+00  1.30000000E+00  1.30000000E+00  1.30000000E+00  1.80000000E+00
  1.70000000E+00  1.70000000E+00  1.70000000E+00  1.70000000E+00  1.70000000E+00
  1.80000000E+00  1.70000000E+00  1.70000000E+00  1.30000000E+00  1.70000000E+00
  1.70000000E+00  1.70000000E+00  1.70000000E+00  1.70000000E+00  1.30000000E+00
  1.70000000E+00  1.70000000E+00  1.30000000E+00  1.30000000E+00  1.70000000E+00
  1.30000000E+00  1.30000000E+00  1.70000000E+00  1.30000000E+00  1.30000000E+00
  1.70000000E+00  1.30000000E+00  1.30000000E+00  1.70000000E+00  1.70000000E+00
  1.30000000E+00  1.30000000E+00  1.70000000E+00  1.70000000E+00  1.70000000E+00
  1.30000000E+00  1.30000000E+00  1.70000000E+00  1.30000000E+00  1.70000000E+00
  1.30000000E+00  1.70000000E+00  1.30000000E+00  1.30000000E+00  1.70000000E+00
  1.30000000E+00  1.30000000E+00  1.70000000E+00  1.30000000E+00  1.30000000E+00
  1.30000000E+00  1.30000000E+00  1.30000000E+00  1.70000000E+00  1.70000000E+00
  1.30000000E+00  1.30000000E+00  1.30000000E+00  1.70000000E+00  1.30000000E+00
  1.30000000E+00  1.30000000E+00  1.30000000E+00  1.80000000E+00  1.70000000E+00
  1.70000000E+00  1.70000000E+00  1.70000000E+00  1.70000000E+00  1.80000000E+00
  1.70000000E+00  1.70000000E+00  1.30000000E+00  1.70000000E+00  1.70000000E+00
  1.70000000E+00  1.70000000E+00  1.70000000E+00  1.30000000E+00  1.70000000E+00
  1.70000000E+00  1.30000000E+00  1.30000000E+00  1.70000000E+00  1.30000000E+00
  1.30000000E+00  1.70000000E+00  1.30000000E+00  1.30000000E+00  1.70000000E+00
  1.30000000E+00  1.30000000E+00  1.70000000E+00  1.70000000E+00  1.30000000E+00
  1.30000000E+00  1.70000000E+00  1.70000000E+00  1.70000000E+00  1.30000000E+00
  1.30000000E+00  1.70000000E+00  1.30000000E+00  1.70000000E+00  1.30000000E+00
  1.70000000E+00  1.30000000E+00  1.30000000E+00  1.70000000E+00  1.30000000E+00
  1.30000000E+00  1.70000000E+00  1.30000000E+00  1.30000000E+00  1.30000000E+00
  1.30000000E+00  1.30000000E+00  1.70000000E+00  1.70000000E+00  1.30000000E+00
  1.30000000E+00  1.30000000E+00  1.70000000E+00  1.30000000E+00  1.30000000E+00
  1.30000000E+00  1.30000000E+00  1.80000000E+00  1.70000000E+00  1.70000000E+00
  1.70000000E+00  1.70000000E+00  1.70000000E+00  1.80000000E+00  1.70000000E+00
  1.70000000E+00  1.30000000E+00  1.70000000E+00  1.70000000E+00  1.70000000E+00
  1.70000000E+00  1.70000000E+00  1.30000000E+00  1.70000000E+00  1.70000000E+00
  1.30000000E+00  1.30000000E+00  1.70000000E+00  1.30000000E+00  1.30000000E+00
  1.70000000E+00  1.30000000E+00  1.30000000E+00  1.70000000E+00  1.30000000E+00
  1.30000000E+00  1.70000000E+00  1.70000000E+00  1.30000000E+00  1.30000000E+00
  1.70000000E+00  1.70000000E+00  1.70000000E+00  1.30000000E+00  1.30000000E+00
  1.70000000E+00  1.30000000E+00  1.70000000E+00  1.30000000E+00  1.70000000E+00
  1.30000000E+00  1.30000000E+00  1.70000000E+00  1.30000000E+00  1.30000000E+00
  1.70000000E+00  1.30000000E+00  1.30000000E+00  1.30000000E+00  1.30000000E+00
  1.30000000E+00  1.70000000E+00  1.70000000E+00  1.30000000E+00  1.30000000E+00
  1.30000000E+00  1.70000000E+00  1.30000000E+00  1.30000000E+00  1.30000000E+00
  1.30000000E+00  1.80000000E+00  1.70000000E+00  1.70000000E+00  1.70000000E+00
  1.70000000E+00  1.70000000E+00  1.80000000E+00  1.70000000E+00  1.70000000E+00
  1.30000000E+00  1.70000000E+00  1.70000000E+00  1.70000000E+00  1.70000000E+00
  1.70000000E+00  1.30000000E+00  1.70000000E+00  1.70000000E+00  1.30000000E+00
  1.30000000E+00  1.70000000E+00  1.30000000E+00  1.30000000E+00  1.70000000E+00
  1.30000000E+00  1.30000000E+00  1.70000000E+00  1.30000000E+00  1.30000000E+00
  1.70000000E+00  1.70000000E+00  1.30000000E+00  1.30000000E+00  1.70000000E+00
  1.70000000E+00  1.70000000E+00  1.30000000E+00  1.30000000E+00  1.70000000E+00
  1.30000000E+00  1.70000000E+00  1.30000000E+00  1.70000000E+00  1.30000000E+00
  1.30000000E+00  1.70000000E+00  1.30000000E+00  1.30000000E+00  1.70000000E+00
  1.30000000E+00  1.30000000E+00  1.30000000E+00  1.30000000E+00  1.30000000E+00
  1.70000000E+00  1.70000000E+00  1.30000000E+00  1.30000000E+00  1.30000000E+00
  1.70000000E+00  1.30000000E+00  1.30000000E+00  1.30000000E+00  1.30000000E+00
  1.80000000E+00  1.70000000E+00  1.70000000E+00  1.70000000E+00  1.70000000E+00
  1.70000000E+00  1.80000000E+00  1.70000000E+00  1.70000000E+00  1.30000000E+00
  1.70000000E+00  1.70000000E+00  1.70000000E+00  1.70000000E+00  1.70000000E+00
  1.30000000E+00  1.70000000E+00  1.70000000E+00  1.30000000E+00  1.30000000E+00
  1.70000000E+00  1.30000000E+00  1.30000000E+00  1.70000000E+00  1.30000000E+00
  1.30000000E+00  1.70000000E+00  1.30000000E+00  1.30000000E+00  1.70000000E+00
  1.70000000E+00  1.30000000E+00  1.30000000E+00  1.70000000E+00  1.70000000E+00
  1.70000000E+00  1.30000000E+00  1.30000000E+00  1.70000000E+00  1.30000000E+00
  1.70000000E+00  1.30000000E+00  1.70000000E+00  1.30000000E+00  1.30000000E+00
  1.70000000E+00  1.30000000E+00  1.30000000E+00  1.70000000E+00  1.30000000E+00
  1.30000000E+00  1.30000000E+00  1.30000000E+00  1.30000000E+00  1.70000000E+00
  1.70000000E+00  1.30000000E+00  1.30000000E+00  1.30000000E+00  1.70000000E+00
  1.30000000E+00  1.30000000E+00  1.30000000E+00  1.30000000E+00  1.80000000E+00
  1.70000000E+00  1.70000000E+00  1.70000000E+00  1.70000000E+00  1.70000000E+00
  1.80000000E+00  1.70000000E+00  1.70000000E+00  1.30000000E+00  1.70000000E+00
  1.70000000E+00  1.70000000E+00  1.70000000E+00  1.70000000E+00  1.30000000E+00
  1.70000000E+00  1.70000000E+00  1.30000000E+00  1.30000000E+00  1.70000000E+00
  1.30000000E+00  1.30000000E+00  1.70000000E+00  1.30000000E+00  1.30000000E+00
  1.70000000E+00  1.30000000E+00  1.30000000E+00  1.70000000E+00  1.70000000E+00
  1.30000000E+00  1.30000000E+00  1.70000000E+00  1.70000000E+00  1.70000000E+00
  1.30000000E+00  1.30000000E+00  1.70000000E+00  1.30000000E+00  1.70000000E+00
  1.30000000E+00  1.70000000E+00  1.30000000E+00  1.30000000E+00  1.70000000E+00
  1.30000000E+00  1.30000000E+00  1.70000000E+00  1.30000000E+00  1.30000000E+00
  1.30000000E+00  1.30000000E+00  1.30000000E+00  1.70000000E+00  1.70000000E+00
  1.30000000E+00  1.30000000E+00  1.30000000E+00  1.70000000E+00  1.30000000E+00
  1.30000000E+00  1.30000000E+00  1.30000000E+00  1.80000000E+00  1.70000000E+00
  1.70000000E+00  1.70000000E+00  1.70000000E+00  1.70000000E+00  1.80000000E+00
  1.70000000E+00  1.70000000E+00  1.30000000E+00  1.70000000E+00  1.70000000E+00
  1.70000000E+00  1.70000000E+00  1.70000000E+00  1.30000000E+00  1.70000000E+00
  1.70000000E+00  1.30000000E+00  1.30000000E+00  1.70000000E+00  1.30000000E+00
  1.30000000E+00  1.70000000E+00  1.30000000E+00  1.30000000E+00  1.70000000E+00
  1.30000000E+00  1.30000000E+00  1.70000000E+00  1.70000000E+00  1.30000000E+00
  1.30000000E+00  1.70000000E+00  1.70000000E+00  1.70000000E+00  1.30000000E+00
  1.30000000E+00  1.70000000E+00  1.30000000E+00  1.70000000E+00  1.30000000E+00
  1.70000000E+00  1.30000000E+00  1.30000000E+00  1.70000000E+00  1.30000000E+00
  1.30000000E+00  1.70000000E+00  1.30000000E+00  1.30000000E+00  1.30000000E+00
  1.30000000E+00  1.30000000E+00  1.70000000E+00  1.70000000E+00  1.30000000E+00
  1.30000000E+00  1.30000000E+00  1.70000000E+00  1.30000000E+00  1.30000000E+00
  1.30000000E+00  1.30000000E+00  1.80000000E+00  1.70000000E+00  1.70000000E+00
  1.70000000E+00  1.70000000E+00  1.70000000E+00  1.80000000E+00  1.70000000E+00
  1.70000000E+00  1.30000000E+00  1.70000000E+00  1.70000000E+00  1.70000000E+00
  1.70000000E+00  1.70000000E+00  1.30000000E+00  1.70000000E+00  1.70000000E+00
  1.30000000E+00  1.30000000E+00  1.70000000E+00  1.30000000E+00  1.30000000E+00
  1.70000000E+00  1.30000000E+00  1.30000000E+00  1.70000000E+00  1.30000000E+00
  1.30000000E+00  1.70000000E+00  1.70000000E+00  1.30000000E+00  1.30000000E+00
  1.70000000E+00  1.70000000E+00  1.70000000E+00  1.30000000E+00  1.30000000E+00
  1.70000000E+00  1.30000000E+00  1.70000000E+00  1.30000000E+00  1.70000000E+00
  1.30000000E+00  1.30000000E+00  1.70000000E+00  1.30000000E+00  1.30000000E+00
  1.70000000E+00  1.30000000E+00  1.30000000E+00  1.30000000E+00  1.30000000E+00
  1.30000000E+00  1.70000000E+00  1.70000000E+00  1.30000000E+00  1.30000000E+00
  1.30000000E+00  1.70000000E+00  1.30000000E+00  1.30000000E+00  1.30000000E+00
  1.30000000E+00  1.80000000E+00  1.70000000E+00  1.70000000E+00  1.70000000E+00
  1.70000000E+00  1.70000000E+00  1.80000000E+00  1.70000000E+00  1.70000000E+00
  1.30000000E+00  1.70000000E+00  1.70000000E+00  1.70000000E+00  1.70000000E+00
  1.70000000E+00  1.30000000E+00  1.70000000E+00  1.70000000E+00  1.30000000E+00
  1.30000000E+00  1.70000000E+00  1.30000000E+00  1.30000000E+00  1.70000000E+00
  1.30000000E+00  1.30000000E+00  1.70000000E+00  1.30000000E+00  1.30000000E+00
  1.70000000E+00  1.70000000E+00  1.30000000E+00  1.30000000E+00  1.70000000E+00
  1.70000000E+00  1.70000000E+00  1.30000000E+00  1.30000000E+00  1.70000000E+00
  1.30000000E+00  1.70000000E+00  1.30000000E+00  1.70000000E+00  1.30000000E+00
  1.30000000E+00  1.70000000E+00  1.30000000E+00  1.30000000E+00  1.70000000E+00
  1.30000000E+00  1.30000000E+00  1.30000000E+00  1.30000000E+00  1.30000000E+00
  1.70000000E+00  1.70000000E+00  1.30000000E+00  1.30000000E+00  1.30000000E+00
  1.70000000E+00  1.30000000E+00  1.30000000E+00  1.30000000E+00  1.30000000E+00
  1.80000000E+00  1.70000000E+00  1.70000000E+00  1.70000000E+00  1.70000000E+00
  1.70000000E+00  1.80000000E+00  1.70000000E+00  1.70000000E+00  1.30000000E+00
  1.70000000E+00  1.70000000E+00  1.70000000E+00  1.70000000E+00  1.70000000E+00
  1.30000000E+00  1.70000000E+00  1.70000000E+00  1.30000000E+00  1.30000000E+00
  1.70000000E+00  1.30000000E+00  1.30000000E+00  1.70000000E+00  1.30000000E+00
  1.30000000E+00  1.70000000E+00  1.30000000E+00  1.30000000E+00  1.70000000E+00
  1.70000000E+00  1.30000000E+00  1.30000000E+00  1.70000000E+00  1.70000000E+00
  1.70000000E+00  1.30000000E+00  1.30000000E+00  1.70000000E+00  1.30000000E+00
  1.70000000E+00  1.30000000E+00  1.70000000E+00  1.30000000E+00  1.30000000E+00
  1.70000000E+00  1.30000000E+00  1.30000000E+00  1.70000000E+00  1.30000000E+00
  1.30000000E+00  1.30000000E+00  1.30000000E+00  1.30000000E+00  1.70000000E+00
  1.70000000E+00  1.30000000E+00  1.30000000E+00  1.30000000E+00  1.70000000E+00
  1.30000000E+00  1.30000000E+00  1.30000000E+00  1.30000000E+00  1.80000000E+00
  1.70000000E+00  1.70000000E+00  1.70000000E+00  1.70000000E+00  1.70000000E+00
  1.80000000E+00  1.70000000E+00  1.70000000E+00  1.30000000E+00  1.70000000E+00
  1.70000000E+00  1.70000000E+00  1.70000000E+00  1.70000000E+00  1.30000000E+00
  1.70000000E+00  1.70000000E+00  1.30000000E+00  1.30000000E+00  1.70000000E+00
  1.30000000E+00  1.30000000E+00  1.70000000E+00  1.30000000E+00  1.30000000E+00
  1.70000000E+00  1.30000000E+00  1.30000000E+00  1.70000000E+00  1.70000000E+00
  1.30000000E+00  1.30000000E+00  1.70000000E+00  1.70000000E+00  1.70000000E+00
  1.30000000E+00  1.30000000E+00  1.70000000E+00  1.30000000E+00  1.70000000E+00
  1.30000000E+00  1.70000000E+00  1.30000000E+00  1.30000000E+00  1.70000000E+00
  1.30000000E+00  1.30000000E+00  1.70000000E+00  1.30000000E+00  1.30000000E+00
  1.30000000E+00  1.30000000E+00  1.30000000E+00  1.70000000E+00  1.70000000E+00
  1.30000000E+00  1.30000000E+00  1.30000000E+00  1.70000000E+00  1.30000000E+00
  1.30000000E+00  1.30000000E+00  1.30000000E+00  1.80000000E+00  1.70000000E+00
  1.70000000E+00  1.70000000E+00  1.70000000E+00  1.70000000E+00  1.80000000E+00
  1.70000000E+00  1.70000000E+00  1.30000000E+00  1.70000000E+00  1.70000000E+00
  1.70000000E+00  1.70000000E+00  1.70000000E+00  1.30000000E+00  1.70000000E+00
  1.70000000E+00  1.30000000E+00  1.30000000E+00  1.70000000E+00  1.30000000E+00
  1.30000000E+00  1.70000000E+00  1.30000000E+00  1.30000000E+00  1.70000000E+00
  1.30000000E+00  1.30000000E+00  1.70000000E+00  1.70000000E+00  1.30000000E+00
  1.30000000E+00  1.70000000E+00  1.70000000E+00  1.70000000E+00  1.30000000E+00
  1.30000000E+00  1.70000000E+00  1.30000000E+00  1.70000000E+00  1.30000000E+00
  1.70000000E+00  1.30000000E+00  1.30000000E+00  1.70000000E+00  1.30000000E+00
  1.30000000E+00  1.70000000E+00  1.30000000E+00  1.30000000E+00  1.30000000E+00
  1.30000000E+00  1.30000000E+00  1.70000000E+00  1.70000000E+00  1.30000000E+00
  1.30000000E+00  1.30000000E+00  1.70000000E+00  1.30000000E+00  1.30000000E+00
  1.30000000E+00  1.30000000E+00  1.80000000E+00  1.70000000E+00  1.70000000E+00
  1.70000000E+00  1.70000000E+00  1.70000000E+00  1.80000000E+00  1.70000000E+00
  1.70000000E+00  1.30000000E+00  1.70000000E+00  1.70000000E+00  1.70000000E+00
  1.70000000E+00  1.70000000E+00  1.30000000E+00  1.70000000E+00  1.70000000E+00
  1.30000000E+00  1.30000000E+00  1.70000000E+00  1.30000000E+00  1.30000000E+00
  1.70000000E+00  1.30000000E+00  1.30000000E+00  1.70000000E+00  1.30000000E+00
  1.30000000E+00  1.70000000E+00  1.70000000E+00  1.30000000E+00  1.30000000E+00
  1.70000000E+00  1.70000000E+00  1.70000000E+00  1.30000000E+00  1.30000000E+00
  1.70000000E+00  1.30000000E+00  1.70000000E+00  1.30000000E+00  1.70000000E+00
  1.30000000E+00  1.30000000E+00  1.70000000E+00  1.30000000E+00  1.30000000E+00
  1.70000000E+00  1.30000000E+00  1.30000000E+00  1.30000000E+00  1.30000000E+00
  1.30000000E+00  1.70000000E+00  1.70000000E+00  1.30000000E+00  1.30000000E+00
  1.30000000E+00  1.70000000E+00  1.30000000E+00  1.30000000E+00  1.30000000E+00
  1.30000000E+00  1.80000000E+00  1.70000000E+00  1.70000000E+00  1.70000000E+00
  1.70000000E+00  1.70000000E+00  1.80000000E+00  1.70000000E+00  1.70000000E+00
  1.30000000E+00  1.70000000E+00  1.70000000E+00  1.70000000E+00  1.70000000E+00
  1.70000000E+00  1.30000000E+00  1.70000000E+00  1.70000000E+00  1.30000000E+00
  1.30000000E+00  1.70000000E+00  1.30000000E+00  1.30000000E+00  1.70000000E+00
  1.30000000E+00  1.30000000E+00  1.70000000E+00  1.30000000E+00  1.30000000E+00
  1.70000000E+00  1.70000000E+00  1.30000000E+00  1.30000000E+00  1.70000000E+00
  1.70000000E+00  1.70000000E+00  1.30000000E+00  1.30000000E+00  1.70000000E+00
  1.30000000E+00  1.70000000E+00  1.30000000E+00  1.70000000E+00  1.30000000E+00
  1.30000000E+00  1.70000000E+00  1.30000000E+00  1.30000000E+00  1.70000000E+00
  1.30000000E+00  1.30000000E+00  1.30000000E+00  1.30000000E+00  1.30000000E+00
  1.70000000E+00  1.70000000E+00  1.30000000E+00  1.30000000E+00  1.30000000E+00
  1.70000000E+00  1.30000000E+00  1.30000000E+00  1.30000000E+00  1.30000000E+00
  1.80000000E+00  1.70000000E+00  1.70000000E+00  1.70000000E+00  1.70000000E+00
  1.70000000E+00  1.80000000E+00  1.70000000E+00  1.70000000E+00  1.30000000E+00
  1.70000000E+00  1.70000000E+00  1.70000000E+00  1.70000000E+00  1.70000000E+00
  1.30000000E+00  1.70000000E+00  1.70000000E+00  1.30000000E+00  1.30000000E+00
  1.70000000E+00  1.30000000E+00  1.30000000E+00  1.70000000E+00  1.30000000E+00
  1.30000000E+00  1.70000000E+00  1.30000000E+00  1.30000000E+00  1.70000000E+00
  1.70000000E+00  1.30000000E+00  1.30000000E+00  1.70000000E+00  1.70000000E+00
  1.70000000E+00  1.30000000E+00  1.30000000E+00  1.70000000E+00  1.30000000E+00
  1.70000000E+00  1.30000000E+00  1.70000000E+00  1.30000000E+00  1.30000000E+00
  1.70000000E+00  1.30000000E+00  1.30000000E+00  1.70000000E+00  1.30000000E+00
  1.30000000E+00  1.30000000E+00  1.30000000E+00  1.30000000E+00  1.70000000E+00
  1.70000000E+00  1.30000000E+00  1.30000000E+00  1.30000000E+00  1.70000000E+00
  1.30000000E+00  1.30000000E+00  1.30000000E+00  1.30000000E+00  1.80000000E+00
  1.70000000E+00  1.70000000E+00  1.70000000E+00  1.70000000E+00  1.70000000E+00
  1.80000000E+00  1.70000000E+00  1.70000000E+00  1.30000000E+00  1.70000000E+00
  1.70000000E+00  1.70000000E+00  1.70000000E+00  1.70000000E+00  1.30000000E+00
  1.70000000E+00  1.70000000E+00  1.30000000E+00  1.30000000E+00  1.70000000E+00
  1.30000000E+00  1.30000000E+00  1.70000000E+00  1.30000000E+00  1.30000000E+00
  1.70000000E+00  1.30000000E+00  1.30000000E+00  1.70000000E+00  1.70000000E+00
  1.30000000E+00  1.30000000E+00  1.70000000E+00  1.70000000E+00  1.70000000E+00
  1.30000000E+00  1.30000000E+00  1.70000000E+00  1.30000000E+00  1.70000000E+00
  1.30000000E+00  1.70000000E+00  1.30000000E+00  1.30000000E+00  1.70000000E+00
  1.30000000E+00  1.30000000E+00  1.70000000E+00  1.30000000E+00  1.30000000E+00
  1.30000000E+00  1.30000000E+00  1.30000000E+00  1.70000000E+00  1.70000000E+00
  1.30000000E+00  1.30000000E+00  1.30000000E+00  1.70000000E+00  1.30000000E+00
  1.30000000E+00  1.30000000E+00  1.30000000E+00  1.80000000E+00  1.70000000E+00
  1.70000000E+00  1.70000000E+00  1.70000000E+00  1.70000000E+00  1.80000000E+00
  1.70000000E+00  1.70000000E+00  1.30000000E+00  1.70000000E+00  1.70000000E+00
  1.70000000E+00  1.70000000E+00  1.70000000E+00  1.30000000E+00  1.70000000E+00
  1.70000000E+00  1.30000000E+00  1.30000000E+00  1.70000000E+00  1.30000000E+00
  1.30000000E+00  1.70000000E+00  1.30000000E+00  1.30000000E+00  1.70000000E+00
  1.30000000E+00  1.30000000E+00  1.70000000E+00  1.70000000E+00  1.30000000E+00
  1.30000000E+00  1.70000000E+00  1.70000000E+00  1.70000000E+00  1.30000000E+00
  1.30000000E+00  1.70000000E+00  1.30000000E+00  1.70000000E+00  1.30000000E+00
  1.70000000E+00  1.30000000E+00  1.30000000E+00  1.70000000E+00  1.30000000E+00
  1.30000000E+00  1.70000000E+00  1.30000000E+00  1.30000000E+00  1.30000000E+00
  1.30000000E+00  1.30000000E+00  1.70000000E+00  1.70000000E+00  1.30000000E+00
  1.30000000E+00  1.30000000E+00  1.70000000E+00  1.30000000E+00  1.30000000E+00
  1.30000000E+00  1.30000000E+00  1.80000000E+00  1.70000000E+00  1.70000000E+00
  1.70000000E+00  1.70000000E+00  1.70000000E+00  1.80000000E+00  1.70000000E+00
  1.70000000E+00  1.30000000E+00  1.70000000E+00  1.70000000E+00  1.70000000E+00
  1.70000000E+00  1.70000000E+00  1.30000000E+00  1.70000000E+00  1.70000000E+00
  1.30000000E+00  1.30000000E+00  1.70000000E+00  1.30000000E+00  1.30000000E+00
  1.70000000E+00  1.30000000E+00  1.30000000E+00  1.70000000E+00  1.30000000E+00
  1.30000000E+00  1.70000000E+00  1.70000000E+00  1.30000000E+00  1.30000000E+00
  1.70000000E+00  1.70000000E+00  1.70000000E+00  1.30000000E+00  1.30000000E+00
  1.70000000E+00  1.30000000E+00  1.70000000E+00  1.30000000E+00  1.70000000E+00
  1.30000000E+00  1.30000000E+00  1.70000000E+00  1.30000000E+00  1.30000000E+00
  1.70000000E+00  1.30000000E+00  1.30000000E+00  1.30000000E+00  1.30000000E+00
  1.30000000E+00  1.70000000E+00  1.70000000E+00  1.30000000E+00  1.30000000E+00
  1.30000000E+00  1.70000000E+00  1.30000000E+00  1.30000000E+00  1.30000000E+00
  1.30000000E+00  1.80000000E+00  1.70000000E+00  1.70000000E+00  1.70000000E+00
  1.70000000E+00  1.70000000E+00  1.80000000E+00  1.70000000E+00  1.70000000E+00
  1.30000000E+00  1.70000000E+00  1.70000000E+00  1.70000000E+00  1.70000000E+00
  1.70000000E+00  1.30000000E+00  1.70000000E+00  1.70000000E+00  1.30000000E+00
  1.30000000E+00  1.70000000E+00  1.30000000E+00  1.30000000E+00  1.70000000E+00
  1.30000000E+00  1.30000000E+00  1.70000000E+00  1.30000000E+00  1.30000000E+00
  1.70000000E+00  1.70000000E+00  1.30000000E+00  1.30000000E+00  1.70000000E+00
  1.70000000E+00  1.70000000E+00  1.30000000E+00  1.30000000E+00  1.70000000E+00
  1.30000000E+00  1.70000000E+00  1.30000000E+00  1.70000000E+00  1.30000000E+00
  1.30000000E+00  1.70000000E+00  1.30000000E+00  1.30000000E+00  1.70000000E+00
  1.30000000E+00  1.30000000E+00  1.30000000E+00  1.30000000E+00  1.30000000E+00
  1.70000000E+00  1.70000000E+00  1.30000000E+00  1.30000000E+00  1.30000000E+00
  1.70000000E+00  1.30000000E+00  1.30000000E+00  1.30000000E+00  1.30000000E+00
  1.80000000E+00  1.70000000E+00  1.70000000E+00  1.70000000E+00  1.70000000E+00
  1.70000000E+00  1.80000000E+00  1.70000000E+00  1.70000000E+00  1.30000000E+00
  1.70000000E+00  1.70000000E+00  1.70000000E+00  1.70000000E+00  1.70000000E+00
  1.30000000E+00  1.70000000E+00  1.70000000E+00  1.30000000E+00  1.30000000E+00
  1.70000000E+00  1.30000000E+00  1.30000000E+00  1.70000000E+00  1.30000000E+00
  1.30000000E+00  1.70000000E+00  1.30000000E+00  1.30000000E+00  1.70000000E+00
  1.70000000E+00  1.30000000E+00  1.30000000E+00  1.70000000E+00  1.70000000E+00
  1.70000000E+00  1.30000000E+00  1.30000000E+00  1.70000000E+00  1.30000000E+00
  1.70000000E+00  1.30000000E+00  1.70000000E+00  1.30000000E+00  1.30000000E+00
  1.70000000E+00  1.30000000E+00  1.30000000E+00  1.70000000E+00  1.30000000E+00
  1.30000000E+00  1.30000000E+00  1.30000000E+00  1.30000000E+00  1.70000000E+00
  1.70000000E+00  1.30000000E+00  1.30000000E+00  1.30000000E+00  1.70000000E+00
  1.30000000E+00  1.30000000E+00  1.30000000E+00  1.30000000E+00  1.80000000E+00
  1.70000000E+00  1.70000000E+00  1.70000000E+00  1.70000000E+00  1.70000000E+00
  1.80000000E+00  1.70000000E+00  1.70000000E+00  1.30000000E+00  1.70000000E+00
  1.70000000E+00  1.70000000E+00  1.70000000E+00  1.70000000E+00  1.30000000E+00
  1.70000000E+00  1.70000000E+00  1.30000000E+00  1.30000000E+00  1.70000000E+00
  1.30000000E+00  1.30000000E+00  1.70000000E+00  1.30000000E+00  1.30000000E+00
  1.70000000E+00  1.30000000E+00  1.30000000E+00  1.70000000E+00  1.70000000E+00
  1.30000000E+00  1.30000000E+00  1.70000000E+00  1.70000000E+00  1.70000000E+00
  1.30000000E+00  1.30000000E+00  1.70000000E+00  1.30000000E+00  1.70000000E+00
  1.30000000E+00  1.70000000E+00  1.30000000E+00  1.30000000E+00  1.70000000E+00
  1.30000000E+00  1.30000000E+00  1.70000000E+00  1.30000000E+00  1.30000000E+00
  1.30000000E+00  1.30000000E+00  1.30000000E+00  1.70000000E+00  1.70000000E+00
  1.30000000E+00  1.30000000E+00  1.30000000E+00  1.70000000E+00  1.30000000E+00
  1.30000000E+00  1.30000000E+00  1.30000000E+00  1.80000000E+00  1.70000000E+00
  1.70000000E+00  1.70000000E+00  1.70000000E+00  1.70000000E+00  1.80000000E+00
  1.70000000E+00  1.70000000E+00  1.30000000E+00  1.70000000E+00  1.70000000E+00
  1.70000000E+00  1.70000000E+00  1.70000000E+00  1.30000000E+00  1.70000000E+00
  1.70000000E+00  1.30000000E+00  1.30000000E+00  1.70000000E+00  1.30000000E+00
  1.30000000E+00  1.70000000E+00  1.30000000E+00  1.30000000E+00  1.70000000E+00
  1.30000000E+00  1.30000000E+00  1.70000000E+00  1.70000000E+00  1.30000000E+00
  1.30000000E+00  1.70000000E+00  1.70000000E+00  1.70000000E+00  1.30000000E+00
  1.30000000E+00  1.70000000E+00  1.30000000E+00  1.70000000E+00  1.30000000E+00
  1.70000000E+00  1.30000000E+00  1.30000000E+00  1.70000000E+00  1.30000000E+00
  1.30000000E+00  1.70000000E+00  1.30000000E+00  1.30000000E+00  1.30000000E+00
  1.30000000E+00  1.30000000E+00  1.70000000E+00  1.70000000E+00  1.30000000E+00
  1.30000000E+00  1.30000000E+00  1.70000000E+00  1.30000000E+00  1.30000000E+00
  1.30000000E+00  1.30000000E+00  1.80000000E+00  1.70000000E+00  1.70000000E+00
  1.70000000E+00  1.70000000E+00  1.70000000E+00  1.80000000E+00  1.70000000E+00
  1.70000000E+00  1.30000000E+00  1.70000000E+00  1.70000000E+00  1.70000000E+00
  1.70000000E+00  1.70000000E+00  1.30000000E+00  1.70000000E+00  1.70000000E+00
  1.30000000E+00  1.30000000E+00  1.70000000E+00  1.30000000E+00  1.30000000E+00
  1.70000000E+00  1.30000000E+00  1.30000000E+00  1.70000000E+00  1.30000000E+00
  1.30000000E+00  1.70000000E+00  1.70000000E+00  1.30000000E+00  1.30000000E+00
  1.70000000E+00  1.70000000E+00  1.70000000E+00  1.30000000E+00  1.30000000E+00
  1.70000000E+00  1.30000000E+00  1.70000000E+00  1.30000000E+00  1.70000000E+00
  1.30000000E+00  1.30000000E+00  1.70000000E+00  1.30000000E+00  1.30000000E+00
  1.70000000E+00  1.30000000E+00  1.30000000E+00  1.30000000E+00  1.30000000E+00
  1.30000000E+00  1.70000000E+00  1.70000000E+00  1.30000000E+00  1.30000000E+00
  1.30000000E+00  1.70000000E+00  1.30000000E+00  1.30000000E+00  1.30000000E+00
  1.30000000E+00  1.80000000E+00  1.70000000E+00  1.70000000E+00  1.70000000E+00
  1.70000000E+00  1.70000000E+00  1.80000000E+00  1.70000000E+00  1.70000000E+00
  1.30000000E+00  1.70000000E+00  1.70000000E+00  1.70000000E+00  1.70000000E+00
  1.70000000E+00  1.30000000E+00  1.70000000E+00  1.70000000E+00  1.30000000E+00
  1.30000000E+00  1.70000000E+00  1.30000000E+00  1.30000000E+00  1.70000000E+00
  1.30000000E+00  1.30000000E+00  1.70000000E+00  1.30000000E+00  1.30000000E+00
  1.70000000E+00  1.70000000E+00  1.30000000E+00  1.30000000E+00  1.70000000E+00
  1.70000000E+00  1.70000000E+00  1.30000000E+00  1.30000000E+00  1.70000000E+00
  1.30000000E+00  1.70000000E+00  1.30000000E+00  1.70000000E+00  1.30000000E+00
  1.30000000E+00  1.70000000E+00  1.30000000E+00  1.30000000E+00  1.70000000E+00
  1.30000000E+00  1.30000000E+00  1.30000000E+00  1.30000000E+00  1.30000000E+00
  1.70000000E+00  1.70000000E+00  1.30000000E+00  1.30000000E+00  1.30000000E+00
  1.70000000E+00  1.30000000E+00  1.30000000E+00  1.30000000E+00  1.30000000E+00
  1.80000000E+00  1.70000000E+00  1.70000000E+00  1.70000000E+00  1.70000000E+00
  1.70000000E+00  1.80000000E+00  1.70000000E+00  1.70000000E+00  1.30000000E+00
  1.70000000E+00  1.70000000E+00  1.70000000E+00  1.70000000E+00  1.70000000E+00
  1.30000000E+00  1.70000000E+00  1.70000000E+00  1.30000000E+00  1.30000000E+00
  1.70000000E+00  1.30000000E+00  1.30000000E+00  1.70000000E+00  1.30000000E+00
  1.30000000E+00  1.70000000E+00  1.30000000E+00  1.30000000E+00  1.70000000E+00
  1.70000000E+00  1.30000000E+00  1.30000000E+00  1.70000000E+00  1.70000000E+00
  1.70000000E+00  1.30000000E+00  1.30000000E+00  1.70000000E+00  1.30000000E+00
  1.70000000E+00  1.30000000E+00  1.70000000E+00  1.30000000E+00  1.30000000E+00
  1.70000000E+00  1.30000000E+00  1.30000000E+00  1.70000000E+00  1.30000000E+00
  1.30000000E+00  1.30000000E+00  1.30000000E+00  1.30000000E+00  1.70000000E+00
  1.70000000E+00  1.30000000E+00  1.30000000E+00  1.30000000E+00  1.70000000E+00
  1.30000000E+00  1.30000000E+00  1.30000000E+00  1.30000000E+00  1.80000000E+00
  1.70000000E+00  1.70000000E+00  1.70000000E+00  1.70000000E+00  1.70000000E+00
  1.80000000E+00  1.70000000E+00  1.70000000E+00  1.30000000E+00  1.70000000E+00
  1.70000000E+00  1.70000000E+00  1.70000000E+00  1.70000000E+00  1.30000000E+00
  1.70000000E+00  1.70000000E+00  1.30000000E+00  1.30000000E+00  1.70000000E+00
  1.30000000E+00  1.30000000E+00  1.70000000E+00  1.30000000E+00  1.30000000E+00
  1.70000000E+00  1.30000000E+00  1.30000000E+00  1.70000000E+00  1.70000000E+00
  1.30000000E+00  1.30000000E+00  1.70000000E+00  1.70000000E+00  1.70000000E+00
  1.30000000E+00  1.30000000E+00  1.70000000E+00  1.30000000E+00  1.70000000E+00
  1.30000000E+00  1.70000000E+00  1.30000000E+00  1.30000000E+00  1.70000000E+00
  1.30000000E+00  1.30000000E+00  1.70000000E+00  1.30000000E+00  1.30000000E+00
  1.30000000E+00  1.30000000E+00  1.30000000E+00  1.70000000E+00  1.70000000E+00
  1.30000000E+00  1.30000000E+00  1.30000000E+00  1.70000000E+00  1.30000000E+00
  1.30000000E+00  1.30000000E+00  1.30000000E+00  1.80000000E+00  1.70000000E+00
  1.70000000E+00  1.70000000E+00  1.70000000E+00  1.70000000E+00  1.80000000E+00
  1.70000000E+00  1.70000000E+00  1.30000000E+00  1.70000000E+00  1.70000000E+00
  1.70000000E+00  1.70000000E+00  1.70000000E+00  1.30000000E+00  1.70000000E+00
  1.70000000E+00  1.30000000E+00  1.30000000E+00  1.70000000E+00  1.30000000E+00
  1.30000000E+00  1.70000000E+00  1.30000000E+00  1.30000000E+00  1.70000000E+00
  1.30000000E+00  1.30000000E+00  1.70000000E+00  1.70000000E+00  1.30000000E+00
  1.30000000E+00  1.70000000E+00  1.70000000E+00  1.70000000E+00  1.30000000E+00
  1.30000000E+00  1.70000000E+00  1.30000000E+00  1.70000000E+00  1.30000000E+00
  1.70000000E+00  1.30000000E+00  1.30000000E+00  1.70000000E+00  1.30000000E+00
  1.30000000E+00  1.70000000E+00  1.30000000E+00  1.30000000E+00  1.30000000E+00
  1.30000000E+00  1.30000000E+00  1.70000000E+00  1.70000000E+00  1.30000000E+00
  1.30000000E+00  1.30000000E+00  1.70000000E+00  1.30000000E+00  1.30000000E+00
  1.30000000E+00  1.30000000E+00  1.80000000E+00  1.70000000E+00  1.70000000E+00
  1.70000000E+00  1.70000000E+00  1.70000000E+00  1.80000000E+00  1.70000000E+00
  1.70000000E+00  1.30000000E+00  1.70000000E+00  1.70000000E+00  1.70000000E+00
  1.70000000E+00  1.70000000E+00  1.30000000E+00  1.70000000E+00  1.70000000E+00
  1.30000000E+00  1.30000000E+00  1.70000000E+00  1.30000000E+00  1.30000000E+00
  1.70000000E+00  1.30000000E+00  1.30000000E+00  1.70000000E+00  1.30000000E+00
  1.30000000E+00  1.70000000E+00  1.70000000E+00  1.30000000E+00  1.30000000E+00
  1.70000000E+00  1.70000000E+00  1.70000000E+00  1.30000000E+00  1.30000000E+00
  1.70000000E+00  1.30000000E+00  1.70000000E+00  1.30000000E+00  1.70000000E+00
  1.30000000E+00  1.30000000E+00  1.70000000E+00  1.30000000E+00  1.30000000E+00
  1.70000000E+00  1.30000000E+00  1.30000000E+00  1.30000000E+00  1.30000000E+00
  1.30000000E+00  1.70000000E+00  1.70000000E+00  1.30000000E+00  1.30000000E+00
  1.30000000E+00  1.70000000E+00  1.30000000E+00  1.30000000E+00  1.30000000E+00
  1.30000000E+00  1.80000000E+00  1.70000000E+00  1.70000000E+00  1.70000000E+00
  1.70000000E+00  1.70000000E+00  1.80000000E+00  1.70000000E+00  1.70000000E+00
  1.30000000E+00  1.70000000E+00  1.70000000E+00  1.70000000E+00  1.70000000E+00
  1.70000000E+00  1.30000000E+00  1.70000000E+00  1.70000000E+00  1.30000000E+00
  1.30000000E+00  1.70000000E+00  1.30000000E+00  1.30000000E+00  1.70000000E+00
  1.30000000E+00  1.30000000E+00  1.70000000E+00  1.30000000E+00  1.30000000E+00
  1.70000000E+00  1.70000000E+00  1.30000000E+00  1.30000000E+00  1.70000000E+00
  1.70000000E+00  1.70000000E+00  1.30000000E+00  1.30000000E+00  1.70000000E+00
  1.30000000E+00  1.70000000E+00  1.30000000E+00  1.70000000E+00  1.30000000E+00
  1.30000000E+00  1.70000000E+00  1.30000000E+00  1.30000000E+00  1.70000000E+00
  1.30000000E+00  1.30000000E+00  1.30000000E+00  1.30000000E+00  1.30000000E+00
  1.70000000E+00  1.70000000E+00  1.30000000E+00  1.30000000E+00  1.30000000E+00
  1.70000000E+00  1.30000000E+00  1.30000000E+00  1.30000000E+00  1.30000000E+00
  1.80000000E+00  1.70000000E+00  1.70000000E+00  1.70000000E+00  1.70000000E+00
  1.70000000E+00  1.80000000E+00  1.70000000E+00  1.70000000E+00  1.30000000E+00
  1.70000000E+00  1.70000000E+00  1.70000000E+00  1.70000000E+00  1.70000000E+00
  1.30000000E+00  1.70000000E+00  1.70000000E+00  1.30000000E+00  1.30000000E+00
  1.70000000E+00  1.30000000E+00  1.30000000E+00  1.70000000E+00  1.30000000E+00
  1.30000000E+00  1.70000000E+00  1.30000000E+00  1.30000000E+00  1.70000000E+00
  1.70000000E+00  1.30000000E+00  1.30000000E+00  1.70000000E+00  1.70000000E+00
  1.70000000E+00  1.30000000E+00  1.30000000E+00  1.70000000E+00  1.30000000E+00
  1.70000000E+00  1.30000000E+00  1.70000000E+00  1.30000000E+00  1.30000000E+00
  1.70000000E+00  1.30000000E+00  1.30000000E+00  1.70000000E+00  1.30000000E+00
  1.30000000E+00  1.30000000E+00  1.30000000E+00  1.30000000E+00  1.70000000E+00
  1.70000000E+00  1.30000000E+00  1.30000000E+00  1.30000000E+00  1.70000000E+00
  1.30000000E+00  1.30000000E+00  1.30000000E+00  1.30000000E+00  1.80000000E+00
  1.70000000E+00  1.70000000E+00  1.70000000E+00  1.70000000E+00  1.70000000E+00
  1.80000000E+00  1.70000000E+00  1.70000000E+00  1.30000000E+00  1.70000000E+00
  1.70000000E+00  1.70000000E+00  1.70000000E+00  1.70000000E+00  1.30000000E+00
  1.70000000E+00  1.70000000E+00  1.30000000E+00  1.30000000E+00  1.70000000E+00
  1.30000000E+00  1.30000000E+00  1.70000000E+00  1.30000000E+00  1.30000000E+00
  1.70000000E+00  1.30000000E+00  1.30000000E+00  1.70000000E+00  1.70000000E+00
  1.30000000E+00  1.30000000E+00  1.70000000E+00  1.70000000E+00  1.70000000E+00
  1.30000000E+00  1.30000000E+00  1.70000000E+00  1.30000000E+00  1.70000000E+00
  1.30000000E+00  1.70000000E+00  1.30000000E+00  1.30000000E+00  1.70000000E+00
  1.30000000E+00  1.30000000E+00  1.70000000E+00  1.30000000E+00  1.30000000E+00
  1.30000000E+00  1.30000000E+00  1.30000000E+00  1.70000000E+00  1.70000000E+00
  1.30000000E+00  1.30000000E+00  1.30000000E+00  1.70000000E+00  1.30000000E+00
  1.30000000E+00  1.30000000E+00  1.30000000E+00  1.80000000E+00  1.70000000E+00
  1.70000000E+00  1.70000000E+00  1.70000000E+00  1.70000000E+00  1.80000000E+00
  1.70000000E+00  1.70000000E+00  1.30000000E+00  1.70000000E+00  1.70000000E+00
  1.70000000E+00  1.70000000E+00  1.70000000E+00  1.30000000E+00  1.70000000E+00
  1.70000000E+00  1.30000000E+00  1.30000000E+00  1.70000000E+00  1.30000000E+00
  1.30000000E+00  1.70000000E+00  1.30000000E+00  1.30000000E+00  1.70000000E+00
  1.30000000E+00  1.30000000E+00  1.70000000E+00  1.70000000E+00  1.30000000E+00
  1.30000000E+00  1.70000000E+00  1.70000000E+00  1.70000000E+00  1.30000000E+00
  1.30000000E+00  1.70000000E+00  1.30000000E+00  1.70000000E+00  1.30000000E+00
  1.70000000E+00  1.30000000E+00  1.30000000E+00  1.70000000E+00  1.30000000E+00
  1.30000000E+00  1.70000000E+00  1.30000000E+00  1.30000000E+00  1.30000000E+00
  1.30000000E+00  1.30000000E+00  1.70000000E+00  1.70000000E+00  1.30000000E+00
  1.30000000E+00  1.30000000E+00  1.70000000E+00  1.30000000E+00  1.30000000E+00
  1.30000000E+00  1.30000000E+00  1.80000000E+00  1.70000000E+00  1.70000000E+00
  1.70000000E+00  1.70000000E+00  1.70000000E+00  1.80000000E+00  1.70000000E+00
  1.70000000E+00  1.30000000E+00  1.70000000E+00  1.70000000E+00  1.70000000E+00
  1.70000000E+00  1.70000000E+00  1.30000000E+00  1.70000000E+00  1.70000000E+00
  1.30000000E+00  1.30000000E+00  1.70000000E+00  1.30000000E+00  1.30000000E+00
  1.70000000E+00  1.30000000E+00  1.30000000E+00  1.70000000E+00  1.30000000E+00
  1.30000000E+00  1.70000000E+00  1.70000000E+00  1.30000000E+00  1.30000000E+00
  1.70000000E+00  1.70000000E+00  1.70000000E+00  1.30000000E+00  1.30000000E+00
  1.70000000E+00  1.30000000E+00  1.70000000E+00  1.30000000E+00  1.70000000E+00
  1.30000000E+00  1.30000000E+00  1.70000000E+00  1.30000000E+00  1.30000000E+00
  1.70000000E+00  1.30000000E+00  1.30000000E+00  1.30000000E+00  1.30000000E+00
  1.30000000E+00  1.70000000E+00  1.70000000E+00  1.30000000E+00  1.30000000E+00
  1.30000000E+00  1.70000000E+00  1.30000000E+00  1.30000000E+00  1.30000000E+00
  1.30000000E+00  1.80000000E+00  1.70000000E+00  1.70000000E+00  1.70000000E+00
  1.70000000E+00  1.70000000E+00  1.80000000E+00  1.70000000E+00  1.70000000E+00
  1.30000000E+00  1.70000000E+00  1.70000000E+00  1.70000000E+00  1.70000000E+00
  1.70000000E+00  1.30000000E+00  1.70000000E+00  1.70000000E+00  1.30000000E+00
  1.30000000E+00  1.70000000E+00  1.30000000E+00  1.30000000E+00  1.70000000E+00
  1.30000000E+00  1.30000000E+00  1.70000000E+00  1.30000000E+00  1.30000000E+00
  1.70000000E+00  1.70000000E+00  1.30000000E+00  1.30000000E+00  1.70000000E+00
  1.70000000E+00  1.70000000E+00  1.30000000E+00  1.30000000E+00  1.70000000E+00
  1.30000000E+00  1.70000000E+00  1.30000000E+00  1.70000000E+00  1.30000000E+00
  1.30000000E+00  1.70000000E+00  1.30000000E+00  1.30000000E+00  1.70000000E+00
  1.30000000E+00  1.30000000E+00  1.30000000E+00  1.30000000E+00  1.30000000E+00
  1.70000000E+00  1.70000000E+00  1.30000000E+00  1.30000000E+00  1.30000000E+00
  1.70000000E+00  1.30000000E+00  1.30000000E+00  1.30000000E+00  1.30000000E+00
  1.80000000E+00  1.70000000E+00  1.70000000E+00  1.70000000E+00  1.70000000E+00
  1.70000000E+00  1.80000000E+00  1.70000000E+00  1.70000000E+00  1.30000000E+00
  1.70000000E+00  1.70000000E+00  1.70000000E+00  1.70000000E+00  1.70000000E+00
  1.30000000E+00  1.70000000E+00  1.70000000E+00  1.30000000E+00  1.30000000E+00
  1.70000000E+00  1.30000000E+00  1.30000000E+00  1.70000000E+00  1.30000000E+00
  1.30000000E+00  1.70000000E+00  1.30000000E+00  1.30000000E+00  1.70000000E+00
  1.70000000E+00  1.30000000E+00  1.30000000E+00  1.70000000E+00  1.70000000E+00
  1.70000000E+00  1.30000000E+00  1.30000000E+00  1.70000000E+00  1.30000000E+00
  1.70000000E+00  1.30000000E+00  1.70000000E+00  1.30000000E+00  1.30000000E+00
  1.70000000E+00  1.30000000E+00  1.30000000E+00  1.70000000E+00  1.30000000E+00
  1.30000000E+00  1.30000000E+00  1.30000000E+00  1.30000000E+00  1.70000000E+00
  1.70000000E+00  1.30000000E+00  1.30000000E+00  1.30000000E+00  1.70000000E+00
  1.30000000E+00  1.30000000E+00  1.30000000E+00  1.30000000E+00  1.80000000E+00
  1.70000000E+00  1.70000000E+00  1.70000000E+00  1.70000000E+00  1.70000000E+00
  1.80000000E+00  1.70000000E+00  1.70000000E+00  1.30000000E+00  1.70000000E+00
  1.70000000E+00  1.70000000E+00  1.70000000E+00  1.70000000E+00  1.30000000E+00
  1.70000000E+00  1.70000000E+00  1.30000000E+00  1.30000000E+00  1.70000000E+00
  1.30000000E+00  1.30000000E+00  1.70000000E+00  1.30000000E+00  1.30000000E+00
  1.70000000E+00  1.30000000E+00  1.30000000E+00  1.70000000E+00  1.70000000E+00
  1.30000000E+00  1.30000000E+00  1.70000000E+00  1.70000000E+00  1.70000000E+00
  1.30000000E+00  1.30000000E+00  1.70000000E+00  1.30000000E+00  1.70000000E+00
  1.30000000E+00  1.70000000E+00  1.30000000E+00  1.30000000E+00  1.70000000E+00
  1.30000000E+00  1.30000000E+00  1.70000000E+00  1.30000000E+00  1.30000000E+00
  1.30000000E+00  1.30000000E+00  1.30000000E+00  1.70000000E+00  1.70000000E+00
  1.30000000E+00  1.30000000E+00  1.30000000E+00  1.70000000E+00  1.30000000E+00
  1.30000000E+00  1.30000000E+00  1.30000000E+00  1.80000000E+00  1.70000000E+00
  1.70000000E+00  1.70000000E+00  1.70000000E+00  1.70000000E+00  1.80000000E+00
  1.70000000E+00  1.70000000E+00  1.30000000E+00  1.70000000E+00  1.70000000E+00
  1.70000000E+00  1.70000000E+00  1.70000000E+00  1.30000000E+00  1.70000000E+00
  1.70000000E+00  1.30000000E+00  1.30000000E+00  1.70000000E+00  1.30000000E+00
  1.30000000E+00  1.70000000E+00  1.30000000E+00  1.30000000E+00  1.70000000E+00
  1.30000000E+00  1.30000000E+00  1.70000000E+00  1.70000000E+00  1.30000000E+00
  1.30000000E+00  1.70000000E+00  1.70000000E+00  1.70000000E+00  1.30000000E+00
  1.30000000E+00  1.70000000E+00  1.30000000E+00  1.70000000E+00  1.30000000E+00
  1.70000000E+00  1.30000000E+00  1.30000000E+00  1.70000000E+00  1.30000000E+00
  1.30000000E+00  1.70000000E+00  1.30000000E+00  1.30000000E+00  1.30000000E+00
  1.30000000E+00  1.30000000E+00  1.70000000E+00  1.70000000E+00  1.30000000E+00
  1.30000000E+00  1.30000000E+00  1.70000000E+00  1.30000000E+00  1.30000000E+00
  1.30000000E+00  1.30000000E+00  1.80000000E+00  1.70000000E+00  1.70000000E+00
  1.70000000E+00  1.70000000E+00  1.70000000E+00  1.80000000E+00  1.70000000E+00
  1.70000000E+00  1.30000000E+00  1.70000000E+00  1.70000000E+00  1.70000000E+00
  1.70000000E+00  1.70000000E+00  1.30000000E+00  1.70000000E+00  1.70000000E+00
  1.30000000E+00  1.30000000E+00  1.70000000E+00  1.30000000E+00  1.30000000E+00
  1.70000000E+00  1.30000000E+00  1.30000000E+00  1.70000000E+00  1.30000000E+00
  1.30000000E+00  1.70000000E+00  1.70000000E+00  1.30000000E+00  1.30000000E+00
  1.70000000E+00  1.70000000E+00  1.70000000E+00  1.30000000E+00  1.30000000E+00
  1.70000000E+00  1.30000000E+00  1.70000000E+00  1.30000000E+00  1.70000000E+00
  1.30000000E+00  1.30000000E+00  1.70000000E+00  1.30000000E+00  1.30000000E+00
  1.70000000E+00  1.30000000E+00  1.30000000E+00  1.30000000E+00  1.30000000E+00
  1.30000000E+00  1.70000000E+00  1.70000000E+00  1.30000000E+00  1.30000000E+00
  1.30000000E+00  1.70000000E+00  1.30000000E+00  1.30000000E+00  1.30000000E+00
  1.30000000E+00  1.80000000E+00  1.70000000E+00  1.70000000E+00  1.70000000E+00
  1.70000000E+00  1.70000000E+00  1.80000000E+00  1.70000000E+00  1.70000000E+00
  1.30000000E+00  1.70000000E+00  1.70000000E+00  1.70000000E+00  1.70000000E+00
  1.70000000E+00  1.30000000E+00  1.70000000E+00  1.70000000E+00  1.30000000E+00
  1.30000000E+00  1.70000000E+00  1.30000000E+00  1.30000000E+00  1.70000000E+00
  1.30000000E+00  1.30000000E+00  1.70000000E+00  1.30000000E+00  1.30000000E+00
  1.70000000E+00  1.70000000E+00  1.30000000E+00  1.30000000E+00  1.70000000E+00
  1.70000000E+00  1.70000000E+00  1.30000000E+00  1.30000000E+00  1.70000000E+00
  1.30000000E+00  1.70000000E+00  1.30000000E+00  1.70000000E+00  1.30000000E+00
  1.30000000E+00  1.70000000E+00  1.30000000E+00  1.30000000E+00  1.70000000E+00
  1.30000000E+00  1.30000000E+00  1.30000000E+00  1.30000000E+00  1.30000000E+00
  1.70000000E+00  1.70000000E+00  1.30000000E+00  1.30000000E+00  1.30000000E+00
  1.70000000E+00  1.30000000E+00  1.30000000E+00  1.30000000E+00  1.30000000E+00
  1.80000000E+00  1.70000000E+00  1.70000000E+00  1.70000000E+00  1.70000000E+00
  1.70000000E+00  1.80000000E+00  1.70000000E+00  1.70000000E+00  1.30000000E+00
  1.70000000E+00  1.70000000E+00  1.70000000E+00  1.70000000E+00  1.70000000E+00
  1.30000000E+00  1.70000000E+00  1.70000000E+00  1.30000000E+00  1.30000000E+00
  1.70000000E+00  1.30000000E+00  1.30000000E+00  1.70000000E+00  1.30000000E+00
  1.30000000E+00  1.70000000E+00  1.30000000E+00  1.30000000E+00  1.70000000E+00
  1.70000000E+00  1.30000000E+00  1.30000000E+00  1.70000000E+00  1.70000000E+00
  1.70000000E+00  1.30000000E+00  1.30000000E+00  1.70000000E+00  1.30000000E+00
  1.70000000E+00  1.30000000E+00  1.70000000E+00  1.30000000E+00  1.30000000E+00
  1.70000000E+00  1.30000000E+00  1.30000000E+00  1.70000000E+00  1.30000000E+00
  1.30000000E+00  1.30000000E+00  1.30000000E+00  1.30000000E+00  1.70000000E+00
  1.70000000E+00  1.30000000E+00  1.30000000E+00  1.30000000E+00  1.70000000E+00
  1.30000000E+00  1.30000000E+00  1.30000000E+00  1.30000000E+00  1.80000000E+00
  1.70000000E+00  1.70000000E+00  1.70000000E+00  1.70000000E+00  1.70000000E+00
  1.80000000E+00  1.70000000E+00  1.70000000E+00  1.30000000E+00  1.70000000E+00
  1.70000000E+00  1.70000000E+00  1.70000000E+00  1.70000000E+00  1.30000000E+00
  1.70000000E+00  1.70000000E+00  1.30000000E+00  1.30000000E+00  1.70000000E+00
  1.30000000E+00  1.30000000E+00  1.70000000E+00  1.30000000E+00  1.30000000E+00
  1.70000000E+00  1.30000000E+00  1.30000000E+00  1.70000000E+00  1.70000000E+00
  1.30000000E+00  1.30000000E+00  1.70000000E+00  1.70000000E+00  1.70000000E+00
  1.30000000E+00  1.30000000E+00  1.70000000E+00  1.30000000E+00  1.70000000E+00
  1.30000000E+00  1.70000000E+00  1.30000000E+00  1.30000000E+00  1.70000000E+00
  1.30000000E+00  1.30000000E+00  1.70000000E+00  1.30000000E+00  1.30000000E+00
  1.30000000E+00  1.30000000E+00  1.30000000E+00  1.70000000E+00  1.70000000E+00
  1.30000000E+00  1.30000000E+00  1.30000000E+00  1.70000000E+00  1.30000000E+00
  1.30000000E+00  1.30000000E+00  1.30000000E+00  1.80000000E+00  1.70000000E+00
  1.70000000E+00  1.70000000E+00  1.70000000E+00  1.70000000E+00  1.80000000E+00
  1.70000000E+00  1.70000000E+00  1.30000000E+00  1.70000000E+00  1.70000000E+00
  1.70000000E+00  1.70000000E+00  1.70000000E+00  1.30000000E+00  1.70000000E+00
  1.70000000E+00  1.30000000E+00  1.30000000E+00  1.70000000E+00  1.30000000E+00
  1.30000000E+00  1.70000000E+00  1.30000000E+00  1.30000000E+00  1.70000000E+00
  1.30000000E+00  1.30000000E+00  1.70000000E+00  1.70000000E+00  1.30000000E+00
  1.30000000E+00  1.70000000E+00  1.70000000E+00  1.70000000E+00  1.30000000E+00
  1.30000000E+00  1.70000000E+00  1.30000000E+00  1.70000000E+00  1.30000000E+00
  1.70000000E+00  1.30000000E+00  1.30000000E+00  1.70000000E+00  1.30000000E+00
  1.30000000E+00  1.70000000E+00  1.30000000E+00  1.30000000E+00  1.30000000E+00
  1.30000000E+00  1.30000000E+00  1.70000000E+00  1.70000000E+00  1.30000000E+00
  1.30000000E+00  1.30000000E+00  1.70000000E+00  1.30000000E+00  1.30000000E+00
  1.30000000E+00  1.30000000E+00  1.80000000E+00  1.70000000E+00  1.70000000E+00
  1.70000000E+00  1.70000000E+00  1.70000000E+00  1.80000000E+00  1.70000000E+00
  1.70000000E+00  1.30000000E+00  1.70000000E+00  1.70000000E+00  1.70000000E+00
  1.70000000E+00  1.70000000E+00  1.30000000E+00  1.70000000E+00  1.70000000E+00
  1.30000000E+00  1.30000000E+00  1.70000000E+00  1.30000000E+00  1.30000000E+00
  1.70000000E+00  1.30000000E+00  1.30000000E+00  1.70000000E+00  1.30000000E+00
  1.30000000E+00  1.70000000E+00  1.70000000E+00  1.30000000E+00  1.30000000E+00
  1.70000000E+00  1.70000000E+00  1.70000000E+00  1.30000000E+00  1.30000000E+00
  1.70000000E+00  1.30000000E+00  1.70000000E+00  1.30000000E+00  1.70000000E+00
  1.30000000E+00  1.30000000E+00  1.70000000E+00  1.30000000E+00  1.30000000E+00
  1.70000000E+00  1.30000000E+00  1.30000000E+00  1.30000000E+00  1.30000000E+00
  1.30000000E+00  1.70000000E+00  1.70000000E+00  1.30000000E+00  1.30000000E+00
  1.30000000E+00  1.70000000E+00  1.30000000E+00  1.30000000E+00  1.30000000E+00
  1.30000000E+00  1.80000000E+00  1.70000000E+00  1.70000000E+00  1.70000000E+00
  1.70000000E+00  1.70000000E+00  1.80000000E+00  1.70000000E+00  1.70000000E+00
  1.30000000E+00  1.70000000E+00  1.70000000E+00  1.70000000E+00  1.70000000E+00
  1.70000000E+00  1.30000000E+00  1.70000000E+00  1.70000000E+00  1.30000000E+00
  1.30000000E+00  1.70000000E+00  1.30000000E+00  1.30000000E+00  1.70000000E+00
  1.30000000E+00  1.30000000E+00  1.70000000E+00  1.30000000E+00  1.30000000E+00
  1.70000000E+00  1.70000000E+00  1.30000000E+00  1.30000000E+00  1.70000000E+00
  1.70000000E+00  1.70000000E+00  1.30000000E+00  1.30000000E+00  1.70000000E+00
  1.30000000E+00  1.70000000E+00  1.30000000E+00  1.70000000E+00  1.30000000E+00
  1.30000000E+00  1.70000000E+00  1.30000000E+00  1.30000000E+00  1.70000000E+00
  1.30000000E+00  1.30000000E+00  1.30000000E+00  1.30000000E+00  1.30000000E+00
  1.70000000E+00  1.70000000E+00  1.30000000E+00  1.30000000E+00  1.30000000E+00
  1.70000000E+00  1.30000000E+00  1.30000000E+00  1.30000000E+00  1.30000000E+00
  1.80000000E+00  1.70000000E+00  1.70000000E+00  1.70000000E+00  1.70000000E+00
  1.70000000E+00  1.80000000E+00  1.70000000E+00  1.70000000E+00  1.30000000E+00
  1.70000000E+00  1.70000000E+00  1.70000000E+00  1.70000000E+00  1.70000000E+00
  1.30000000E+00  1.70000000E+00  1.70000000E+00  1.30000000E+00  1.30000000E+00
  1.70000000E+00  1.30000000E+00  1.30000000E+00  1.70000000E+00  1.30000000E+00
  1.30000000E+00  1.70000000E+00  1.30000000E+00  1.30000000E+00  1.70000000E+00
  1.70000000E+00  1.30000000E+00  1.30000000E+00  1.70000000E+00  1.70000000E+00
  1.70000000E+00  1.30000000E+00  1.30000000E+00  1.70000000E+00  1.30000000E+00
  1.70000000E+00  1.30000000E+00  1.70000000E+00  1.30000000E+00  1.30000000E+00
  1.70000000E+00  1.30000000E+00  1.30000000E+00  1.70000000E+00  1.30000000E+00
  1.30000000E+00  1.30000000E+00  1.30000000E+00  1.30000000E+00  1.70000000E+00
  1.70000000E+00  1.30000000E+00  1.30000000E+00  1.30000000E+00  1.70000000E+00
  1.30000000E+00  1.30000000E+00  1.30000000E+00  1.30000000E+00  1.80000000E+00
  1.70000000E+00  1.70000000E+00  1.70000000E+00  1.70000000E+00  1.70000000E+00
  1.80000000E+00  1.70000000E+00  1.70000000E+00  1.30000000E+00  1.70000000E+00
  1.70000000E+00  1.70000000E+00  1.70000000E+00  1.70000000E+00  1.30000000E+00
  1.70000000E+00  1.70000000E+00  1.30000000E+00  1.30000000E+00  1.70000000E+00
  1.30000000E+00  1.30000000E+00  1.70000000E+00  1.30000000E+00  1.30000000E+00
  1.70000000E+00  1.30000000E+00  1.30000000E+00  1.70000000E+00  1.70000000E+00
  1.30000000E+00  1.30000000E+00  1.70000000E+00  1.70000000E+00  1.70000000E+00
  1.30000000E+00  1.30000000E+00  1.70000000E+00  1.30000000E+00  1.70000000E+00
  1.30000000E+00  1.70000000E+00  1.30000000E+00  1.30000000E+00  1.70000000E+00
  1.30000000E+00  1.30000000E+00  1.70000000E+00  1.30000000E+00  1.30000000E+00
  1.30000000E+00  1.30000000E+00  1.30000000E+00  1.70000000E+00  1.70000000E+00
  1.30000000E+00  1.30000000E+00  1.30000000E+00  1.70000000E+00  1.30000000E+00
  1.30000000E+00  1.30000000E+00  1.30000000E+00  1.80000000E+00  1.70000000E+00
  1.70000000E+00  1.70000000E+00  1.70000000E+00  1.70000000E+00  1.80000000E+00
  1.70000000E+00  1.70000000E+00  1.30000000E+00  1.70000000E+00  1.70000000E+00
  1.70000000E+00  1.70000000E+00  1.70000000E+00  1.30000000E+00  1.70000000E+00
  1.70000000E+00  1.30000000E+00  1.30000000E+00  1.70000000E+00  1.30000000E+00
  1.30000000E+00  1.70000000E+00  1.30000000E+00  1.30000000E+00  1.70000000E+00
  1.30000000E+00  1.30000000E+00  1.70000000E+00  1.70000000E+00  1.30000000E+00
  1.30000000E+00  1.70000000E+00  1.70000000E+00  1.70000000E+00  1.30000000E+00
  1.30000000E+00  1.70000000E+00  1.30000000E+00  1.70000000E+00  1.30000000E+00
  1.70000000E+00  1.30000000E+00  1.30000000E+00  1.70000000E+00  1.30000000E+00
  1.30000000E+00  1.70000000E+00  1.30000000E+00  1.30000000E+00  1.30000000E+00
  1.30000000E+00  1.30000000E+00  1.70000000E+00  1.70000000E+00  1.30000000E+00
  1.30000000E+00  1.30000000E+00  1.70000000E+00  1.30000000E+00  1.30000000E+00
  1.30000000E+00  1.30000000E+00  1.80000000E+00  1.70000000E+00  1.70000000E+00
  1.70000000E+00  1.70000000E+00  1.70000000E+00  1.80000000E+00  1.70000000E+00
  1.70000000E+00  1.30000000E+00  1.70000000E+00  1.70000000E+00  1.70000000E+00
  1.70000000E+00  1.70000000E+00  1.30000000E+00  1.70000000E+00  1.70000000E+00
  1.30000000E+00  1.30000000E+00  1.70000000E+00  1.30000000E+00  1.30000000E+00
  1.70000000E+00  1.30000000E+00  1.30000000E+00  1.70000000E+00  1.30000000E+00
  1.30000000E+00  1.70000000E+00  1.70000000E+00  1.30000000E+00  1.30000000E+00
  1.70000000E+00  1.70000000E+00  1.70000000E+00  1.30000000E+00  1.30000000E+00
  1.70000000E+00  1.30000000E+00  1.70000000E+00  1.30000000E+00  1.70000000E+00
  1.30000000E+00  1.30000000E+00  1.70000000E+00  1.30000000E+00  1.30000000E+00
  1.70000000E+00  1.30000000E+00  1.30000000E+00  1.30000000E+00  1.30000000E+00
  1.30000000E+00  1.70000000E+00  1.70000000E+00  1.30000000E+00  1.30000000E+00
  1.30000000E+00  1.70000000E+00  1.30000000E+00  1.30000000E+00  1.30000000E+00
  1.30000000E+00  1.80000000E+00  1.70000000E+00  1.70000000E+00  1.70000000E+00
  1.70000000E+00  1.70000000E+00  1.80000000E+00  1.70000000E+00  1.70000000E+00
  1.30000000E+00  1.70000000E+00  1.70000000E+00  1.70000000E+00  1.70000000E+00
  1.70000000E+00  1.30000000E+00  1.70000000E+00  1.70000000E+00  1.30000000E+00
  1.30000000E+00  1.70000000E+00  1.30000000E+00  1.30000000E+00  1.70000000E+00
  1.30000000E+00  1.30000000E+00  1.70000000E+00  1.30000000E+00  1.30000000E+00
  1.70000000E+00  1.70000000E+00  1.30000000E+00  1.30000000E+00  1.70000000E+00
  1.70000000E+00  1.70000000E+00  1.30000000E+00  1.30000000E+00  1.70000000E+00
  1.30000000E+00  1.70000000E+00  1.30000000E+00  1.70000000E+00  1.30000000E+00
  1.30000000E+00  1.70000000E+00  1.30000000E+00  1.30000000E+00  1.70000000E+00
  1.30000000E+00  1.30000000E+00  1.30000000E+00  1.30000000E+00  1.30000000E+00
  1.70000000E+00  1.70000000E+00  1.30000000E+00  1.30000000E+00  1.30000000E+00
  1.70000000E+00  1.30000000E+00  1.30000000E+00  1.30000000E+00  1.30000000E+00
  1.80000000E+00  1.70000000E+00  1.70000000E+00  1.70000000E+00  1.70000000E+00
  1.70000000E+00  1.80000000E+00  1.70000000E+00  1.70000000E+00  1.30000000E+00
  1.70000000E+00  1.70000000E+00  1.70000000E+00  1.70000000E+00  1.70000000E+00
  1.30000000E+00  1.70000000E+00  1.70000000E+00  1.30000000E+00  1.30000000E+00
  1.70000000E+00  1.30000000E+00  1.30000000E+00  1.70000000E+00  1.30000000E+00
  1.30000000E+00  1.70000000E+00  1.30000000E+00  1.30000000E+00  1.70000000E+00
  1.70000000E+00  1.30000000E+00  1.30000000E+00  1.70000000E+00  1.70000000E+00
  1.70000000E+00  1.30000000E+00  1.30000000E+00  1.70000000E+00  1.30000000E+00
  1.70000000E+00  1.30000000E+00  1.70000000E+00  1.30000000E+00  1.30000000E+00
  1.70000000E+00  1.30000000E+00  1.30000000E+00  1.70000000E+00  1.30000000E+00
  1.30000000E+00  1.30000000E+00  1.30000000E+00  1.30000000E+00  1.70000000E+00
  1.70000000E+00  1.30000000E+00  1.30000000E+00  1.30000000E+00  1.70000000E+00
  1.30000000E+00  1.30000000E+00  1.30000000E+00  1.30000000E+00  1.80000000E+00
  1.70000000E+00  1.70000000E+00  1.70000000E+00  1.70000000E+00  1.70000000E+00
  1.80000000E+00  1.70000000E+00  1.70000000E+00  1.30000000E+00  1.70000000E+00
  1.70000000E+00  1.70000000E+00  1.70000000E+00  1.70000000E+00  1.30000000E+00
  1.70000000E+00  1.70000000E+00  1.30000000E+00  1.30000000E+00  1.70000000E+00
  1.30000000E+00  1.30000000E+00  1.70000000E+00  1.30000000E+00  1.30000000E+00
  1.70000000E+00  1.30000000E+00  1.30000000E+00  1.70000000E+00  1.70000000E+00
  1.30000000E+00  1.30000000E+00  1.70000000E+00  1.70000000E+00  1.70000000E+00
  1.30000000E+00  1.30000000E+00  1.70000000E+00  1.30000000E+00  1.70000000E+00
  1.30000000E+00  1.70000000E+00  1.30000000E+00  1.30000000E+00  1.70000000E+00
  1.30000000E+00  1.30000000E+00  1.70000000E+00  1.30000000E+00  1.30000000E+00
  1.30000000E+00  1.30000000E+00  1.30000000E+00  1.70000000E+00  1.70000000E+00
  1.30000000E+00  1.30000000E+00  1.30000000E+00  1.70000000E+00  1.30000000E+00
  1.30000000E+00  1.30000000E+00  1.30000000E+00  1.80000000E+00  1.70000000E+00
  1.70000000E+00  1.70000000E+00  1.70000000E+00  1.70000000E+00  1.80000000E+00
  1.70000000E+00  1.70000000E+00  1.30000000E+00  1.70000000E+00  1.70000000E+00
  1.70000000E+00  1.70000000E+00  1.70000000E+00  1.30000000E+00  1.70000000E+00
  1.70000000E+00  1.30000000E+00  1.30000000E+00  1.70000000E+00  1.30000000E+00
  1.30000000E+00  1.70000000E+00  1.30000000E+00  1.30000000E+00  1.70000000E+00
  1.30000000E+00  1.30000000E+00  1.70000000E+00  1.70000000E+00  1.30000000E+00
  1.30000000E+00  1.70000000E+00  1.70000000E+00  1.70000000E+00  1.30000000E+00
  1.30000000E+00  1.70000000E+00  1.30000000E+00  1.70000000E+00  1.30000000E+00
  1.70000000E+00  1.30000000E+00  1.30000000E+00  1.70000000E+00  1.30000000E+00
  1.30000000E+00  1.70000000E+00  1.30000000E+00  1.30000000E+00  1.30000000E+00
  1.30000000E+00  1.30000000E+00  1.70000000E+00  1.70000000E+00  1.30000000E+00
  1.30000000E+00  1.30000000E+00  1.70000000E+00  1.30000000E+00  1.30000000E+00
  1.30000000E+00  1.30000000E+00  1.80000000E+00  1.70000000E+00  1.70000000E+00
  1.70000000E+00  1.70000000E+00  1.70000000E+00  1.80000000E+00  1.70000000E+00
  1.70000000E+00  1.30000000E+00  1.70000000E+00  1.70000000E+00  1.70000000E+00
  1.70000000E+00  1.70000000E+00  1.30000000E+00  1.70000000E+00  1.70000000E+00
  1.30000000E+00  1.30000000E+00  1.70000000E+00  1.30000000E+00  1.30000000E+00
  1.70000000E+00  1.30000000E+00  1.30000000E+00  1.70000000E+00  1.30000000E+00
  1.30000000E+00  1.70000000E+00  1.70000000E+00  1.30000000E+00  1.30000000E+00
  1.70000000E+00  1.70000000E+00  1.70000000E+00  1.30000000E+00  1.30000000E+00
  1.70000000E+00  1.30000000E+00  1.70000000E+00  1.30000000E+00  1.70000000E+00
  1.30000000E+00  1.30000000E+00  1.70000000E+00  1.30000000E+00  1.30000000E+00
  1.70000000E+00  1.30000000E+00  1.30000000E+00  1.30000000E+00  1.30000000E+00
  1.30000000E+00  1.70000000E+00  1.70000000E+00  1.30000000E+00  1.30000000E+00
  1.30000000E+00  1.70000000E+00  1.30000000E+00  1.30000000E+00  1.30000000E+00
  1.30000000E+00  1.80000000E+00  1.70000000E+00  1.70000000E+00  1.70000000E+00
  1.70000000E+00  1.70000000E+00  1.80000000E+00  1.70000000E+00  1.70000000E+00
  1.30000000E+00  1.70000000E+00  1.70000000E+00  1.70000000E+00  1.70000000E+00
  1.70000000E+00  1.30000000E+00  1.70000000E+00  1.70000000E+00  1.30000000E+00
  1.30000000E+00  1.70000000E+00  1.30000000E+00  1.30000000E+00  1.70000000E+00
  1.30000000E+00  1.30000000E+00  1.70000000E+00  1.30000000E+00  1.30000000E+00
  1.70000000E+00  1.70000000E+00  1.30000000E+00  1.30000000E+00  1.70000000E+00
  1.70000000E+00  1.70000000E+00  1.30000000E+00  1.30000000E+00  1.70000000E+00
  1.30000000E+00  1.70000000E+00  1.30000000E+00  1.70000000E+00  1.30000000E+00
  1.30000000E+00  1.70000000E+00  1.30000000E+00  1.30000000E+00  1.70000000E+00
  1.30000000E+00  1.30000000E+00  1.30000000E+00  1.30000000E+00  1.30000000E+00
  1.70000000E+00  1.70000000E+00  1.30000000E+00  1.30000000E+00  1.30000000E+00
  1.70000000E+00  1.30000000E+00  1.30000000E+00  1.30000000E+00  1.30000000E+00
  1.80000000E+00  1.70000000E+00  1.70000000E+00  1.70000000E+00  1.70000000E+00
  1.70000000E+00  1.80000000E+00  1.70000000E+00  1.70000000E+00  1.30000000E+00
  1.70000000E+00  1.70000000E+00  1.70000000E+00  1.70000000E+00  1.70000000E+00
  1.30000000E+00  1.70000000E+00  1.70000000E+00  1.30000000E+00  1.30000000E+00
  1.70000000E+00  1.30000000E+00  1.30000000E+00  1.70000000E+00  1.30000000E+00
  1.30000000E+00  1.70000000E+00  1.30000000E+00  1.30000000E+00  1.70000000E+00
  1.70000000E+00  1.30000000E+00  1.30000000E+00  1.70000000E+00  1.70000000E+00
  1.70000000E+00  1.30000000E+00  1.30000000E+00  1.70000000E+00  1.30000000E+00
  1.70000000E+00  1.30000000E+00  1.70000000E+00  1.30000000E+00  1.30000000E+00
  1.70000000E+00  1.30000000E+00  1.30000000E+00  1.70000000E+00  1.30000000E+00
  1.30000000E+00  1.30000000E+00  1.30000000E+00  1.30000000E+00  1.70000000E+00
  1.70000000E+00  1.30000000E+00  1.30000000E+00  1.30000000E+00  1.70000000E+00
  1.30000000E+00  1.30000000E+00  1.30000000E+00  1.30000000E+00  1.80000000E+00
  1.70000000E+00  1.70000000E+00  1.70000000E+00  1.70000000E+00  1.70000000E+00
  1.80000000E+00  1.70000000E+00  1.70000000E+00  1.30000000E+00  1.70000000E+00
  1.70000000E+00  1.70000000E+00  1.70000000E+00  1.70000000E+00  1.30000000E+00
  1.70000000E+00  1.70000000E+00  1.30000000E+00  1.30000000E+00  1.70000000E+00
  1.30000000E+00  1.30000000E+00  1.70000000E+00  1.30000000E+00  1.30000000E+00
  1.70000000E+00  1.30000000E+00  1.30000000E+00  1.70000000E+00  1.70000000E+00
  1.30000000E+00  1.30000000E+00  1.70000000E+00  1.70000000E+00  1.70000000E+00
  1.30000000E+00  1.30000000E+00  1.70000000E+00  1.30000000E+00  1.70000000E+00
  1.30000000E+00  1.70000000E+00  1.30000000E+00  1.30000000E+00  1.70000000E+00
  1.30000000E+00  1.30000000E+00  1.70000000E+00  1.30000000E+00  1.30000000E+00
  1.30000000E+00  1.30000000E+00  1.30000000E+00  1.70000000E+00  1.70000000E+00
  1.30000000E+00  1.30000000E+00  1.30000000E+00  1.70000000E+00  1.30000000E+00
  1.30000000E+00  1.30000000E+00  1.30000000E+00  1.80000000E+00  1.70000000E+00
  1.70000000E+00  1.70000000E+00  1.70000000E+00  1.70000000E+00  1.80000000E+00
  1.70000000E+00  1.70000000E+00  1.30000000E+00  1.70000000E+00  1.70000000E+00
  1.70000000E+00  1.70000000E+00  1.70000000E+00  1.30000000E+00  1.70000000E+00
  1.70000000E+00  1.30000000E+00  1.30000000E+00  1.70000000E+00  1.30000000E+00
  1.30000000E+00  1.70000000E+00  1.30000000E+00  1.30000000E+00  1.70000000E+00
  1.30000000E+00  1.30000000E+00  1.70000000E+00  1.70000000E+00  1.30000000E+00
  1.30000000E+00  1.70000000E+00  1.70000000E+00  1.70000000E+00  1.30000000E+00
  1.30000000E+00  1.70000000E+00  1.30000000E+00  1.70000000E+00  1.30000000E+00
  1.70000000E+00  1.30000000E+00  1.30000000E+00  1.70000000E+00  1.30000000E+00
  1.30000000E+00  1.70000000E+00  1.30000000E+00  1.30000000E+00  1.30000000E+00
  1.30000000E+00  1.30000000E+00  1.70000000E+00  1.70000000E+00  1.30000000E+00
  1.30000000E+00  1.30000000E+00  1.70000000E+00  1.30000000E+00  1.30000000E+00
  1.30000000E+00  1.30000000E+00  1.80000000E+00  1.70000000E+00  1.70000000E+00
  1.70000000E+00  1.70000000E+00  1.70000000E+00  1.80000000E+00  1.70000000E+00
  1.70000000E+00  1.30000000E+00  1.70000000E+00  1.70000000E+00  1.70000000E+00
  1.70000000E+00  1.70000000E+00  1.30000000E+00  1.70000000E+00  1.70000000E+00
  1.30000000E+00  1.30000000E+00  1.70000000E+00  1.30000000E+00  1.30000000E+00
  1.70000000E+00  1.30000000E+00  1.30000000E+00  1.70000000E+00  1.30000000E+00
  1.30000000E+00  1.70000000E+00  1.70000000E+00  1.30000000E+00  1.30000000E+00
  1.70000000E+00  1.70000000E+00  1.70000000E+00  1.30000000E+00  1.30000000E+00
  1.70000000E+00  1.30000000E+00  1.70000000E+00  1.30000000E+00  1.70000000E+00
  1.30000000E+00  1.30000000E+00  1.70000000E+00  1.30000000E+00  1.30000000E+00
  1.70000000E+00  1.30000000E+00  1.30000000E+00  1.30000000E+00  1.30000000E+00
  1.30000000E+00  1.70000000E+00  1.70000000E+00  1.30000000E+00  1.30000000E+00
  1.30000000E+00  1.70000000E+00  1.30000000E+00  1.30000000E+00  1.30000000E+00
  1.30000000E+00  1.80000000E+00  1.70000000E+00  1.70000000E+00  1.70000000E+00
  1.70000000E+00  1.70000000E+00  1.80000000E+00  1.70000000E+00  1.70000000E+00
  1.30000000E+00  1.70000000E+00  1.70000000E+00  1.70000000E+00  1.70000000E+00
  1.70000000E+00  1.30000000E+00  1.70000000E+00  1.70000000E+00  1.30000000E+00
  1.30000000E+00  1.70000000E+00  1.30000000E+00  1.30000000E+00  1.70000000E+00
  1.30000000E+00  1.30000000E+00  1.70000000E+00  1.30000000E+00  1.30000000E+00
  1.70000000E+00  1.70000000E+00  1.30000000E+00  1.30000000E+00  1.70000000E+00
  1.70000000E+00  1.70000000E+00  1.30000000E+00  1.30000000E+00  1.70000000E+00
  1.30000000E+00  1.70000000E+00  1.30000000E+00  1.70000000E+00  1.30000000E+00
  1.30000000E+00  1.70000000E+00  1.30000000E+00  1.30000000E+00  1.70000000E+00
  1.30000000E+00  1.30000000E+00  1.30000000E+00  1.30000000E+00  1.30000000E+00
  1.70000000E+00  1.70000000E+00  1.30000000E+00  1.30000000E+00  1.30000000E+00
  1.70000000E+00  1.30000000E+00  1.30000000E+00  1.30000000E+00  1.30000000E+00
  1.80000000E+00  1.70000000E+00  1.70000000E+00  1.70000000E+00  1.70000000E+00
  1.70000000E+00  1.80000000E+00  1.70000000E+00  1.70000000E+00  1.30000000E+00
  1.70000000E+00  1.70000000E+00  1.70000000E+00  1.70000000E+00  1.70000000E+00
  1.30000000E+00  1.70000000E+00  1.70000000E+00  1.30000000E+00  1.30000000E+00
  1.70000000E+00  1.30000000E+00  1.30000000E+00  1.70000000E+00  1.30000000E+00
  1.30000000E+00  1.70000000E+00  1.30000000E+00  1.30000000E+00  1.70000000E+00
  1.70000000E+00  1.30000000E+00  1.30000000E+00  1.70000000E+00  1.70000000E+00
  1.70000000E+00  1.30000000E+00  1.30000000E+00  1.70000000E+00  1.30000000E+00
  1.70000000E+00  1.30000000E+00  1.70000000E+00  1.30000000E+00  1.30000000E+00
  1.70000000E+00  1.30000000E+00  1.30000000E+00  1.70000000E+00  1.30000000E+00
  1.30000000E+00  1.30000000E+00  1.30000000E+00  1.30000000E+00  1.70000000E+00
  1.70000000E+00  1.30000000E+00  1.30000000E+00  1.30000000E+00  1.70000000E+00
  1.30000000E+00  1.30000000E+00  1.30000000E+00  1.30000000E+00  1.80000000E+00
  1.70000000E+00  1.70000000E+00  1.70000000E+00  1.70000000E+00  1.70000000E+00
  1.80000000E+00  1.70000000E+00  1.70000000E+00  1.30000000E+00  1.70000000E+00
  1.70000000E+00  1.70000000E+00  1.70000000E+00  1.70000000E+00  1.30000000E+00
  1.70000000E+00  1.70000000E+00  1.30000000E+00  1.30000000E+00  1.70000000E+00
  1.30000000E+00  1.30000000E+00  1.70000000E+00  1.30000000E+00  1.30000000E+00
  1.70000000E+00  1.30000000E+00  1.30000000E+00  1.70000000E+00  1.70000000E+00
  1.30000000E+00  1.30000000E+00  1.70000000E+00  1.70000000E+00  1.70000000E+00
  1.30000000E+00  1.30000000E+00  1.70000000E+00  1.30000000E+00  1.70000000E+00
  1.30000000E+00  1.70000000E+00  1.30000000E+00  1.30000000E+00  1.70000000E+00
  1.30000000E+00  1.30000000E+00  1.70000000E+00  1.30000000E+00  1.30000000E+00
  1.30000000E+00  1.30000000E+00  1.30000000E+00  1.70000000E+00  1.70000000E+00
  1.30000000E+00  1.30000000E+00  1.30000000E+00  1.70000000E+00  1.30000000E+00
  1.30000000E+00  1.30000000E+00  1.30000000E+00  1.80000000E+00  1.70000000E+00
  1.70000000E+00  1.70000000E+00  1.70000000E+00  1.70000000E+00  1.80000000E+00
  1.70000000E+00  1.70000000E+00  1.30000000E+00  1.70000000E+00  1.70000000E+00
  1.70000000E+00  1.70000000E+00  1.70000000E+00  1.30000000E+00  1.70000000E+00
  1.70000000E+00  1.30000000E+00  1.30000000E+00  1.70000000E+00  1.30000000E+00
  1.30000000E+00  1.70000000E+00  1.30000000E+00  1.30000000E+00  1.70000000E+00
  1.30000000E+00  1.30000000E+00  1.70000000E+00  1.70000000E+00  1.30000000E+00
  1.30000000E+00  1.70000000E+00  1.70000000E+00  1.70000000E+00  1.30000000E+00
  1.30000000E+00  1.70000000E+00  1.30000000E+00  1.70000000E+00  1.30000000E+00
  1.70000000E+00  1.30000000E+00  1.30000000E+00  1.70000000E+00  1.30000000E+00
  1.30000000E+00  1.70000000E+00  1.30000000E+00  1.30000000E+00  1.30000000E+00
  1.30000000E+00  1.30000000E+00  1.70000000E+00  1.70000000E+00  1.30000000E+00
  1.30000000E+00  1.30000000E+00  1.70000000E+00  1.30000000E+00  1.30000000E+00
  1.30000000E+00  1.30000000E+00  1.80000000E+00  1.70000000E+00  1.70000000E+00
  1.70000000E+00  1.70000000E+00  1.70000000E+00  1.80000000E+00  1.70000000E+00
  1.70000000E+00  1.30000000E+00  1.70000000E+00  1.70000000E+00  1.70000000E+00
  1.70000000E+00  1.70000000E+00  1.30000000E+00  1.70000000E+00  1.70000000E+00
  1.30000000E+00  1.30000000E+00  1.70000000E+00  1.30000000E+00  1.30000000E+00
  1.70000000E+00  1.30000000E+00  1.30000000E+00  1.70000000E+00  1.30000000E+00
  1.30000000E+00  1.70000000E+00  1.70000000E+00  1.30000000E+00  1.30000000E+00
  1.70000000E+00  1.70000000E+00  1.70000000E+00  1.30000000E+00  1.30000000E+00
  1.70000000E+00  1.30000000E+00  1.70000000E+00  1.30000000E+00  1.70000000E+00
  1.30000000E+00  1.30000000E+00  1.70000000E+00  1.30000000E+00  1.30000000E+00
  1.70000000E+00  1.30000000E+00  1.30000000E+00  1.30000000E+00  1.30000000E+00
  1.30000000E+00  1.70000000E+00  1.70000000E+00  1.30000000E+00  1.30000000E+00
  1.30000000E+00  1.70000000E+00  1.30000000E+00  1.30000000E+00  1.30000000E+00
  1.30000000E+00  1.80000000E+00  1.70000000E+00  1.70000000E+00  1.70000000E+00
  1.70000000E+00  1.70000000E+00  1.80000000E+00  1.70000000E+00  1.70000000E+00
  1.30000000E+00  1.70000000E+00  1.70000000E+00  1.70000000E+00  1.70000000E+00
  1.70000000E+00  1.30000000E+00  1.70000000E+00  1.70000000E+00  1.30000000E+00
  1.30000000E+00  1.70000000E+00  1.30000000E+00  1.30000000E+00  1.70000000E+00
  1.30000000E+00  1.30000000E+00  1.70000000E+00  1.30000000E+00  1.30000000E+00
  1.70000000E+00  1.70000000E+00  1.30000000E+00  1.30000000E+00  1.70000000E+00
  1.70000000E+00  1.70000000E+00  1.30000000E+00  1.30000000E+00  1.70000000E+00
  1.30000000E+00  1.70000000E+00  1.30000000E+00  1.70000000E+00  1.30000000E+00
  1.30000000E+00  1.70000000E+00  1.30000000E+00  1.30000000E+00  1.70000000E+00
  1.30000000E+00  1.30000000E+00  1.30000000E+00  1.30000000E+00  1.30000000E+00
  1.70000000E+00  1.70000000E+00  1.30000000E+00  1.30000000E+00  1.30000000E+00
  1.70000000E+00  1.30000000E+00  1.30000000E+00  1.30000000E+00  1.30000000E+00
  1.80000000E+00  1.70000000E+00  1.70000000E+00  1.70000000E+00  1.70000000E+00
  1.70000000E+00  1.80000000E+00  1.70000000E+00  1.70000000E+00  1.30000000E+00
  1.70000000E+00  1.70000000E+00  1.70000000E+00  1.70000000E+00  1.70000000E+00
  1.30000000E+00  1.70000000E+00  1.70000000E+00  1.30000000E+00  1.30000000E+00
  1.70000000E+00  1.30000000E+00  1.30000000E+00  1.70000000E+00  1.30000000E+00
  1.30000000E+00  1.70000000E+00  1.30000000E+00  1.30000000E+00  1.70000000E+00
  1.70000000E+00  1.30000000E+00  1.30000000E+00  1.70000000E+00  1.70000000E+00
  1.70000000E+00  1.30000000E+00  1.30000000E+00  1.70000000E+00  1.30000000E+00
  1.70000000E+00  1.30000000E+00  1.70000000E+00  1.30000000E+00  1.30000000E+00
  1.70000000E+00  1.30000000E+00  1.30000000E+00  1.70000000E+00  1.30000000E+00
  1.30000000E+00  1.30000000E+00  1.30000000E+00  1.30000000E+00  1.70000000E+00
  1.70000000E+00  1.30000000E+00  1.30000000E+00  1.30000000E+00  1.70000000E+00
  1.30000000E+00  1.30000000E+00  1.30000000E+00  1.30000000E+00  1.80000000E+00
  1.70000000E+00  1.70000000E+00  1.70000000E+00  1.70000000E+00  1.70000000E+00
  1.80000000E+00  1.70000000E+00  1.70000000E+00  1.30000000E+00  1.70000000E+00
  1.70000000E+00  1.70000000E+00  1.70000000E+00  1.70000000E+00  1.30000000E+00
  1.70000000E+00  1.70000000E+00  1.30000000E+00  1.30000000E+00  1.70000000E+00
  1.30000000E+00  1.30000000E+00  1.70000000E+00  1.30000000E+00  1.30000000E+00
  1.70000000E+00  1.30000000E+00  1.30000000E+00  1.70000000E+00  1.70000000E+00
  1.30000000E+00  1.30000000E+00  1.70000000E+00  1.70000000E+00  1.70000000E+00
  1.30000000E+00  1.30000000E+00  1.70000000E+00  1.30000000E+00  1.70000000E+00
  1.30000000E+00  1.70000000E+00  1.30000000E+00  1.30000000E+00  1.70000000E+00
  1.30000000E+00  1.30000000E+00  1.70000000E+00  1.30000000E+00  1.30000000E+00
  1.30000000E+00  1.30000000E+00  1.30000000E+00  1.70000000E+00  1.70000000E+00
  1.30000000E+00  1.30000000E+00  1.30000000E+00  1.70000000E+00  1.30000000E+00
  1.30000000E+00  1.30000000E+00  1.30000000E+00  1.80000000E+00  1.70000000E+00
  1.70000000E+00  1.70000000E+00  1.70000000E+00  1.70000000E+00  1.80000000E+00
  1.70000000E+00  1.70000000E+00  1.30000000E+00  1.70000000E+00  1.70000000E+00
  1.70000000E+00  1.70000000E+00  1.70000000E+00  1.30000000E+00  1.70000000E+00
  1.70000000E+00  1.30000000E+00  1.30000000E+00  1.70000000E+00  1.30000000E+00
  1.30000000E+00  1.70000000E+00  1.30000000E+00  1.30000000E+00  1.70000000E+00
  1.30000000E+00  1.30000000E+00  1.70000000E+00  1.70000000E+00  1.30000000E+00
  1.30000000E+00  1.70000000E+00  1.70000000E+00  1.70000000E+00  1.30000000E+00
  1.30000000E+00  1.70000000E+00  1.30000000E+00  1.70000000E+00  1.30000000E+00
  1.70000000E+00  1.30000000E+00  1.30000000E+00  1.70000000E+00  1.30000000E+00
  1.30000000E+00  1.70000000E+00  1.30000000E+00  1.30000000E+00  1.30000000E+00
  1.30000000E+00  1.30000000E+00  1.70000000E+00  1.70000000E+00  1.30000000E+00
  1.30000000E+00  1.30000000E+00  1.70000000E+00  1.30000000E+00  1.30000000E+00
  1.30000000E+00  1.30000000E+00  1.80000000E+00  1.70000000E+00  1.70000000E+00
  1.70000000E+00  1.70000000E+00  1.70000000E+00  1.80000000E+00  1.70000000E+00
  1.70000000E+00  1.30000000E+00  1.70000000E+00  1.70000000E+00  1.70000000E+00
  1.70000000E+00  1.70000000E+00  1.30000000E+00  1.70000000E+00  1.70000000E+00
  1.30000000E+00  1.30000000E+00  1.70000000E+00  1.30000000E+00  1.30000000E+00
  1.70000000E+00  1.30000000E+00  1.30000000E+00  1.70000000E+00  1.30000000E+00
  1.30000000E+00  1.70000000E+00  1.70000000E+00  1.30000000E+00  1.30000000E+00
  1.70000000E+00  1.70000000E+00  1.70000000E+00  1.30000000E+00  1.30000000E+00
  1.70000000E+00  1.30000000E+00  1.70000000E+00  1.30000000E+00  1.70000000E+00
  1.30000000E+00  1.30000000E+00  1.70000000E+00  1.30000000E+00  1.30000000E+00
  1.70000000E+00  1.30000000E+00  1.30000000E+00  1.30000000E+00  1.30000000E+00
  1.30000000E+00  1.70000000E+00  1.70000000E+00  1.30000000E+00  1.30000000E+00
  1.30000000E+00  1.70000000E+00  1.30000000E+00  1.30000000E+00  1.30000000E+00
  1.30000000E+00  1.80000000E+00  1.70000000E+00  1.70000000E+00  1.70000000E+00
  1.70000000E+00  1.70000000E+00  1.80000000E+00  1.70000000E+00  1.70000000E+00
  1.30000000E+00  1.70000000E+00  1.70000000E+00  1.70000000E+00  1.70000000E+00
  1.70000000E+00  1.30000000E+00  1.70000000E+00  1.70000000E+00  1.30000000E+00
  1.30000000E+00  1.70000000E+00  1.30000000E+00  1.30000000E+00  1.70000000E+00
  1.30000000E+00  1.30000000E+00  1.70000000E+00  1.30000000E+00  1.30000000E+00
  1.70000000E+00  1.70000000E+00  1.30000000E+00  1.30000000E+00  1.70000000E+00
  1.70000000E+00  1.70000000E+00  1.30000000E+00  1.30000000E+00  1.70000000E+00
  1.30000000E+00  1.70000000E+00  1.30000000E+00  1.70000000E+00  1.30000000E+00
  1.30000000E+00  1.70000000E+00  1.30000000E+00  1.30000000E+00  1.70000000E+00
  1.30000000E+00  1.30000000E+00  1.30000000E+00  1.30000000E+00  1.30000000E+00
  1.70000000E+00  1.70000000E+00  1.30000000E+00  1.30000000E+00  1.30000000E+00
  1.70000000E+00  1.30000000E+00  1.30000000E+00  1.30000000E+00  1.30000000E+00
  1.80000000E+00  1.70000000E+00  1.70000000E+00  1.70000000E+00  1.70000000E+00
  1.70000000E+00  1.80000000E+00  1.70000000E+00  1.70000000E+00  1.30000000E+00
  1.70000000E+00  1.70000000E+00  1.70000000E+00  1.70000000E+00  1.70000000E+00
  1.30000000E+00  1.70000000E+00  1.70000000E+00  1.30000000E+00  1.30000000E+00
  1.70000000E+00  1.30000000E+00  1.30000000E+00  1.70000000E+00  1.30000000E+00
  1.30000000E+00  1.70000000E+00  1.30000000E+00  1.30000000E+00  1.70000000E+00
  1.70000000E+00  1.30000000E+00  1.30000000E+00  1.70000000E+00  1.70000000E+00
  1.70000000E+00  1.30000000E+00  1.30000000E+00  1.70000000E+00  1.30000000E+00
  1.70000000E+00  1.30000000E+00  1.70000000E+00  1.30000000E+00  1.30000000E+00
  1.70000000E+00  1.30000000E+00  1.30000000E+00  1.70000000E+00  1.30000000E+00
  1.30000000E+00  1.30000000E+00  1.30000000E+00  1.30000000E+00  1.70000000E+00
  1.70000000E+00  1.30000000E+00  1.30000000E+00  1.30000000E+00  1.70000000E+00
  1.30000000E+00  1.30000000E+00  1.30000000E+00  1.30000000E+00  1.80000000E+00
  1.70000000E+00  1.70000000E+00  1.70000000E+00  1.70000000E+00  1.70000000E+00
  1.80000000E+00  1.70000000E+00  1.70000000E+00  1.30000000E+00  1.70000000E+00
  1.70000000E+00  1.70000000E+00  1.70000000E+00  1.70000000E+00  1.30000000E+00
  1.70000000E+00  1.70000000E+00  1.30000000E+00  1.30000000E+00  1.70000000E+00
  1.30000000E+00  1.30000000E+00  1.70000000E+00  1.30000000E+00  1.30000000E+00
  1.70000000E+00  1.30000000E+00  1.30000000E+00  1.70000000E+00  1.70000000E+00
  1.30000000E+00  1.30000000E+00  1.70000000E+00  1.70000000E+00  1.70000000E+00
  1.30000000E+00  1.30000000E+00  1.70000000E+00  1.30000000E+00  1.70000000E+00
  1.30000000E+00  1.70000000E+00  1.30000000E+00  1.30000000E+00  1.70000000E+00
  1.30000000E+00  1.30000000E+00  1.70000000E+00  1.30000000E+00  1.30000000E+00
  1.30000000E+00  1.30000000E+00  1.30000000E+00  1.70000000E+00  1.70000000E+00
  1.30000000E+00  1.30000000E+00  1.30000000E+00  1.70000000E+00  1.30000000E+00
  1.30000000E+00  1.30000000E+00  1.30000000E+00  1.80000000E+00  1.70000000E+00
  1.70000000E+00  1.70000000E+00  1.70000000E+00  1.70000000E+00  1.80000000E+00
  1.70000000E+00  1.70000000E+00  1.30000000E+00  1.70000000E+00  1.70000000E+00
  1.70000000E+00  1.70000000E+00  1.70000000E+00  1.30000000E+00  1.70000000E+00
  1.70000000E+00  1.30000000E+00  1.30000000E+00  1.70000000E+00  1.30000000E+00
  1.30000000E+00  1.70000000E+00  1.30000000E+00  1.30000000E+00  1.70000000E+00
  1.30000000E+00  1.30000000E+00  1.70000000E+00  1.70000000E+00  1.30000000E+00
  1.30000000E+00  1.70000000E+00  1.70000000E+00  1.70000000E+00  1.30000000E+00
  1.30000000E+00  1.70000000E+00  1.30000000E+00  1.70000000E+00  1.30000000E+00
  1.70000000E+00  1.30000000E+00  1.30000000E+00  1.70000000E+00  1.30000000E+00
  1.30000000E+00  1.70000000E+00  1.30000000E+00  1.30000000E+00  1.30000000E+00
  1.30000000E+00  1.30000000E+00  1.70000000E+00  1.70000000E+00  1.30000000E+00
  1.30000000E+00  1.30000000E+00  1.70000000E+00  1.30000000E+00  1.30000000E+00
  1.30000000E+00  1.30000000E+00  1.80000000E+00  1.70000000E+00  1.70000000E+00
  1.70000000E+00  1.70000000E+00  1.70000000E+00  1.80000000E+00  1.70000000E+00
  1.70000000E+00  1.30000000E+00  1.70000000E+00  1.70000000E+00  1.70000000E+00
  1.70000000E+00  1.70000000E+00  1.30000000E+00  1.70000000E+00  1.70000000E+00
  1.30000000E+00  1.30000000E+00  1.70000000E+00  1.30000000E+00  1.30000000E+00
  1.70000000E+00  1.30000000E+00  1.30000000E+00  1.70000000E+00  1.30000000E+00
  1.30000000E+00  1.70000000E+00  1.70000000E+00  1.30000000E+00  1.30000000E+00
  1.70000000E+00  1.70000000E+00  1.70000000E+00  1.30000000E+00  1.30000000E+00
  1.70000000E+00  1.30000000E+00  1.70000000E+00  1.30000000E+00  1.70000000E+00
  1.30000000E+00  1.30000000E+00  1.70000000E+00  1.30000000E+00  1.30000000E+00
  1.70000000E+00  1.30000000E+00  1.30000000E+00  1.30000000E+00  1.30000000E+00
  1.30000000E+00  1.70000000E+00  1.70000000E+00  1.30000000E+00  1.30000000E+00
  1.30000000E+00  1.70000000E+00  1.30000000E+00  1.30000000E+00  1.30000000E+00
  1.30000000E+00  1.80000000E+00  1.70000000E+00  1.70000000E+00  1.70000000E+00
  1.70000000E+00  1.70000000E+00  1.80000000E+00  1.70000000E+00  1.70000000E+00
  1.30000000E+00  1.70000000E+00  1.70000000E+00  1.70000000E+00  1.70000000E+00
  1.70000000E+00  1.30000000E+00  1.70000000E+00  1.70000000E+00  1.30000000E+00
  1.30000000E+00  1.70000000E+00  1.30000000E+00  1.30000000E+00  1.70000000E+00
  1.30000000E+00  1.30000000E+00  1.70000000E+00  1.30000000E+00  1.30000000E+00
  1.70000000E+00  1.70000000E+00  1.30000000E+00  1.30000000E+00  1.70000000E+00
  1.70000000E+00  1.70000000E+00  1.30000000E+00  1.30000000E+00  1.70000000E+00
  1.30000000E+00  1.70000000E+00  1.30000000E+00  1.70000000E+00  1.30000000E+00
  1.30000000E+00  1.70000000E+00  1.30000000E+00  1.30000000E+00  1.70000000E+00
  1.30000000E+00  1.30000000E+00  1.30000000E+00  1.30000000E+00  1.30000000E+00
  1.70000000E+00  1.70000000E+00  1.30000000E+00  1.30000000E+00  1.30000000E+00
  1.70000000E+00  1.30000000E+00  1.30000000E+00  1.30000000E+00  1.30000000E+00
  1.80000000E+00  1.70000000E+00  1.70000000E+00  1.70000000E+00  1.70000000E+00
  1.70000000E+00  1.80000000E+00  1.70000000E+00  1.70000000E+00  1.30000000E+00
  1.70000000E+00  1.70000000E+00  1.70000000E+00  1.70000000E+00  1.70000000E+00
  1.30000000E+00  1.70000000E+00  1.70000000E+00  1.30000000E+00  1.30000000E+00
  1.70000000E+00  1.30000000E+00  1.30000000E+00  1.70000000E+00  1.30000000E+00
  1.30000000E+00  1.70000000E+00  1.30000000E+00  1.30000000E+00  1.70000000E+00
  1.70000000E+00  1.30000000E+00  1.30000000E+00  1.70000000E+00  1.70000000E+00
  1.70000000E+00  1.30000000E+00  1.30000000E+00  1.70000000E+00  1.30000000E+00
  1.70000000E+00  1.30000000E+00  1.70000000E+00  1.30000000E+00  1.30000000E+00
  1.70000000E+00  1.30000000E+00  1.30000000E+00  1.70000000E+00  1.30000000E+00
  1.30000000E+00  1.30000000E+00  1.30000000E+00  1.30000000E+00  1.70000000E+00
  1.70000000E+00  1.30000000E+00  1.30000000E+00  1.30000000E+00  1.70000000E+00
  1.30000000E+00  1.30000000E+00  1.30000000E+00  1.30000000E+00  1.80000000E+00
  1.70000000E+00  1.70000000E+00  1.70000000E+00  1.70000000E+00  1.70000000E+00
  1.80000000E+00  1.70000000E+00  1.70000000E+00  1.30000000E+00  1.70000000E+00
  1.70000000E+00  1.70000000E+00  1.70000000E+00  1.70000000E+00  1.30000000E+00
  1.70000000E+00  1.70000000E+00  1.30000000E+00  1.30000000E+00  1.70000000E+00
  1.30000000E+00  1.30000000E+00  1.70000000E+00  1.30000000E+00  1.30000000E+00
  1.70000000E+00  1.30000000E+00  1.30000000E+00  1.70000000E+00  1.70000000E+00
  1.30000000E+00  1.30000000E+00  1.70000000E+00  1.70000000E+00  1.70000000E+00
  1.30000000E+00  1.30000000E+00  1.70000000E+00  1.30000000E+00  1.70000000E+00
  1.30000000E+00  1.70000000E+00  1.30000000E+00  1.30000000E+00  1.70000000E+00
  1.30000000E+00  1.30000000E+00  1.70000000E+00  1.30000000E+00  1.30000000E+00
  1.30000000E+00  1.30000000E+00  1.30000000E+00  1.70000000E+00  1.70000000E+00
  1.30000000E+00  1.30000000E+00  1.30000000E+00  1.70000000E+00  1.30000000E+00
  1.30000000E+00  1.30000000E+00  1.30000000E+00  1.80000000E+00  1.70000000E+00
  1.70000000E+00  1.70000000E+00  1.70000000E+00  1.70000000E+00  1.80000000E+00
  1.70000000E+00  1.70000000E+00  1.30000000E+00  1.70000000E+00  1.70000000E+00
  1.70000000E+00  1.70000000E+00  1.70000000E+00  1.30000000E+00  1.70000000E+00
  1.70000000E+00  1.30000000E+00  1.30000000E+00  1.70000000E+00  1.30000000E+00
  1.30000000E+00  1.70000000E+00  1.30000000E+00  1.30000000E+00  1.70000000E+00
  1.30000000E+00  1.30000000E+00  1.70000000E+00  1.70000000E+00  1.30000000E+00
  1.30000000E+00  1.70000000E+00  1.70000000E+00  1.70000000E+00  1.30000000E+00
  1.30000000E+00  1.70000000E+00  1.30000000E+00  1.70000000E+00  1.30000000E+00
  1.70000000E+00  1.30000000E+00  1.30000000E+00  1.70000000E+00  1.30000000E+00
  1.30000000E+00  1.70000000E+00  1.30000000E+00  1.30000000E+00  1.30000000E+00
  1.30000000E+00  1.30000000E+00  1.70000000E+00  1.70000000E+00  1.30000000E+00
  1.30000000E+00  1.30000000E+00  1.70000000E+00  1.30000000E+00  1.30000000E+00
  1.30000000E+00  1.30000000E+00  1.80000000E+00  1.70000000E+00  1.70000000E+00
  1.70000000E+00  1.70000000E+00  1.70000000E+00  1.80000000E+00  1.70000000E+00
  1.70000000E+00  1.30000000E+00  1.70000000E+00  1.70000000E+00  1.70000000E+00
  1.70000000E+00  1.70000000E+00  1.30000000E+00  1.70000000E+00  1.70000000E+00
  1.30000000E+00  1.30000000E+00  1.70000000E+00  1.30000000E+00  1.30000000E+00
  1.70000000E+00  1.30000000E+00  1.30000000E+00  1.70000000E+00  1.30000000E+00
  1.30000000E+00  1.70000000E+00  1.70000000E+00  1.30000000E+00  1.30000000E+00
  1.70000000E+00  1.70000000E+00  1.70000000E+00  1.30000000E+00  1.30000000E+00
  1.70000000E+00  1.30000000E+00  1.70000000E+00  1.30000000E+00  1.70000000E+00
  1.30000000E+00  1.30000000E+00  1.70000000E+00  1.30000000E+00  1.30000000E+00
  1.70000000E+00  1.30000000E+00  1.30000000E+00  1.30000000E+00  1.30000000E+00
  1.30000000E+00  1.70000000E+00  1.70000000E+00  1.30000000E+00  1.30000000E+00
  1.30000000E+00  1.70000000E+00  1.30000000E+00  1.30000000E+00  1.30000000E+00
  1.30000000E+00  1.80000000E+00  1.70000000E+00  1.70000000E+00  1.70000000E+00
  1.70000000E+00  1.70000000E+00  1.80000000E+00  1.70000000E+00  1.70000000E+00
  1.30000000E+00  1.70000000E+00  1.70000000E+00  1.70000000E+00  1.70000000E+00
  1.70000000E+00  1.30000000E+00  1.70000000E+00  1.70000000E+00  1.30000000E+00
  1.30000000E+00  1.70000000E+00  1.30000000E+00  1.30000000E+00  1.70000000E+00
  1.30000000E+00  1.30000000E+00  1.70000000E+00  1.30000000E+00  1.30000000E+00
  1.70000000E+00  1.70000000E+00  1.30000000E+00  1.30000000E+00  1.70000000E+00
  1.70000000E+00  1.70000000E+00  1.30000000E+00  1.30000000E+00  1.70000000E+00
  1.30000000E+00  1.70000000E+00  1.30000000E+00  1.70000000E+00  1.30000000E+00
  1.30000000E+00  1.70000000E+00  1.30000000E+00  1.30000000E+00  1.70000000E+00
  1.30000000E+00  1.30000000E+00  1.30000000E+00  1.30000000E+00  1.30000000E+00
  1.70000000E+00  1.70000000E+00  1.30000000E+00  1.30000000E+00  1.30000000E+00
  1.70000000E+00  1.30000000E+00  1.30000000E+00  1.30000000E+00  1.30000000E+00
  1.80000000E+00  1.70000000E+00  1.70000000E+00  1.70000000E+00  1.70000000E+00
  1.70000000E+00  1.80000000E+00  1.70000000E+00  1.70000000E+00  1.30000000E+00
  1.70000000E+00  1.70000000E+00  1.70000000E+00  1.70000000E+00  1.70000000E+00
  1.30000000E+00  1.70000000E+00  1.70000000E+00  1.30000000E+00  1.30000000E+00
  1.70000000E+00  1.30000000E+00  1.30000000E+00  1.70000000E+00  1.30000000E+00
  1.30000000E+00  1.70000000E+00  1.30000000E+00  1.30000000E+00  1.70000000E+00
  1.70000000E+00  1.30000000E+00  1.30000000E+00  1.70000000E+00  1.70000000E+00
  1.70000000E+00  1.30000000E+00  1.30000000E+00  1.70000000E+00  1.30000000E+00
  1.70000000E+00  1.30000000E+00  1.70000000E+00  1.30000000E+00  1.30000000E+00
  1.70000000E+00  1.30000000E+00  1.30000000E+00  1.70000000E+00  1.30000000E+00
  1.30000000E+00  1.30000000E+00  1.30000000E+00  1.30000000E+00  1.70000000E+00
  1.70000000E+00  1.30000000E+00  1.30000000E+00  1.30000000E+00  1.70000000E+00
  1.30000000E+00  1.30000000E+00  1.30000000E+00  1.30000000E+00  1.80000000E+00
  1.70000000E+00  1.70000000E+00  1.70000000E+00  1.70000000E+00  1.70000000E+00
  1.80000000E+00  1.70000000E+00  1.70000000E+00  1.30000000E+00  1.70000000E+00
  1.70000000E+00  1.70000000E+00  1.70000000E+00  1.70000000E+00  1.30000000E+00
  1.70000000E+00  1.70000000E+00  1.30000000E+00  1.30000000E+00  1.70000000E+00
  1.30000000E+00  1.30000000E+00  1.70000000E+00  1.30000000E+00  1.30000000E+00
  1.70000000E+00  1.30000000E+00  1.30000000E+00  1.70000000E+00  1.70000000E+00
  1.30000000E+00  1.30000000E+00  1.70000000E+00  1.70000000E+00  1.70000000E+00
  1.30000000E+00  1.30000000E+00  1.70000000E+00  1.30000000E+00  1.70000000E+00
  1.30000000E+00  1.70000000E+00  1.30000000E+00  1.30000000E+00  1.70000000E+00
  1.30000000E+00  1.30000000E+00  1.70000000E+00  1.30000000E+00  1.30000000E+00
  1.30000000E+00  1.30000000E+00  1.30000000E+00  1.70000000E+00  1.70000000E+00
  1.30000000E+00  1.30000000E+00  1.30000000E+00  1.70000000E+00  1.30000000E+00
  1.30000000E+00  1.30000000E+00  1.30000000E+00  1.80000000E+00  1.70000000E+00
  1.70000000E+00  1.70000000E+00  1.70000000E+00  1.70000000E+00  1.80000000E+00
  1.70000000E+00  1.70000000E+00  1.30000000E+00  1.70000000E+00  1.70000000E+00
  1.70000000E+00  1.70000000E+00  1.70000000E+00  1.30000000E+00  1.70000000E+00
  1.70000000E+00  1.30000000E+00  1.30000000E+00  1.70000000E+00  1.30000000E+00
  1.30000000E+00  1.70000000E+00  1.30000000E+00  1.30000000E+00  1.70000000E+00
  1.30000000E+00  1.30000000E+00  1.70000000E+00  1.70000000E+00  1.30000000E+00
  1.30000000E+00  1.70000000E+00  1.70000000E+00  1.70000000E+00  1.30000000E+00
  1.30000000E+00  1.70000000E+00  1.30000000E+00  1.70000000E+00  1.30000000E+00
  1.70000000E+00  1.30000000E+00  1.30000000E+00  1.70000000E+00  1.30000000E+00
  1.30000000E+00  1.70000000E+00  1.30000000E+00  1.30000000E+00  1.30000000E+00
  1.30000000E+00  1.30000000E+00  1.70000000E+00  1.70000000E+00  1.30000000E+00
  1.30000000E+00  1.30000000E+00  1.70000000E+00  1.30000000E+00  1.30000000E+00
  1.30000000E+00  1.30000000E+00  1.80000000E+00  1.70000000E+00  1.70000000E+00
  1.70000000E+00  1.70000000E+00  1.70000000E+00  1.80000000E+00  1.70000000E+00
  1.70000000E+00  1.30000000E+00  1.70000000E+00  1.70000000E+00  1.70000000E+00
  1.70000000E+00  1.70000000E+00  1.30000000E+00  1.70000000E+00  1.70000000E+00
  1.30000000E+00  1.30000000E+00  1.70000000E+00  1.30000000E+00  1.30000000E+00
  1.70000000E+00  1.30000000E+00  1.30000000E+00  1.70000000E+00  1.30000000E+00
  1.30000000E+00  1.70000000E+00  1.70000000E+00  1.30000000E+00  1.30000000E+00
  1.70000000E+00  1.70000000E+00  1.70000000E+00  1.30000000E+00  1.30000000E+00
  1.70000000E+00  1.30000000E+00  1.70000000E+00  1.30000000E+00  1.70000000E+00
  1.30000000E+00  1.30000000E+00  1.70000000E+00  1.30000000E+00  1.30000000E+00
  1.70000000E+00  1.30000000E+00  1.30000000E+00  1.30000000E+00  1.30000000E+00
  1.30000000E+00  1.70000000E+00  1.70000000E+00  1.30000000E+00  1.30000000E+00
  1.30000000E+00  1.70000000E+00  1.30000000E+00  1.30000000E+00  1.30000000E+00
  1.30000000E+00  1.80000000E+00  1.70000000E+00  1.70000000E+00  1.70000000E+00
  1.70000000E+00  1.70000000E+00  1.80000000E+00  1.70000000E+00  1.70000000E+00
  1.30000000E+00  1.70000000E+00  1.70000000E+00  1.70000000E+00  1.70000000E+00
  1.70000000E+00  1.30000000E+00  1.70000000E+00  1.70000000E+00  1.30000000E+00
  1.30000000E+00  1.70000000E+00  1.30000000E+00  1.30000000E+00  1.70000000E+00
  1.30000000E+00  1.30000000E+00  1.70000000E+00  1.30000000E+00  1.30000000E+00
  1.70000000E+00  1.70000000E+00  1.30000000E+00  1.30000000E+00  1.70000000E+00
  1.70000000E+00  1.70000000E+00  1.30000000E+00  1.30000000E+00  1.70000000E+00
  1.30000000E+00  1.70000000E+00  1.30000000E+00  1.70000000E+00  1.30000000E+00
  1.30000000E+00  1.70000000E+00  1.30000000E+00  1.30000000E+00  1.70000000E+00
  1.30000000E+00  1.30000000E+00  1.30000000E+00  1.30000000E+00  1.30000000E+00
  1.70000000E+00  1.70000000E+00  1.30000000E+00  1.30000000E+00  1.30000000E+00
  1.70000000E+00  1.30000000E+00  1.30000000E+00  1.30000000E+00  1.30000000E+00
  1.80000000E+00  1.70000000E+00  1.70000000E+00  1.70000000E+00  1.70000000E+00
  1.70000000E+00  1.80000000E+00  1.70000000E+00  1.70000000E+00  1.30000000E+00
  1.70000000E+00  1.70000000E+00  1.70000000E+00  1.70000000E+00  1.70000000E+00
  1.30000000E+00  1.70000000E+00  1.70000000E+00  1.30000000E+00  1.30000000E+00
  1.70000000E+00  1.30000000E+00  1.30000000E+00  1.70000000E+00  1.30000000E+00
  1.30000000E+00  1.70000000E+00  1.30000000E+00  1.30000000E+00  1.70000000E+00
  1.70000000E+00  1.30000000E+00  1.30000000E+00  1.70000000E+00  1.70000000E+00
  1.70000000E+00  1.30000000E+00  1.30000000E+00  1.70000000E+00  1.30000000E+00
  1.70000000E+00  1.30000000E+00  1.70000000E+00  1.30000000E+00  1.30000000E+00
  1.70000000E+00  1.30000000E+00  1.30000000E+00  1.70000000E+00  1.30000000E+00
  1.30000000E+00  1.30000000E+00  1.30000000E+00  1.30000000E+00  1.70000000E+00
  1.70000000E+00  1.30000000E+00  1.30000000E+00  1.30000000E+00  1.70000000E+00
  1.30000000E+00  1.30000000E+00  1.30000000E+00  1.30000000E+00  1.80000000E+00
  1.70000000E+00  1.70000000E+00  1.70000000E+00  1.70000000E+00  1.70000000E+00
  1.80000000E+00  1.70000000E+00  1.70000000E+00  1.30000000E+00  1.70000000E+00
  1.70000000E+00  1.70000000E+00  1.70000000E+00  1.70000000E+00  1.30000000E+00
  1.70000000E+00  1.70000000E+00  1.30000000E+00  1.30000000E+00  1.70000000E+00
  1.30000000E+00  1.30000000E+00  1.70000000E+00  1.30000000E+00  1.30000000E+00
  1.70000000E+00  1.30000000E+00  1.30000000E+00  1.70000000E+00  1.70000000E+00
  1.30000000E+00  1.30000000E+00  1.70000000E+00  1.70000000E+00  1.70000000E+00
  1.30000000E+00  1.30000000E+00  1.70000000E+00  1.30000000E+00  1.70000000E+00
  1.30000000E+00  1.70000000E+00  1.30000000E+00  1.30000000E+00  1.70000000E+00
  1.30000000E+00  1.30000000E+00  1.70000000E+00  1.30000000E+00  1.30000000E+00
  1.30000000E+00  1.30000000E+00  1.30000000E+00  1.70000000E+00  1.70000000E+00
  1.30000000E+00  1.30000000E+00  1.30000000E+00  1.70000000E+00  1.30000000E+00
  1.30000000E+00  1.30000000E+00  1.30000000E+00  1.80000000E+00  1.70000000E+00
  1.70000000E+00  1.70000000E+00  1.70000000E+00  1.70000000E+00  1.80000000E+00
  1.70000000E+00  1.70000000E+00  1.30000000E+00  1.70000000E+00  1.70000000E+00
  1.70000000E+00  1.70000000E+00  1.70000000E+00  1.30000000E+00  1.70000000E+00
  1.70000000E+00  1.30000000E+00  1.30000000E+00  1.70000000E+00  1.30000000E+00
  1.30000000E+00  1.70000000E+00  1.30000000E+00  1.30000000E+00  1.70000000E+00
  1.30000000E+00  1.30000000E+00  1.70000000E+00  1.70000000E+00  1.30000000E+00
  1.30000000E+00  1.70000000E+00  1.70000000E+00  1.70000000E+00  1.30000000E+00
  1.30000000E+00  1.70000000E+00  1.30000000E+00  1.70000000E+00  1.30000000E+00
  1.70000000E+00  1.30000000E+00  1.30000000E+00  1.70000000E+00  1.30000000E+00
  1.30000000E+00  1.70000000E+00  1.30000000E+00  1.30000000E+00  1.30000000E+00
  1.30000000E+00  1.30000000E+00  1.70000000E+00  1.70000000E+00  1.30000000E+00
  1.30000000E+00  1.30000000E+00  1.70000000E+00  1.30000000E+00  1.30000000E+00
  1.30000000E+00  1.30000000E+00  1.80000000E+00  1.70000000E+00  1.70000000E+00
  1.70000000E+00  1.70000000E+00  1.70000000E+00  1.80000000E+00  1.70000000E+00
  1.70000000E+00  1.30000000E+00  1.70000000E+00  1.70000000E+00  1.70000000E+00
  1.70000000E+00  1.70000000E+00  1.30000000E+00  1.70000000E+00  1.70000000E+00
  1.30000000E+00  1.30000000E+00  1.70000000E+00  1.30000000E+00  1.30000000E+00
  1.70000000E+00  1.30000000E+00  1.30000000E+00  1.70000000E+00  1.30000000E+00
  1.30000000E+00  1.70000000E+00  1.70000000E+00  1.30000000E+00  1.30000000E+00
  1.70000000E+00  1.70000000E+00  1.70000000E+00  1.30000000E+00  1.30000000E+00
  1.70000000E+00  1.30000000E+00  1.70000000E+00  1.30000000E+00  1.70000000E+00
  1.30000000E+00  1.30000000E+00  1.70000000E+00  1.30000000E+00  1.30000000E+00
  1.70000000E+00  1.30000000E+00  1.30000000E+00  1.30000000E+00  1.30000000E+00
  1.30000000E+00  1.70000000E+00  1.70000000E+00  1.30000000E+00  1.30000000E+00
  1.30000000E+00  1.70000000E+00  1.30000000E+00  1.30000000E+00  1.30000000E+00
  1.30000000E+00  1.80000000E+00  1.70000000E+00  1.70000000E+00  1.70000000E+00
  1.70000000E+00  1.70000000E+00  1.80000000E+00  1.70000000E+00  1.70000000E+00
  1.30000000E+00  1.70000000E+00  1.70000000E+00  1.70000000E+00  1.70000000E+00
  1.70000000E+00  1.30000000E+00  1.70000000E+00  1.70000000E+00  1.30000000E+00
  1.30000000E+00  1.70000000E+00  1.30000000E+00  1.30000000E+00  1.70000000E+00
  1.30000000E+00  1.30000000E+00  1.70000000E+00  1.30000000E+00  1.30000000E+00
  1.70000000E+00  1.70000000E+00  1.30000000E+00  1.30000000E+00  1.70000000E+00
  1.70000000E+00  1.70000000E+00  1.30000000E+00  1.30000000E+00  1.70000000E+00
  1.30000000E+00  1.70000000E+00  1.30000000E+00  1.70000000E+00  1.30000000E+00
  1.30000000E+00  1.70000000E+00  1.30000000E+00  1.30000000E+00  1.70000000E+00
  1.30000000E+00  1.30000000E+00  1.30000000E+00  1.30000000E+00  1.30000000E+00
  1.70000000E+00  1.70000000E+00  1.30000000E+00  1.30000000E+00  1.30000000E+00
  1.70000000E+00  1.30000000E+00  1.30000000E+00  1.30000000E+00  1.30000000E+00
  1.80000000E+00  1.70000000E+00  1.70000000E+00  1.70000000E+00  1.70000000E+00
  1.70000000E+00  1.80000000E+00  1.70000000E+00  1.70000000E+00  1.30000000E+00
  1.70000000E+00  1.70000000E+00  1.70000000E+00  1.70000000E+00  1.70000000E+00
  1.30000000E+00  1.70000000E+00  1.70000000E+00  1.30000000E+00  1.30000000E+00
  1.70000000E+00  1.30000000E+00  1.30000000E+00  1.70000000E+00  1.30000000E+00
  1.30000000E+00  1.70000000E+00  1.30000000E+00  1.30000000E+00  1.70000000E+00
  1.70000000E+00  1.30000000E+00  1.30000000E+00  1.70000000E+00  1.70000000E+00
  1.70000000E+00  1.30000000E+00  1.30000000E+00  1.70000000E+00  1.30000000E+00
  1.70000000E+00  1.30000000E+00  1.70000000E+00  1.30000000E+00  1.30000000E+00
  1.70000000E+00  1.30000000E+00  1.30000000E+00  1.70000000E+00  1.30000000E+00
  1.30000000E+00  1.30000000E+00  1.30000000E+00  1.30000000E+00  1.70000000E+00
  1.70000000E+00  1.30000000E+00  1.30000000E+00  1.30000000E+00  1.70000000E+00
  1.30000000E+00  1.30000000E+00  1.30000000E+00  1.30000000E+00  1.80000000E+00
  1.70000000E+00  1.70000000E+00  1.70000000E+00  1.70000000E+00  1.70000000E+00
  1.80000000E+00  1.70000000E+00  1.70000000E+00  1.30000000E+00  1.70000000E+00
  1.70000000E+00  1.70000000E+00  1.70000000E+00  1.70000000E+00  1.30000000E+00
  1.70000000E+00  1.70000000E+00  1.30000000E+00  1.30000000E+00  1.70000000E+00
  1.30000000E+00  1.30000000E+00  1.70000000E+00  1.30000000E+00  1.30000000E+00
  1.70000000E+00  1.30000000E+00  1.30000000E+00  1.70000000E+00  1.70000000E+00
  1.30000000E+00  1.30000000E+00  1.70000000E+00  1.70000000E+00  1.70000000E+00
  1.30000000E+00  1.30000000E+00  1.70000000E+00  1.30000000E+00  1.70000000E+00
  1.30000000E+00  1.70000000E+00  1.30000000E+00  1.30000000E+00  1.70000000E+00
  1.30000000E+00  1.30000000E+00  1.70000000E+00  1.30000000E+00  1.30000000E+00
  1.30000000E+00  1.30000000E+00  1.30000000E+00  1.70000000E+00  1.70000000E+00
  1.30000000E+00  1.30000000E+00  1.30000000E+00  1.70000000E+00  1.30000000E+00
  1.30000000E+00  1.30000000E+00  1.30000000E+00  1.80000000E+00  1.70000000E+00
  1.70000000E+00  1.70000000E+00  1.70000000E+00  1.70000000E+00  1.80000000E+00
  1.70000000E+00  1.70000000E+00  1.30000000E+00  1.70000000E+00  1.70000000E+00
  1.70000000E+00  1.70000000E+00  1.70000000E+00  1.30000000E+00  1.70000000E+00
  1.70000000E+00  1.30000000E+00  1.30000000E+00  1.70000000E+00  1.30000000E+00
  1.30000000E+00  1.70000000E+00  1.30000000E+00  1.30000000E+00  1.70000000E+00
  1.30000000E+00  1.30000000E+00  1.70000000E+00  1.70000000E+00  1.30000000E+00
  1.30000000E+00  1.70000000E+00  1.70000000E+00  1.70000000E+00  1.30000000E+00
  1.30000000E+00  1.70000000E+00  1.30000000E+00  1.70000000E+00  1.30000000E+00
  1.70000000E+00  1.30000000E+00  1.30000000E+00  1.70000000E+00  1.30000000E+00
  1.30000000E+00  1.70000000E+00  1.30000000E+00  1.30000000E+00  1.30000000E+00
  1.30000000E+00  1.30000000E+00  1.70000000E+00  1.70000000E+00  1.30000000E+00
  1.30000000E+00  1.30000000E+00  1.70000000E+00  1.30000000E+00  1.30000000E+00
  1.30000000E+00  1.30000000E+00  1.80000000E+00  1.70000000E+00  1.70000000E+00
  1.70000000E+00  1.70000000E+00  1.70000000E+00  1.80000000E+00  1.70000000E+00
  1.70000000E+00  1.30000000E+00  1.70000000E+00  1.70000000E+00  1.70000000E+00
  1.70000000E+00  1.70000000E+00  1.30000000E+00  1.70000000E+00  1.70000000E+00
  1.30000000E+00  1.30000000E+00  1.70000000E+00  1.30000000E+00  1.30000000E+00
  1.70000000E+00  1.30000000E+00  1.30000000E+00  1.70000000E+00  1.30000000E+00
  1.30000000E+00  1.70000000E+00  1.70000000E+00  1.30000000E+00  1.30000000E+00
  1.70000000E+00  1.70000000E+00  1.70000000E+00  1.30000000E+00  1.30000000E+00
  1.70000000E+00  1.30000000E+00  1.70000000E+00  1.30000000E+00  1.70000000E+00
  1.30000000E+00  1.30000000E+00  1.70000000E+00  1.30000000E+00  1.30000000E+00
  1.70000000E+00  1.30000000E+00  1.30000000E+00  1.30000000E+00  1.30000000E+00
  1.30000000E+00  1.70000000E+00  1.70000000E+00  1.30000000E+00  1.30000000E+00
  1.30000000E+00  1.70000000E+00  1.30000000E+00  1.30000000E+00  1.30000000E+00
  1.30000000E+00  1.80000000E+00  1.70000000E+00  1.70000000E+00  1.70000000E+00
  1.70000000E+00  1.70000000E+00  1.80000000E+00  1.70000000E+00  1.70000000E+00
  1.30000000E+00  1.70000000E+00  1.70000000E+00  1.70000000E+00  1.70000000E+00
  1.70000000E+00  1.30000000E+00  1.70000000E+00  1.70000000E+00  1.30000000E+00
  1.30000000E+00  1.70000000E+00  1.30000000E+00  1.30000000E+00  1.70000000E+00
  1.30000000E+00  1.30000000E+00  1.70000000E+00  1.30000000E+00  1.30000000E+00
  1.70000000E+00  1.70000000E+00  1.30000000E+00  1.30000000E+00  1.70000000E+00
  1.70000000E+00  1.70000000E+00  1.30000000E+00  1.30000000E+00  1.70000000E+00
  1.30000000E+00  1.70000000E+00  1.30000000E+00  1.70000000E+00  1.30000000E+00
  1.30000000E+00  1.70000000E+00  1.30000000E+00  1.30000000E+00  1.70000000E+00
  1.30000000E+00  1.30000000E+00  1.30000000E+00  1.30000000E+00  1.30000000E+00
  1.70000000E+00  1.70000000E+00  1.30000000E+00  1.30000000E+00  1.30000000E+00
  1.70000000E+00  1.30000000E+00  1.30000000E+00  1.30000000E+00  1.30000000E+00
  1.80000000E+00  1.70000000E+00  1.70000000E+00  1.70000000E+00  1.70000000E+00
  1.70000000E+00  1.80000000E+00  1.70000000E+00  1.70000000E+00  1.30000000E+00
  1.70000000E+00  1.70000000E+00  1.70000000E+00  1.70000000E+00  1.70000000E+00
  1.30000000E+00  1.70000000E+00  1.70000000E+00  1.30000000E+00  1.30000000E+00
  1.70000000E+00  1.30000000E+00  1.30000000E+00  1.70000000E+00  1.30000000E+00
  1.30000000E+00  1.70000000E+00  1.30000000E+00  1.30000000E+00  1.70000000E+00
  1.70000000E+00  1.30000000E+00  1.30000000E+00  1.70000000E+00  1.70000000E+00
  1.70000000E+00  1.30000000E+00  1.30000000E+00  1.70000000E+00  1.30000000E+00
  1.70000000E+00  1.30000000E+00  1.70000000E+00  1.30000000E+00  1.30000000E+00
  1.70000000E+00  1.30000000E+00  1.30000000E+00  1.70000000E+00  1.30000000E+00
  1.30000000E+00  1.30000000E+00  1.30000000E+00  1.30000000E+00  1.70000000E+00
  1.70000000E+00  1.30000000E+00  1.30000000E+00  1.30000000E+00  1.70000000E+00
  1.30000000E+00  1.30000000E+00  1.30000000E+00  1.30000000E+00  1.80000000E+00
  1.70000000E+00  1.70000000E+00  1.70000000E+00  1.70000000E+00  1.70000000E+00
  1.80000000E+00  1.70000000E+00  1.70000000E+00  1.30000000E+00  1.70000000E+00
  1.70000000E+00  1.70000000E+00  1.70000000E+00  1.70000000E+00  1.30000000E+00
  1.70000000E+00  1.70000000E+00  1.30000000E+00  1.30000000E+00  1.70000000E+00
  1.30000000E+00  1.30000000E+00  1.70000000E+00  1.30000000E+00  1.30000000E+00
  1.70000000E+00  1.30000000E+00  1.30000000E+00  1.70000000E+00  1.70000000E+00
  1.30000000E+00  1.30000000E+00  1.70000000E+00  1.70000000E+00  1.70000000E+00
  1.30000000E+00  1.30000000E+00  1.70000000E+00  1.30000000E+00  1.70000000E+00
  1.30000000E+00  1.70000000E+00  1.30000000E+00  1.30000000E+00  1.70000000E+00
  1.30000000E+00  1.30000000E+00  1.70000000E+00  1.30000000E+00  1.30000000E+00
  1.30000000E+00  1.30000000E+00  1.30000000E+00  1.70000000E+00  1.70000000E+00
  1.30000000E+00  1.30000000E+00  1.30000000E+00  1.70000000E+00  1.30000000E+00
  1.30000000E+00  1.30000000E+00  1.30000000E+00  1.80000000E+00  1.70000000E+00
  1.70000000E+00  1.70000000E+00  1.70000000E+00  1.70000000E+00  1.80000000E+00
  1.70000000E+00  1.70000000E+00  1.30000000E+00  1.70000000E+00  1.70000000E+00
  1.70000000E+00  1.70000000E+00  1.70000000E+00  1.30000000E+00  1.70000000E+00
  1.70000000E+00  1.30000000E+00  1.30000000E+00  1.70000000E+00  1.30000000E+00
  1.30000000E+00  1.70000000E+00  1.30000000E+00  1.30000000E+00  1.70000000E+00
  1.30000000E+00  1.30000000E+00  1.70000000E+00  1.70000000E+00  1.30000000E+00
  1.30000000E+00  1.70000000E+00  1.70000000E+00  1.70000000E+00  1.30000000E+00
  1.30000000E+00  1.70000000E+00  1.30000000E+00  1.70000000E+00  1.30000000E+00
  1.70000000E+00  1.30000000E+00  1.30000000E+00  1.70000000E+00  1.30000000E+00
  1.30000000E+00  1.70000000E+00  1.30000000E+00  1.30000000E+00  1.30000000E+00
  1.30000000E+00  1.30000000E+00  1.70000000E+00  1.70000000E+00  1.30000000E+00
  1.30000000E+00  1.30000000E+00  1.70000000E+00  1.30000000E+00  1.30000000E+00
  1.30000000E+00  1.30000000E+00  1.80000000E+00  1.70000000E+00  1.70000000E+00
  1.70000000E+00  1.70000000E+00  1.70000000E+00  1.80000000E+00  1.70000000E+00
  1.70000000E+00  1.30000000E+00  1.70000000E+00  1.70000000E+00  1.70000000E+00
  1.70000000E+00  1.70000000E+00  1.30000000E+00  1.70000000E+00  1.70000000E+00
  1.30000000E+00  1.30000000E+00  1.70000000E+00  1.30000000E+00  1.30000000E+00
  1.70000000E+00  1.30000000E+00  1.30000000E+00  1.70000000E+00  1.30000000E+00
  1.30000000E+00  1.70000000E+00  1.70000000E+00  1.30000000E+00  1.30000000E+00
  1.70000000E+00  1.70000000E+00  1.70000000E+00  1.30000000E+00  1.30000000E+00
  1.70000000E+00  1.30000000E+00  1.70000000E+00  1.30000000E+00  1.70000000E+00
  1.30000000E+00  1.30000000E+00  1.70000000E+00  1.30000000E+00  1.30000000E+00
  1.70000000E+00  1.30000000E+00  1.30000000E+00  1.30000000E+00  1.30000000E+00
  1.30000000E+00  1.70000000E+00  1.70000000E+00  1.30000000E+00  1.30000000E+00
  1.30000000E+00  1.70000000E+00  1.30000000E+00  1.30000000E+00  1.30000000E+00
  1.30000000E+00  1.80000000E+00  1.70000000E+00  1.70000000E+00  1.70000000E+00
  1.70000000E+00  1.70000000E+00  1.80000000E+00  1.70000000E+00  1.70000000E+00
  1.30000000E+00  1.70000000E+00  1.70000000E+00  1.70000000E+00  1.70000000E+00
  1.70000000E+00  1.30000000E+00  1.70000000E+00  1.70000000E+00  1.30000000E+00
  1.30000000E+00  1.70000000E+00  1.30000000E+00  1.30000000E+00  1.70000000E+00
  1.30000000E+00  1.30000000E+00  1.70000000E+00  1.30000000E+00  1.30000000E+00
  1.70000000E+00  1.70000000E+00  1.30000000E+00  1.30000000E+00  1.70000000E+00
  1.70000000E+00  1.70000000E+00  1.30000000E+00  1.30000000E+00  1.70000000E+00
  1.30000000E+00  1.70000000E+00  1.30000000E+00  1.70000000E+00  1.30000000E+00
  1.30000000E+00  1.70000000E+00  1.30000000E+00  1.30000000E+00  1.70000000E+00
  1.30000000E+00  1.30000000E+00  1.30000000E+00  1.30000000E+00  1.30000000E+00
  1.70000000E+00  1.70000000E+00  1.30000000E+00  1.30000000E+00  1.30000000E+00
  1.70000000E+00  1.30000000E+00  1.30000000E+00  1.30000000E+00  1.30000000E+00
  1.80000000E+00  1.70000000E+00  1.70000000E+00  1.70000000E+00  1.70000000E+00
  1.70000000E+00  1.80000000E+00  1.70000000E+00  1.70000000E+00  1.30000000E+00
  1.70000000E+00  1.70000000E+00  1.70000000E+00  1.70000000E+00  1.70000000E+00
  1.30000000E+00  1.70000000E+00  1.70000000E+00  1.30000000E+00  1.30000000E+00
  1.70000000E+00  1.30000000E+00  1.30000000E+00  1.70000000E+00  1.30000000E+00
  1.30000000E+00  1.70000000E+00  1.30000000E+00  1.30000000E+00  1.70000000E+00
  1.70000000E+00  1.30000000E+00  1.30000000E+00  1.70000000E+00  1.70000000E+00
  1.70000000E+00  1.30000000E+00  1.30000000E+00  1.70000000E+00  1.30000000E+00
  1.70000000E+00  1.30000000E+00  1.70000000E+00  1.30000000E+00  1.30000000E+00
  1.70000000E+00  1.30000000E+00  1.30000000E+00  1.70000000E+00  1.30000000E+00
  1.30000000E+00  1.30000000E+00  1.30000000E+00  1.30000000E+00  1.70000000E+00
  1.70000000E+00  1.30000000E+00  1.30000000E+00  1.30000000E+00  1.70000000E+00
  1.30000000E+00  1.30000000E+00  1.30000000E+00  1.30000000E+00  1.80000000E+00
  1.70000000E+00  1.70000000E+00  1.70000000E+00  1.70000000E+00  1.70000000E+00
  1.80000000E+00  1.70000000E+00  1.70000000E+00  1.30000000E+00  1.70000000E+00
  1.70000000E+00  1.70000000E+00  1.70000000E+00  1.70000000E+00  1.30000000E+00
  1.70000000E+00  1.70000000E+00  1.30000000E+00  1.30000000E+00  1.70000000E+00
  1.30000000E+00  1.30000000E+00  1.70000000E+00  1.30000000E+00  1.30000000E+00
  1.70000000E+00  1.30000000E+00  1.30000000E+00  1.70000000E+00  1.70000000E+00
  1.30000000E+00  1.30000000E+00  1.70000000E+00  1.70000000E+00  1.70000000E+00
  1.30000000E+00  1.30000000E+00  1.70000000E+00  1.30000000E+00  1.70000000E+00
  1.30000000E+00  1.70000000E+00  1.30000000E+00  1.30000000E+00  1.70000000E+00
  1.30000000E+00  1.30000000E+00  1.70000000E+00  1.30000000E+00  1.30000000E+00
  1.30000000E+00  1.30000000E+00  1.30000000E+00  1.70000000E+00  1.70000000E+00
  1.30000000E+00  1.30000000E+00  1.30000000E+00  1.70000000E+00  1.30000000E+00
  1.30000000E+00  1.30000000E+00  1.30000000E+00  1.80000000E+00  1.70000000E+00
  1.70000000E+00  1.70000000E+00  1.70000000E+00  1.70000000E+00  1.80000000E+00
  1.70000000E+00  1.70000000E+00  1.30000000E+00  1.70000000E+00  1.70000000E+00
  1.70000000E+00  1.70000000E+00  1.70000000E+00  1.30000000E+00  1.70000000E+00
  1.70000000E+00  1.30000000E+00  1.30000000E+00  1.70000000E+00  1.30000000E+00
  1.30000000E+00  1.70000000E+00  1.30000000E+00  1.30000000E+00  1.70000000E+00
  1.30000000E+00  1.30000000E+00  1.70000000E+00  1.70000000E+00  1.30000000E+00
  1.30000000E+00  1.70000000E+00  1.70000000E+00  1.70000000E+00  1.30000000E+00
  1.30000000E+00  1.70000000E+00  1.30000000E+00  1.70000000E+00  1.30000000E+00
  1.70000000E+00  1.30000000E+00  1.30000000E+00  1.70000000E+00  1.30000000E+00
  1.30000000E+00  1.70000000E+00  1.30000000E+00  1.30000000E+00  1.30000000E+00
  1.30000000E+00  1.30000000E+00  1.70000000E+00  1.70000000E+00  1.30000000E+00
  1.30000000E+00  1.30000000E+00  1.70000000E+00  1.30000000E+00  1.30000000E+00
  1.30000000E+00  1.30000000E+00  1.80000000E+00  1.70000000E+00  1.70000000E+00
  1.70000000E+00  1.70000000E+00  1.70000000E+00  1.80000000E+00  1.70000000E+00
  1.70000000E+00  1.30000000E+00  1.70000000E+00  1.70000000E+00  1.70000000E+00
  1.70000000E+00  1.70000000E+00  1.30000000E+00  1.70000000E+00  1.70000000E+00
  1.30000000E+00  1.30000000E+00  1.70000000E+00  1.30000000E+00  1.30000000E+00
  1.70000000E+00  1.30000000E+00  1.30000000E+00  1.70000000E+00  1.30000000E+00
  1.30000000E+00  1.70000000E+00  1.70000000E+00  1.30000000E+00  1.30000000E+00
  1.70000000E+00  1.70000000E+00  1.70000000E+00  1.30000000E+00  1.30000000E+00
  1.70000000E+00  1.30000000E+00  1.70000000E+00  1.30000000E+00  1.70000000E+00
  1.30000000E+00  1.30000000E+00  1.70000000E+00  1.30000000E+00  1.30000000E+00
  1.70000000E+00  1.30000000E+00  1.30000000E+00  1.30000000E+00  1.30000000E+00
  1.30000000E+00  1.70000000E+00  1.70000000E+00  1.30000000E+00  1.30000000E+00
  1.30000000E+00  1.70000000E+00  1.30000000E+00  1.30000000E+00  1.30000000E+00
  1.30000000E+00  1.80000000E+00  1.70000000E+00  1.70000000E+00  1.70000000E+00
  1.70000000E+00  1.70000000E+00  1.80000000E+00  1.70000000E+00  1.70000000E+00
  1.30000000E+00  1.70000000E+00  1.70000000E+00  1.70000000E+00  1.70000000E+00
  1.70000000E+00  1.30000000E+00  1.70000000E+00  1.70000000E+00  1.30000000E+00
  1.30000000E+00  1.70000000E+00  1.30000000E+00  1.30000000E+00  1.70000000E+00
  1.30000000E+00  1.30000000E+00  1.70000000E+00  1.30000000E+00  1.30000000E+00
  1.70000000E+00  1.70000000E+00  1.30000000E+00  1.30000000E+00  1.70000000E+00
  1.70000000E+00  1.70000000E+00  1.30000000E+00  1.30000000E+00  1.70000000E+00
  1.30000000E+00  1.70000000E+00  1.30000000E+00  1.70000000E+00  1.30000000E+00
  1.30000000E+00  1.70000000E+00  1.30000000E+00  1.30000000E+00  1.70000000E+00
  1.30000000E+00  1.30000000E+00  1.30000000E+00  1.30000000E+00  1.30000000E+00
  1.70000000E+00  1.70000000E+00  1.30000000E+00  1.30000000E+00  1.30000000E+00
  1.70000000E+00  1.30000000E+00  1.30000000E+00  1.30000000E+00  1.30000000E+00
  1.80000000E+00  1.70000000E+00  1.70000000E+00  1.70000000E+00  1.70000000E+00
  1.70000000E+00  1.80000000E+00  1.70000000E+00  1.70000000E+00  1.30000000E+00
  1.70000000E+00  1.70000000E+00  1.70000000E+00  1.70000000E+00  1.70000000E+00
  1.30000000E+00  1.70000000E+00  1.70000000E+00  1.30000000E+00  1.30000000E+00
  1.70000000E+00  1.30000000E+00  1.30000000E+00  1.70000000E+00  1.30000000E+00
  1.30000000E+00  1.70000000E+00  1.30000000E+00  1.30000000E+00  1.70000000E+00
  1.70000000E+00  1.30000000E+00  1.30000000E+00  1.70000000E+00  1.70000000E+00
  1.70000000E+00  1.30000000E+00  1.30000000E+00  1.70000000E+00  1.30000000E+00
  1.70000000E+00  1.30000000E+00  1.70000000E+00  1.30000000E+00  1.30000000E+00
  1.70000000E+00  1.30000000E+00  1.30000000E+00  1.70000000E+00  1.30000000E+00
  1.30000000E+00  1.30000000E+00  1.30000000E+00  1.30000000E+00  1.70000000E+00
  1.70000000E+00  1.30000000E+00  1.30000000E+00  1.30000000E+00  1.70000000E+00
  1.30000000E+00  1.30000000E+00  1.30000000E+00  1.30000000E+00  1.80000000E+00
  1.70000000E+00  1.70000000E+00  1.70000000E+00  1.70000000E+00  1.70000000E+00
  1.80000000E+00  1.70000000E+00  1.70000000E+00  1.30000000E+00  1.70000000E+00
  1.70000000E+00  1.70000000E+00  1.70000000E+00  1.70000000E+00  1.30000000E+00
  1.70000000E+00  1.70000000E+00  1.30000000E+00  1.30000000E+00  1.70000000E+00
  1.30000000E+00  1.30000000E+00  1.70000000E+00  1.30000000E+00  1.30000000E+00
  1.70000000E+00  1.30000000E+00  1.30000000E+00  1.70000000E+00  1.70000000E+00
  1.30000000E+00  1.30000000E+00  1.70000000E+00  1.70000000E+00  1.70000000E+00
  1.30000000E+00  1.30000000E+00  1.70000000E+00  1.30000000E+00  1.70000000E+00
  1.30000000E+00  1.70000000E+00  1.30000000E+00  1.30000000E+00  1.70000000E+00
  1.30000000E+00  1.30000000E+00  1.70000000E+00  1.30000000E+00  1.30000000E+00
  1.30000000E+00  1.30000000E+00  1.30000000E+00  1.70000000E+00  1.70000000E+00
  1.30000000E+00  1.30000000E+00  1.30000000E+00  1.70000000E+00  1.30000000E+00
  1.30000000E+00  1.30000000E+00  1.30000000E+00  1.80000000E+00  1.70000000E+00
  1.70000000E+00  1.70000000E+00  1.70000000E+00  1.70000000E+00  1.80000000E+00
  1.70000000E+00  1.70000000E+00  1.30000000E+00  1.70000000E+00  1.70000000E+00
  1.70000000E+00  1.70000000E+00  1.70000000E+00  1.30000000E+00  1.70000000E+00
  1.70000000E+00  1.30000000E+00  1.30000000E+00  1.70000000E+00  1.30000000E+00
  1.30000000E+00  1.70000000E+00  1.30000000E+00  1.30000000E+00  1.70000000E+00
  1.30000000E+00  1.30000000E+00  1.70000000E+00  1.70000000E+00  1.30000000E+00
  1.30000000E+00  1.70000000E+00  1.70000000E+00  1.70000000E+00  1.30000000E+00
  1.30000000E+00  1.70000000E+00  1.30000000E+00  1.70000000E+00  1.30000000E+00
  1.70000000E+00  1.30000000E+00  1.30000000E+00  1.70000000E+00  1.30000000E+00
  1.30000000E+00  1.70000000E+00  1.30000000E+00  1.30000000E+00  1.30000000E+00
  1.30000000E+00  1.30000000E+00  1.70000000E+00  1.70000000E+00  1.30000000E+00
  1.30000000E+00  1.30000000E+00  1.70000000E+00  1.30000000E+00  1.30000000E+00
  1.30000000E+00  1.30000000E+00  1.80000000E+00  1.70000000E+00  1.70000000E+00
  1.70000000E+00  1.70000000E+00  1.70000000E+00  1.80000000E+00  1.70000000E+00
  1.70000000E+00  1.30000000E+00  1.70000000E+00  1.70000000E+00  1.70000000E+00
  1.70000000E+00  1.70000000E+00  1.30000000E+00  1.70000000E+00  1.70000000E+00
  1.30000000E+00  1.30000000E+00  1.70000000E+00  1.30000000E+00  1.30000000E+00
  1.70000000E+00  1.30000000E+00  1.30000000E+00  1.70000000E+00  1.30000000E+00
  1.30000000E+00  1.70000000E+00  1.70000000E+00  1.30000000E+00  1.30000000E+00
  1.70000000E+00  1.70000000E+00  1.70000000E+00  1.30000000E+00  1.30000000E+00
  1.70000000E+00  1.30000000E+00  1.70000000E+00  1.30000000E+00  1.70000000E+00
  1.30000000E+00  1.30000000E+00  1.70000000E+00  1.30000000E+00  1.30000000E+00
  1.70000000E+00  1.30000000E+00  1.30000000E+00  1.30000000E+00  1.30000000E+00
  1.30000000E+00  1.70000000E+00  1.70000000E+00  1.30000000E+00  1.30000000E+00
  1.30000000E+00  1.70000000E+00  1.30000000E+00  1.30000000E+00  1.30000000E+00
  1.30000000E+00  1.80000000E+00  1.70000000E+00  1.70000000E+00  1.70000000E+00
  1.70000000E+00  1.70000000E+00  1.80000000E+00  1.70000000E+00  1.70000000E+00
  1.30000000E+00  1.70000000E+00  1.70000000E+00  1.70000000E+00  1.70000000E+00
  1.70000000E+00  1.30000000E+00  1.70000000E+00  1.70000000E+00  1.30000000E+00
  1.30000000E+00  1.70000000E+00  1.30000000E+00  1.30000000E+00  1.70000000E+00
  1.30000000E+00  1.30000000E+00  1.70000000E+00  1.30000000E+00  1.30000000E+00
  1.70000000E+00  1.70000000E+00  1.30000000E+00  1.30000000E+00  1.70000000E+00
  1.70000000E+00  1.70000000E+00  1.30000000E+00  1.30000000E+00  1.70000000E+00
  1.30000000E+00  1.70000000E+00  1.30000000E+00  1.70000000E+00  1.30000000E+00
  1.30000000E+00  1.70000000E+00  1.30000000E+00  1.30000000E+00  1.70000000E+00
  1.30000000E+00  1.30000000E+00  1.30000000E+00  1.30000000E+00  1.30000000E+00
  1.70000000E+00  1.70000000E+00  1.30000000E+00  1.30000000E+00  1.30000000E+00
  1.70000000E+00  1.30000000E+00  1.30000000E+00  1.30000000E+00  1.30000000E+00
  1.80000000E+00  1.70000000E+00  1.70000000E+00  1.70000000E+00  1.70000000E+00
  1.70000000E+00  1.80000000E+00  1.70000000E+00  1.70000000E+00  1.30000000E+00
  1.70000000E+00  1.70000000E+00  1.70000000E+00  1.70000000E+00  1.70000000E+00
  1.30000000E+00  1.70000000E+00  1.70000000E+00  1.30000000E+00  1.30000000E+00
  1.70000000E+00  1.30000000E+00  1.30000000E+00  1.70000000E+00  1.30000000E+00
  1.30000000E+00  1.70000000E+00  1.30000000E+00  1.30000000E+00  1.70000000E+00
  1.70000000E+00  1.30000000E+00  1.30000000E+00  1.70000000E+00  1.70000000E+00
  1.70000000E+00  1.30000000E+00  1.30000000E+00  1.70000000E+00  1.30000000E+00
  1.70000000E+00  1.30000000E+00  1.70000000E+00  1.30000000E+00  1.30000000E+00
  1.70000000E+00  1.30000000E+00  1.30000000E+00  1.70000000E+00  1.30000000E+00
  1.30000000E+00  1.30000000E+00  1.30000000E+00  1.30000000E+00  1.70000000E+00
  1.70000000E+00  1.30000000E+00  1.30000000E+00  1.30000000E+00  1.70000000E+00
  1.30000000E+00  1.30000000E+00  1.30000000E+00  1.30000000E+00  1.80000000E+00
  1.70000000E+00  1.70000000E+00  1.70000000E+00  1.70000000E+00  1.70000000E+00
  1.80000000E+00  1.70000000E+00  1.70000000E+00  1.30000000E+00  1.70000000E+00
  1.70000000E+00  1.70000000E+00  1.70000000E+00  1.70000000E+00  1.30000000E+00
  1.70000000E+00  1.70000000E+00  1.30000000E+00  1.30000000E+00  1.70000000E+00
  1.30000000E+00  1.30000000E+00  1.70000000E+00  1.30000000E+00  1.30000000E+00
  1.70000000E+00  1.30000000E+00  1.30000000E+00  1.70000000E+00  1.70000000E+00
  1.30000000E+00  1.30000000E+00  1.70000000E+00  1.70000000E+00  1.70000000E+00
  1.30000000E+00  1.30000000E+00  1.70000000E+00  1.30000000E+00  1.70000000E+00
  1.30000000E+00  1.70000000E+00  1.30000000E+00  1.30000000E+00  1.70000000E+00
  1.30000000E+00  1.30000000E+00  1.70000000E+00  1.30000000E+00  1.30000000E+00
  1.30000000E+00  1.30000000E+00  1.30000000E+00  1.70000000E+00  1.70000000E+00
  1.30000000E+00  1.30000000E+00  1.30000000E+00  1.70000000E+00  1.30000000E+00
  1.30000000E+00  1.30000000E+00  1.30000000E+00  1.80000000E+00  1.70000000E+00
  1.70000000E+00  1.70000000E+00  1.70000000E+00  1.70000000E+00  1.80000000E+00
  1.70000000E+00  1.70000000E+00  1.30000000E+00  1.70000000E+00  1.70000000E+00
  1.70000000E+00  1.70000000E+00  1.70000000E+00  1.30000000E+00  1.70000000E+00
  1.70000000E+00  1.30000000E+00  1.30000000E+00  1.70000000E+00  1.30000000E+00
  1.30000000E+00  1.70000000E+00  1.30000000E+00  1.30000000E+00  1.70000000E+00
  1.30000000E+00  1.30000000E+00  1.70000000E+00  1.70000000E+00  1.30000000E+00
  1.30000000E+00  1.70000000E+00  1.70000000E+00  1.70000000E+00  1.30000000E+00
  1.30000000E+00  1.70000000E+00  1.30000000E+00  1.70000000E+00  1.30000000E+00
  1.70000000E+00  1.30000000E+00  1.30000000E+00  1.70000000E+00  1.30000000E+00
  1.30000000E+00  1.70000000E+00  1.30000000E+00  1.30000000E+00  1.30000000E+00
  1.30000000E+00  1.30000000E+00  1.70000000E+00  1.70000000E+00  1.30000000E+00
  1.30000000E+00  1.30000000E+00  1.70000000E+00  1.30000000E+00  1.30000000E+00
  1.30000000E+00  1.30000000E+00  1.80000000E+00  1.70000000E+00  1.70000000E+00
  1.70000000E+00  1.70000000E+00  1.70000000E+00  1.80000000E+00  1.70000000E+00
  1.70000000E+00  1.30000000E+00  1.70000000E+00  1.70000000E+00  1.70000000E+00
  1.70000000E+00  1.70000000E+00  1.30000000E+00  1.70000000E+00  1.70000000E+00
  1.30000000E+00  1.30000000E+00  1.70000000E+00  1.30000000E+00  1.30000000E+00
  1.70000000E+00  1.30000000E+00  1.30000000E+00  1.70000000E+00  1.30000000E+00
  1.30000000E+00  1.70000000E+00  1.70000000E+00  1.30000000E+00  1.30000000E+00
  1.70000000E+00  1.70000000E+00  1.70000000E+00  1.30000000E+00  1.30000000E+00
  1.70000000E+00  1.30000000E+00  1.70000000E+00  1.30000000E+00  1.70000000E+00
  1.30000000E+00  1.30000000E+00  1.70000000E+00  1.30000000E+00  1.30000000E+00
  1.70000000E+00  1.30000000E+00  1.30000000E+00  1.30000000E+00  1.30000000E+00
  1.30000000E+00  1.70000000E+00  1.70000000E+00  1.30000000E+00  1.30000000E+00
  1.30000000E+00  1.70000000E+00  1.30000000E+00  1.30000000E+00  1.30000000E+00
  1.30000000E+00  1.80000000E+00  1.70000000E+00  1.70000000E+00  1.70000000E+00
  1.70000000E+00  1.70000000E+00  1.80000000E+00  1.70000000E+00  1.70000000E+00
  1.30000000E+00  1.70000000E+00  1.70000000E+00  1.70000000E+00  1.70000000E+00
  1.70000000E+00  1.30000000E+00  1.70000000E+00  1.70000000E+00  1.30000000E+00
  1.30000000E+00  1.70000000E+00  1.30000000E+00  1.30000000E+00  1.70000000E+00
  1.30000000E+00  1.30000000E+00  1.70000000E+00  1.30000000E+00  1.30000000E+00
  1.70000000E+00  1.70000000E+00  1.30000000E+00  1.30000000E+00  1.70000000E+00
  1.70000000E+00  1.70000000E+00  1.30000000E+00  1.30000000E+00  1.70000000E+00
  1.30000000E+00  1.70000000E+00  1.30000000E+00  1.70000000E+00  1.30000000E+00
  1.30000000E+00  1.70000000E+00  1.30000000E+00  1.30000000E+00  1.70000000E+00
  1.30000000E+00  1.30000000E+00  1.30000000E+00  1.30000000E+00  1.30000000E+00
  1.70000000E+00  1.70000000E+00  1.30000000E+00  1.30000000E+00  1.30000000E+00
  1.70000000E+00  1.30000000E+00  1.30000000E+00  1.30000000E+00  1.30000000E+00
  1.80000000E+00  1.70000000E+00  1.70000000E+00  1.70000000E+00  1.70000000E+00
  1.70000000E+00  1.80000000E+00  1.70000000E+00  1.70000000E+00  1.30000000E+00
  1.70000000E+00  1.70000000E+00  1.70000000E+00  1.70000000E+00  1.70000000E+00
  1.30000000E+00  1.70000000E+00  1.70000000E+00  1.30000000E+00  1.30000000E+00
  1.70000000E+00  1.30000000E+00  1.30000000E+00  1.70000000E+00  1.30000000E+00
  1.30000000E+00  1.70000000E+00  1.30000000E+00  1.30000000E+00  1.70000000E+00
  1.70000000E+00  1.30000000E+00  1.30000000E+00  1.70000000E+00  1.70000000E+00
  1.70000000E+00  1.30000000E+00  1.30000000E+00  1.70000000E+00  1.30000000E+00
  1.70000000E+00  1.30000000E+00  1.70000000E+00  1.30000000E+00  1.30000000E+00
  1.70000000E+00  1.30000000E+00  1.30000000E+00  1.70000000E+00  1.30000000E+00
  1.30000000E+00  1.30000000E+00  1.30000000E+00  1.30000000E+00  1.70000000E+00
  1.70000000E+00  1.30000000E+00  1.30000000E+00  1.30000000E+00  1.70000000E+00
  1.30000000E+00  1.30000000E+00  1.30000000E+00  1.30000000E+00  1.80000000E+00
  1.70000000E+00  1.70000000E+00  1.70000000E+00  1.70000000E+00  1.70000000E+00
  1.80000000E+00  1.70000000E+00  1.70000000E+00  1.30000000E+00  1.70000000E+00
  1.70000000E+00  1.70000000E+00  1.70000000E+00  1.70000000E+00  1.30000000E+00
  1.70000000E+00  1.70000000E+00  1.30000000E+00  1.30000000E+00  1.70000000E+00
  1.30000000E+00  1.30000000E+00  1.70000000E+00  1.30000000E+00  1.30000000E+00
  1.70000000E+00  1.30000000E+00  1.30000000E+00  1.70000000E+00  1.70000000E+00
  1.30000000E+00  1.30000000E+00  1.70000000E+00  1.70000000E+00  1.70000000E+00
  1.30000000E+00  1.30000000E+00  1.70000000E+00  1.30000000E+00  1.70000000E+00
  1.30000000E+00  1.70000000E+00  1.30000000E+00  1.30000000E+00  1.70000000E+00
  1.30000000E+00  1.30000000E+00  1.70000000E+00  1.30000000E+00  1.30000000E+00
  1.30000000E+00  1.30000000E+00  1.30000000E+00  1.70000000E+00  1.70000000E+00
  1.30000000E+00  1.30000000E+00  1.30000000E+00  1.70000000E+00  1.30000000E+00
  1.30000000E+00  1.30000000E+00  1.30000000E+00  1.80000000E+00  1.70000000E+00
  1.70000000E+00  1.70000000E+00  1.70000000E+00  1.70000000E+00  1.80000000E+00
  1.70000000E+00  1.70000000E+00  1.30000000E+00  1.70000000E+00  1.70000000E+00
  1.70000000E+00  1.70000000E+00  1.70000000E+00  1.30000000E+00  1.70000000E+00
  1.70000000E+00  1.30000000E+00  1.30000000E+00  1.70000000E+00  1.30000000E+00
  1.30000000E+00  1.70000000E+00  1.30000000E+00  1.30000000E+00  1.70000000E+00
  1.30000000E+00  1.30000000E+00  1.70000000E+00  1.70000000E+00  1.30000000E+00
  1.30000000E+00  1.70000000E+00  1.70000000E+00  1.70000000E+00  1.30000000E+00
  1.30000000E+00  1.70000000E+00  1.30000000E+00  1.70000000E+00  1.30000000E+00
  1.70000000E+00  1.30000000E+00  1.30000000E+00  1.70000000E+00  1.30000000E+00
  1.30000000E+00  1.70000000E+00  1.30000000E+00  1.30000000E+00  1.30000000E+00
  1.30000000E+00  1.30000000E+00  1.70000000E+00  1.70000000E+00  1.30000000E+00
  1.30000000E+00  1.30000000E+00  1.70000000E+00  1.30000000E+00  1.30000000E+00
  1.30000000E+00  1.30000000E+00  1.80000000E+00  1.70000000E+00  1.70000000E+00
  1.70000000E+00  1.70000000E+00  1.70000000E+00  1.80000000E+00  1.70000000E+00
  1.70000000E+00  1.30000000E+00  1.70000000E+00  1.70000000E+00  1.70000000E+00
  1.70000000E+00  1.70000000E+00  1.30000000E+00  1.70000000E+00  1.70000000E+00
  1.30000000E+00  1.30000000E+00  1.70000000E+00  1.30000000E+00  1.30000000E+00
  1.70000000E+00  1.30000000E+00  1.30000000E+00  1.70000000E+00  1.30000000E+00
  1.30000000E+00  1.70000000E+00  1.70000000E+00  1.30000000E+00  1.30000000E+00
  1.70000000E+00  1.70000000E+00  1.70000000E+00  1.30000000E+00  1.30000000E+00
  1.70000000E+00  1.30000000E+00  1.70000000E+00  1.30000000E+00  1.70000000E+00
  1.30000000E+00  1.30000000E+00  1.70000000E+00  1.30000000E+00  1.30000000E+00
  1.70000000E+00  1.30000000E+00  1.30000000E+00  1.30000000E+00  1.30000000E+00
  1.30000000E+00  1.70000000E+00  1.70000000E+00  1.30000000E+00  1.30000000E+00
  1.30000000E+00  1.70000000E+00  1.30000000E+00  1.30000000E+00  1.30000000E+00
  1.30000000E+00  1.80000000E+00  1.70000000E+00  1.70000000E+00  1.70000000E+00
  1.70000000E+00  1.70000000E+00  1.80000000E+00  1.70000000E+00  1.70000000E+00
  1.30000000E+00  1.70000000E+00  1.70000000E+00  1.70000000E+00  1.70000000E+00
  1.70000000E+00  1.30000000E+00  1.70000000E+00  1.70000000E+00  1.30000000E+00
  1.30000000E+00  1.70000000E+00  1.30000000E+00  1.30000000E+00  1.70000000E+00
  1.30000000E+00  1.30000000E+00  1.70000000E+00  1.30000000E+00  1.30000000E+00
  1.70000000E+00  1.70000000E+00  1.30000000E+00  1.30000000E+00  1.70000000E+00
  1.70000000E+00  1.70000000E+00  1.30000000E+00  1.30000000E+00  1.70000000E+00
  1.30000000E+00  1.70000000E+00  1.30000000E+00  1.70000000E+00  1.30000000E+00
  1.30000000E+00  1.70000000E+00  1.30000000E+00  1.30000000E+00  1.70000000E+00
  1.30000000E+00  1.30000000E+00  1.30000000E+00  1.30000000E+00  1.30000000E+00
  1.70000000E+00  1.70000000E+00  1.30000000E+00  1.30000000E+00  1.30000000E+00
  1.70000000E+00  1.30000000E+00  1.30000000E+00  1.30000000E+00  1.30000000E+00
  1.80000000E+00  1.70000000E+00  1.70000000E+00  1.70000000E+00  1.70000000E+00
  1.70000000E+00  1.80000000E+00  1.70000000E+00  1.70000000E+00  1.30000000E+00
  1.70000000E+00  1.70000000E+00  1.70000000E+00  1.70000000E+00  1.70000000E+00
  1.30000000E+00  1.70000000E+00  1.70000000E+00  1.30000000E+00  1.30000000E+00
  1.70000000E+00  1.30000000E+00  1.30000000E+00  1.70000000E+00  1.30000000E+00
  1.30000000E+00  1.70000000E+00  1.30000000E+00  1.30000000E+00  1.70000000E+00
  1.70000000E+00  1.30000000E+00  1.30000000E+00  1.70000000E+00  1.70000000E+00
  1.70000000E+00  1.30000000E+00  1.30000000E+00  1.70000000E+00  1.30000000E+00
  1.70000000E+00  1.30000000E+00  1.70000000E+00  1.30000000E+00  1.30000000E+00
  1.70000000E+00  1.30000000E+00  1.30000000E+00  1.70000000E+00  1.30000000E+00
  1.30000000E+00  1.30000000E+00  1.30000000E+00  1.30000000E+00  1.70000000E+00
  1.70000000E+00  1.30000000E+00  1.30000000E+00  1.30000000E+00  1.70000000E+00
  1.30000000E+00  1.30000000E+00  1.30000000E+00  1.30000000E+00  1.80000000E+00
  1.70000000E+00  1.70000000E+00  1.70000000E+00  1.70000000E+00  1.70000000E+00
  1.80000000E+00  1.70000000E+00  1.70000000E+00  1.30000000E+00  1.70000000E+00
  1.70000000E+00  1.70000000E+00  1.70000000E+00  1.70000000E+00  1.30000000E+00
  1.70000000E+00  1.70000000E+00  1.30000000E+00  1.30000000E+00  1.70000000E+00
  1.30000000E+00  1.30000000E+00  1.70000000E+00  1.30000000E+00  1.30000000E+00
  1.70000000E+00  1.30000000E+00  1.30000000E+00  1.70000000E+00  1.70000000E+00
  1.30000000E+00  1.30000000E+00  1.70000000E+00  1.70000000E+00  1.70000000E+00
  1.30000000E+00  1.30000000E+00  1.70000000E+00  1.30000000E+00  1.70000000E+00
  1.30000000E+00  1.70000000E+00  1.30000000E+00  1.30000000E+00  1.70000000E+00
  1.30000000E+00  1.30000000E+00  1.70000000E+00  1.30000000E+00  1.30000000E+00
  1.30000000E+00  1.30000000E+00  1.30000000E+00  1.70000000E+00  1.70000000E+00
  1.30000000E+00  1.30000000E+00  1.30000000E+00  1.70000000E+00  1.30000000E+00
  1.30000000E+00  1.30000000E+00  1.30000000E+00  1.80000000E+00  1.70000000E+00
  1.70000000E+00  1.70000000E+00  1.70000000E+00  1.70000000E+00  1.80000000E+00
  1.70000000E+00  1.70000000E+00  1.30000000E+00  1.70000000E+00  1.70000000E+00
  1.70000000E+00  1.70000000E+00  1.70000000E+00  1.30000000E+00  1.70000000E+00
  1.70000000E+00  1.30000000E+00  1.30000000E+00  1.70000000E+00  1.30000000E+00
  1.30000000E+00  1.70000000E+00  1.30000000E+00  1.30000000E+00  1.70000000E+00
  1.30000000E+00  1.30000000E+00  1.70000000E+00  1.70000000E+00  1.30000000E+00
  1.30000000E+00  1.70000000E+00  1.70000000E+00  1.70000000E+00  1.30000000E+00
  1.30000000E+00  1.70000000E+00  1.30000000E+00  1.70000000E+00  1.30000000E+00
  1.70000000E+00  1.30000000E+00  1.30000000E+00  1.70000000E+00  1.30000000E+00
  1.30000000E+00  1.70000000E+00  1.30000000E+00  1.30000000E+00  1.30000000E+00
  1.30000000E+00  1.30000000E+00  1.70000000E+00  1.70000000E+00  1.30000000E+00
  1.30000000E+00  1.30000000E+00  1.70000000E+00  1.30000000E+00  1.30000000E+00
  1.30000000E+00  1.30000000E+00  1.80000000E+00  1.70000000E+00  1.70000000E+00
  1.70000000E+00  1.70000000E+00  1.70000000E+00  1.80000000E+00  1.70000000E+00
  1.70000000E+00  1.30000000E+00  1.70000000E+00  1.70000000E+00  1.70000000E+00
  1.70000000E+00  1.70000000E+00  1.30000000E+00  1.70000000E+00  1.70000000E+00
  1.30000000E+00  1.30000000E+00  1.70000000E+00  1.30000000E+00  1.30000000E+00
  1.70000000E+00  1.30000000E+00  1.30000000E+00  1.70000000E+00  1.30000000E+00
  1.30000000E+00  1.70000000E+00  1.70000000E+00  1.30000000E+00  1.30000000E+00
  1.70000000E+00  1.70000000E+00  1.70000000E+00  1.30000000E+00  1.30000000E+00
  1.70000000E+00  1.30000000E+00  1.70000000E+00  1.30000000E+00  1.70000000E+00
  1.30000000E+00  1.30000000E+00  1.70000000E+00  1.30000000E+00  1.30000000E+00
  1.70000000E+00  1.30000000E+00  1.30000000E+00  1.30000000E+00  1.30000000E+00
  1.30000000E+00  1.70000000E+00  1.70000000E+00  1.30000000E+00  1.30000000E+00
  1.30000000E+00  1.70000000E+00  1.30000000E+00  1.30000000E+00  1.30000000E+00
  1.30000000E+00  1.80000000E+00  1.70000000E+00  1.70000000E+00  1.70000000E+00
  1.70000000E+00  1.70000000E+00  1.80000000E+00  1.70000000E+00  1.70000000E+00
  1.30000000E+00  1.70000000E+00  1.70000000E+00  1.70000000E+00  1.70000000E+00
  1.70000000E+00  1.30000000E+00  1.70000000E+00  1.70000000E+00  1.30000000E+00
  1.30000000E+00  1.70000000E+00  1.30000000E+00  1.30000000E+00  1.70000000E+00
  1.30000000E+00  1.30000000E+00  1.70000000E+00  1.30000000E+00  1.30000000E+00
  1.70000000E+00  1.70000000E+00  1.30000000E+00  1.30000000E+00  1.70000000E+00
  1.70000000E+00  1.70000000E+00  1.30000000E+00  1.30000000E+00  1.70000000E+00
  1.30000000E+00  1.70000000E+00  1.30000000E+00  1.70000000E+00  1.30000000E+00
  1.30000000E+00  1.70000000E+00  1.30000000E+00  1.30000000E+00  1.70000000E+00
  1.30000000E+00  1.30000000E+00  1.30000000E+00  1.30000000E+00  1.30000000E+00
  1.70000000E+00  1.70000000E+00  1.30000000E+00  1.30000000E+00  1.30000000E+00
  1.70000000E+00  1.30000000E+00  1.30000000E+00  1.30000000E+00  1.30000000E+00
  1.80000000E+00  1.70000000E+00  1.70000000E+00  1.70000000E+00  1.70000000E+00
  1.70000000E+00  1.80000000E+00  1.70000000E+00  1.70000000E+00  1.30000000E+00
  1.70000000E+00  1.70000000E+00  1.70000000E+00  1.70000000E+00  1.70000000E+00
  1.30000000E+00  1.70000000E+00  1.70000000E+00  1.30000000E+00  1.30000000E+00
  1.70000000E+00  1.30000000E+00  1.30000000E+00  1.70000000E+00  1.30000000E+00
  1.30000000E+00  1.70000000E+00  1.30000000E+00  1.30000000E+00  1.70000000E+00
  1.70000000E+00  1.30000000E+00  1.30000000E+00  1.70000000E+00  1.70000000E+00
  1.70000000E+00  1.30000000E+00  1.30000000E+00  1.70000000E+00  1.30000000E+00
  1.70000000E+00  1.30000000E+00  1.70000000E+00  1.30000000E+00  1.30000000E+00
  1.70000000E+00  1.30000000E+00  1.30000000E+00  1.70000000E+00  1.30000000E+00
  1.30000000E+00  1.30000000E+00  1.30000000E+00  1.30000000E+00  1.70000000E+00
  1.70000000E+00  1.30000000E+00  1.30000000E+00  1.30000000E+00  1.70000000E+00
  1.30000000E+00  1.30000000E+00  1.30000000E+00  1.30000000E+00  1.80000000E+00
  1.70000000E+00  1.70000000E+00  1.70000000E+00  1.70000000E+00  1.70000000E+00
  1.80000000E+00  1.70000000E+00  1.70000000E+00  1.30000000E+00  1.70000000E+00
  1.70000000E+00  1.70000000E+00  1.70000000E+00  1.70000000E+00  1.30000000E+00
  1.70000000E+00  1.70000000E+00  1.30000000E+00  1.30000000E+00  1.70000000E+00
  1.30000000E+00  1.30000000E+00  1.70000000E+00  1.30000000E+00  1.30000000E+00
  1.70000000E+00  1.30000000E+00  1.30000000E+00  1.70000000E+00  1.70000000E+00
  1.30000000E+00  1.30000000E+00  1.70000000E+00  1.70000000E+00  1.70000000E+00
  1.30000000E+00  1.30000000E+00  1.70000000E+00  1.30000000E+00  1.70000000E+00
  1.30000000E+00  1.70000000E+00  1.30000000E+00  1.30000000E+00  1.70000000E+00
  1.30000000E+00  1.30000000E+00  1.70000000E+00  1.30000000E+00  1.30000000E+00
  1.30000000E+00  1.30000000E+00  1.30000000E+00  1.70000000E+00  1.70000000E+00
  1.30000000E+00  1.30000000E+00  1.30000000E+00  1.70000000E+00  1.30000000E+00
  1.30000000E+00  1.30000000E+00  1.30000000E+00  1.80000000E+00  1.70000000E+00
  1.70000000E+00  1.70000000E+00  1.70000000E+00  1.70000000E+00  1.80000000E+00
  1.70000000E+00  1.70000000E+00  1.30000000E+00  1.70000000E+00  1.70000000E+00
  1.70000000E+00  1.70000000E+00  1.70000000E+00  1.30000000E+00  1.70000000E+00
  1.70000000E+00  1.30000000E+00  1.30000000E+00  1.70000000E+00  1.30000000E+00
  1.30000000E+00  1.70000000E+00  1.30000000E+00  1.30000000E+00  1.70000000E+00
  1.30000000E+00  1.30000000E+00  1.70000000E+00  1.70000000E+00  1.30000000E+00
  1.30000000E+00  1.70000000E+00  1.70000000E+00  1.70000000E+00  1.30000000E+00
  1.30000000E+00  1.70000000E+00  1.30000000E+00  1.70000000E+00  1.30000000E+00
  1.70000000E+00  1.30000000E+00  1.30000000E+00  1.70000000E+00  1.30000000E+00
  1.30000000E+00  1.70000000E+00  1.30000000E+00  1.30000000E+00  1.30000000E+00
  1.30000000E+00  1.30000000E+00  1.70000000E+00  1.70000000E+00  1.30000000E+00
  1.30000000E+00  1.30000000E+00  1.70000000E+00  1.30000000E+00  1.30000000E+00
  1.30000000E+00  1.30000000E+00  1.80000000E+00  1.70000000E+00  1.70000000E+00
  1.70000000E+00  1.70000000E+00  1.70000000E+00  1.80000000E+00  1.70000000E+00
  1.70000000E+00  1.30000000E+00  1.70000000E+00  1.70000000E+00  1.70000000E+00
  1.70000000E+00  1.70000000E+00  1.30000000E+00  1.70000000E+00  1.70000000E+00
  1.30000000E+00  1.30000000E+00  1.70000000E+00  1.30000000E+00  1.30000000E+00
  1.70000000E+00  1.30000000E+00  1.30000000E+00  1.70000000E+00  1.30000000E+00
  1.30000000E+00  1.70000000E+00  1.70000000E+00  1.30000000E+00  1.30000000E+00
  1.70000000E+00  1.70000000E+00  1.70000000E+00  1.30000000E+00  1.30000000E+00
  1.70000000E+00  1.30000000E+00  1.70000000E+00  1.30000000E+00  1.70000000E+00
  1.30000000E+00  1.30000000E+00  1.70000000E+00  1.30000000E+00  1.30000000E+00
  1.70000000E+00  1.30000000E+00  1.30000000E+00  1.30000000E+00  1.30000000E+00
  1.30000000E+00  1.70000000E+00  1.70000000E+00  1.30000000E+00  1.30000000E+00
  1.30000000E+00  1.70000000E+00  1.30000000E+00  1.30000000E+00  1.30000000E+00
  1.30000000E+00  1.80000000E+00  1.70000000E+00  1.70000000E+00  1.70000000E+00
  1.70000000E+00  1.70000000E+00  1.80000000E+00  1.70000000E+00  1.70000000E+00
  1.30000000E+00  1.70000000E+00  1.70000000E+00  1.70000000E+00  1.70000000E+00
  1.70000000E+00  1.30000000E+00  1.70000000E+00  1.70000000E+00  1.30000000E+00
  1.30000000E+00  1.70000000E+00  1.30000000E+00  1.30000000E+00  1.70000000E+00
  1.30000000E+00  1.30000000E+00  1.70000000E+00  1.30000000E+00  1.30000000E+00
  1.70000000E+00  1.70000000E+00  1.30000000E+00  1.30000000E+00  1.70000000E+00
  1.70000000E+00  1.70000000E+00  1.30000000E+00  1.30000000E+00  1.70000000E+00
  1.30000000E+00  1.70000000E+00  1.30000000E+00  1.70000000E+00  1.30000000E+00
  1.30000000E+00  1.70000000E+00  1.30000000E+00  1.30000000E+00  1.70000000E+00
  1.30000000E+00  1.30000000E+00  1.30000000E+00  1.30000000E+00  1.30000000E+00
  1.70000000E+00  1.70000000E+00  1.30000000E+00  1.30000000E+00  1.30000000E+00
  1.70000000E+00  1.30000000E+00  1.30000000E+00  1.30000000E+00  1.30000000E+00
  1.80000000E+00  1.70000000E+00  1.70000000E+00  1.70000000E+00  1.70000000E+00
  1.70000000E+00  1.80000000E+00  1.70000000E+00  1.70000000E+00  1.30000000E+00
  1.70000000E+00  1.70000000E+00  1.70000000E+00  1.70000000E+00  1.70000000E+00
  1.30000000E+00  1.70000000E+00  1.70000000E+00  1.30000000E+00  1.30000000E+00
  1.70000000E+00  1.30000000E+00  1.30000000E+00  1.70000000E+00  1.30000000E+00
  1.30000000E+00  1.70000000E+00  1.30000000E+00  1.30000000E+00  1.70000000E+00
  1.70000000E+00  1.30000000E+00  1.30000000E+00  1.70000000E+00  1.70000000E+00
  1.70000000E+00  1.30000000E+00  1.30000000E+00  1.70000000E+00  1.30000000E+00
  1.70000000E+00  1.30000000E+00  1.70000000E+00  1.30000000E+00  1.30000000E+00
  1.70000000E+00  1.30000000E+00  1.30000000E+00  1.70000000E+00  1.30000000E+00
  1.30000000E+00  1.30000000E+00  1.30000000E+00  1.30000000E+00  1.70000000E+00
  1.70000000E+00  1.30000000E+00  1.30000000E+00  1.30000000E+00  1.70000000E+00
  1.30000000E+00  1.30000000E+00  1.30000000E+00  1.30000000E+00  1.80000000E+00
  1.70000000E+00  1.70000000E+00  1.70000000E+00  1.70000000E+00  1.70000000E+00
  1.80000000E+00  1.70000000E+00  1.70000000E+00  1.30000000E+00  1.70000000E+00
  1.70000000E+00  1.70000000E+00  1.70000000E+00  1.70000000E+00  1.30000000E+00
  1.70000000E+00  1.70000000E+00  1.30000000E+00  1.30000000E+00  1.70000000E+00
  1.30000000E+00  1.30000000E+00  1.70000000E+00  1.30000000E+00  1.30000000E+00
  1.70000000E+00  1.30000000E+00  1.30000000E+00  1.70000000E+00  1.70000000E+00
  1.30000000E+00  1.30000000E+00  1.70000000E+00  1.70000000E+00  1.70000000E+00
  1.30000000E+00  1.30000000E+00  1.70000000E+00  1.30000000E+00  1.70000000E+00
  1.30000000E+00  1.70000000E+00  1.30000000E+00  1.30000000E+00  1.70000000E+00
  1.30000000E+00  1.30000000E+00  1.70000000E+00  1.30000000E+00  1.30000000E+00
  1.30000000E+00  1.30000000E+00  1.30000000E+00  1.70000000E+00  1.70000000E+00
  1.30000000E+00  1.30000000E+00  1.30000000E+00  1.70000000E+00  1.30000000E+00
  1.30000000E+00  1.30000000E+00  1.30000000E+00  1.80000000E+00  1.70000000E+00
  1.70000000E+00  1.70000000E+00  1.70000000E+00  1.70000000E+00  1.80000000E+00
  1.70000000E+00  1.70000000E+00  1.30000000E+00  1.70000000E+00  1.70000000E+00
  1.70000000E+00  1.70000000E+00  1.70000000E+00  1.30000000E+00  1.70000000E+00
  1.70000000E+00  1.30000000E+00  1.30000000E+00  1.70000000E+00  1.30000000E+00
  1.30000000E+00  1.70000000E+00  1.30000000E+00  1.30000000E+00  1.70000000E+00
  1.30000000E+00  1.30000000E+00  1.70000000E+00  1.70000000E+00  1.30000000E+00
  1.30000000E+00  1.70000000E+00  1.70000000E+00  1.70000000E+00  1.30000000E+00
  1.30000000E+00  1.70000000E+00  1.30000000E+00  1.70000000E+00  1.30000000E+00
  1.70000000E+00  1.30000000E+00  1.30000000E+00  1.70000000E+00  1.30000000E+00
  1.30000000E+00  1.70000000E+00  1.30000000E+00  1.30000000E+00  1.30000000E+00
  1.30000000E+00  1.30000000E+00  1.70000000E+00  1.70000000E+00  1.30000000E+00
  1.30000000E+00  1.30000000E+00  1.70000000E+00  1.30000000E+00  1.30000000E+00
  1.30000000E+00  1.30000000E+00  1.80000000E+00  1.70000000E+00  1.70000000E+00
  1.70000000E+00  1.70000000E+00  1.70000000E+00  1.80000000E+00  1.70000000E+00
  1.70000000E+00  1.30000000E+00  1.70000000E+00  1.70000000E+00  1.70000000E+00
  1.70000000E+00  1.70000000E+00  1.30000000E+00  1.70000000E+00  1.70000000E+00
  1.30000000E+00  1.30000000E+00  1.70000000E+00  1.30000000E+00  1.30000000E+00
  1.70000000E+00  1.30000000E+00  1.30000000E+00  1.70000000E+00  1.30000000E+00
  1.30000000E+00  1.70000000E+00  1.70000000E+00  1.30000000E+00  1.30000000E+00
  1.70000000E+00  1.70000000E+00  1.70000000E+00  1.30000000E+00  1.30000000E+00
  1.70000000E+00  1.30000000E+00  1.70000000E+00  1.30000000E+00  1.70000000E+00
  1.30000000E+00  1.30000000E+00  1.70000000E+00  1.30000000E+00  1.30000000E+00
  1.70000000E+00  1.30000000E+00  1.30000000E+00  1.30000000E+00  1.30000000E+00
  1.30000000E+00  1.70000000E+00  1.70000000E+00  1.30000000E+00  1.30000000E+00
  1.30000000E+00  1.70000000E+00  1.30000000E+00  1.30000000E+00  1.30000000E+00
  1.30000000E+00  1.80000000E+00  1.70000000E+00  1.70000000E+00  1.70000000E+00
  1.70000000E+00  1.70000000E+00  1.80000000E+00  1.70000000E+00  1.70000000E+00
  1.30000000E+00  1.70000000E+00  1.70000000E+00  1.70000000E+00  1.70000000E+00
  1.70000000E+00  1.30000000E+00  1.70000000E+00  1.70000000E+00  1.30000000E+00
  1.30000000E+00  1.70000000E+00  1.30000000E+00  1.30000000E+00  1.70000000E+00
  1.30000000E+00  1.30000000E+00  1.70000000E+00  1.30000000E+00  1.30000000E+00
  1.70000000E+00  1.70000000E+00  1.30000000E+00  1.30000000E+00  1.70000000E+00
  1.70000000E+00  1.70000000E+00  1.30000000E+00  1.30000000E+00  1.70000000E+00
  1.30000000E+00  1.70000000E+00  1.30000000E+00  1.70000000E+00  1.30000000E+00
  1.30000000E+00  1.70000000E+00  1.30000000E+00  1.30000000E+00  1.70000000E+00
  1.30000000E+00  1.30000000E+00  1.30000000E+00  1.30000000E+00  1.30000000E+00
  1.70000000E+00  1.70000000E+00  1.30000000E+00  1.30000000E+00  1.30000000E+00
  1.70000000E+00  1.30000000E+00  1.30000000E+00  1.30000000E+00  1.30000000E+00
  1.80000000E+00  1.70000000E+00  1.70000000E+00  1.70000000E+00  1.70000000E+00
  1.70000000E+00  1.80000000E+00  1.70000000E+00  1.70000000E+00  1.30000000E+00
  1.70000000E+00  1.70000000E+00  1.70000000E+00  1.70000000E+00  1.70000000E+00
  1.30000000E+00  1.70000000E+00  1.70000000E+00  1.30000000E+00  1.30000000E+00
  1.70000000E+00  1.30000000E+00  1.30000000E+00  1.70000000E+00  1.30000000E+00
  1.30000000E+00  1.70000000E+00  1.30000000E+00  1.30000000E+00  1.70000000E+00
  1.70000000E+00  1.30000000E+00  1.30000000E+00  1.70000000E+00  1.70000000E+00
  1.70000000E+00  1.30000000E+00  1.30000000E+00  1.70000000E+00  1.30000000E+00
  1.70000000E+00  1.30000000E+00  1.70000000E+00  1.30000000E+00  1.30000000E+00
  1.70000000E+00  1.30000000E+00  1.30000000E+00  1.70000000E+00  1.30000000E+00
  1.30000000E+00  1.30000000E+00  1.30000000E+00  1.30000000E+00  1.70000000E+00
  1.70000000E+00  1.30000000E+00  1.30000000E+00  1.30000000E+00  1.70000000E+00
  1.30000000E+00  1.30000000E+00  1.30000000E+00  1.30000000E+00  1.80000000E+00
  1.70000000E+00  1.70000000E+00  1.70000000E+00  1.70000000E+00  1.70000000E+00
  1.80000000E+00  1.70000000E+00  1.70000000E+00  1.30000000E+00  1.70000000E+00
  1.70000000E+00  1.70000000E+00  1.70000000E+00  1.70000000E+00  1.30000000E+00
  1.70000000E+00  1.70000000E+00  1.30000000E+00  1.30000000E+00  1.70000000E+00
  1.30000000E+00  1.30000000E+00  1.70000000E+00  1.30000000E+00  1.30000000E+00
  1.70000000E+00  1.30000000E+00  1.30000000E+00  1.70000000E+00  1.70000000E+00
  1.30000000E+00  1.30000000E+00  1.70000000E+00  1.70000000E+00  1.70000000E+00
  1.30000000E+00  1.30000000E+00  1.70000000E+00  1.30000000E+00  1.70000000E+00
  1.30000000E+00  1.70000000E+00  1.30000000E+00  1.30000000E+00  1.70000000E+00
  1.30000000E+00  1.30000000E+00  1.70000000E+00  1.30000000E+00  1.30000000E+00
  1.30000000E+00  1.30000000E+00  1.30000000E+00  1.70000000E+00  1.70000000E+00
  1.30000000E+00  1.30000000E+00  1.30000000E+00  1.70000000E+00  1.30000000E+00
  1.30000000E+00  1.30000000E+00  1.30000000E+00  1.80000000E+00  1.70000000E+00
  1.70000000E+00  1.70000000E+00  1.70000000E+00  1.70000000E+00  1.80000000E+00
  1.70000000E+00  1.70000000E+00  1.30000000E+00  1.70000000E+00  1.70000000E+00
  1.70000000E+00  1.70000000E+00  1.70000000E+00  1.30000000E+00  1.70000000E+00
  1.70000000E+00  1.30000000E+00  1.30000000E+00  1.70000000E+00  1.30000000E+00
  1.30000000E+00  1.70000000E+00  1.30000000E+00  1.30000000E+00  1.70000000E+00
  1.30000000E+00  1.30000000E+00  1.70000000E+00  1.70000000E+00  1.30000000E+00
  1.30000000E+00  1.70000000E+00  1.70000000E+00  1.70000000E+00  1.30000000E+00
  1.30000000E+00  1.70000000E+00  1.30000000E+00  1.70000000E+00  1.30000000E+00
  1.70000000E+00  1.30000000E+00  1.30000000E+00  1.70000000E+00  1.30000000E+00
  1.30000000E+00  1.70000000E+00  1.30000000E+00  1.30000000E+00  1.30000000E+00
  1.30000000E+00  1.30000000E+00  1.70000000E+00  1.70000000E+00  1.30000000E+00
  1.30000000E+00  1.30000000E+00  1.70000000E+00  1.30000000E+00  1.30000000E+00
  1.30000000E+00  1.30000000E+00  1.80000000E+00  1.70000000E+00  1.70000000E+00
  1.70000000E+00  1.70000000E+00  1.70000000E+00  1.80000000E+00  1.70000000E+00
  1.70000000E+00  1.30000000E+00  1.70000000E+00  1.70000000E+00  1.70000000E+00
  1.70000000E+00  1.70000000E+00  1.30000000E+00  1.70000000E+00  1.70000000E+00
  1.30000000E+00  1.30000000E+00  1.70000000E+00  1.30000000E+00  1.30000000E+00
  1.70000000E+00  1.30000000E+00  1.30000000E+00  1.70000000E+00  1.30000000E+00
  1.30000000E+00  1.70000000E+00  1.70000000E+00  1.30000000E+00  1.30000000E+00
  1.70000000E+00  1.70000000E+00  1.70000000E+00  1.30000000E+00  1.30000000E+00
  1.70000000E+00  1.30000000E+00  1.70000000E+00  1.30000000E+00  1.70000000E+00
  1.30000000E+00  1.30000000E+00  1.70000000E+00  1.30000000E+00  1.30000000E+00
  1.70000000E+00  1.30000000E+00  1.30000000E+00  1.30000000E+00  1.30000000E+00
  1.30000000E+00  1.70000000E+00  1.70000000E+00  1.30000000E+00  1.30000000E+00
  1.30000000E+00  1.70000000E+00  1.30000000E+00  1.30000000E+00  1.30000000E+00
  1.30000000E+00  1.80000000E+00  1.70000000E+00  1.70000000E+00  1.70000000E+00
  1.70000000E+00  1.70000000E+00  1.80000000E+00  1.70000000E+00  1.70000000E+00
  1.30000000E+00  1.70000000E+00  1.70000000E+00  1.70000000E+00  1.70000000E+00
  1.70000000E+00  1.30000000E+00  1.70000000E+00  1.70000000E+00  1.30000000E+00
  1.30000000E+00  1.70000000E+00  1.30000000E+00  1.30000000E+00  1.70000000E+00
  1.30000000E+00  1.30000000E+00  1.70000000E+00  1.30000000E+00  1.30000000E+00
  1.70000000E+00  1.70000000E+00  1.30000000E+00  1.30000000E+00  1.70000000E+00
  1.70000000E+00  1.70000000E+00  1.30000000E+00  1.30000000E+00  1.70000000E+00
  1.30000000E+00  1.70000000E+00  1.30000000E+00  1.70000000E+00  1.30000000E+00
  1.30000000E+00  1.70000000E+00  1.30000000E+00  1.30000000E+00  1.70000000E+00
  1.30000000E+00  1.30000000E+00  1.30000000E+00  1.30000000E+00  1.30000000E+00
  1.70000000E+00  1.70000000E+00  1.30000000E+00  1.30000000E+00  1.30000000E+00
  1.70000000E+00  1.30000000E+00  1.30000000E+00  1.30000000E+00  1.30000000E+00
  1.80000000E+00  1.70000000E+00  1.70000000E+00  1.70000000E+00  1.70000000E+00
  1.70000000E+00  1.80000000E+00  1.70000000E+00  1.70000000E+00  1.30000000E+00
  1.70000000E+00  1.70000000E+00  1.70000000E+00  1.70000000E+00  1.70000000E+00
  1.30000000E+00  1.70000000E+00  1.70000000E+00  1.30000000E+00  1.30000000E+00
  1.70000000E+00  1.30000000E+00  1.30000000E+00  1.70000000E+00  1.30000000E+00
  1.30000000E+00  1.70000000E+00  1.30000000E+00  1.30000000E+00  1.70000000E+00
  1.70000000E+00  1.30000000E+00  1.30000000E+00  1.70000000E+00  1.70000000E+00
  1.70000000E+00  1.30000000E+00  1.30000000E+00  1.70000000E+00  1.30000000E+00
  1.70000000E+00  1.30000000E+00  1.70000000E+00  1.30000000E+00  1.30000000E+00
  1.70000000E+00  1.30000000E+00  1.30000000E+00  1.70000000E+00  1.30000000E+00
  1.30000000E+00  1.30000000E+00  1.30000000E+00  1.30000000E+00  1.70000000E+00
  1.70000000E+00  1.30000000E+00  1.30000000E+00  1.30000000E+00  1.70000000E+00
  1.30000000E+00  1.30000000E+00  1.30000000E+00  1.30000000E+00  1.80000000E+00
  1.70000000E+00  1.70000000E+00  1.70000000E+00  1.70000000E+00  1.70000000E+00
  1.80000000E+00  1.70000000E+00  1.70000000E+00  1.30000000E+00  1.70000000E+00
  1.70000000E+00  1.70000000E+00  1.70000000E+00  1.70000000E+00  1.30000000E+00
  1.70000000E+00  1.70000000E+00  1.30000000E+00  1.30000000E+00  1.70000000E+00
  1.30000000E+00  1.30000000E+00  1.70000000E+00  1.30000000E+00  1.30000000E+00
  1.70000000E+00  1.30000000E+00  1.30000000E+00  1.70000000E+00  1.70000000E+00
  1.30000000E+00  1.30000000E+00  1.70000000E+00  1.70000000E+00  1.70000000E+00
  1.30000000E+00  1.30000000E+00  1.70000000E+00  1.30000000E+00  1.70000000E+00
  1.30000000E+00  1.70000000E+00  1.30000000E+00  1.30000000E+00  1.70000000E+00
  1.30000000E+00  1.30000000E+00  1.70000000E+00  1.30000000E+00  1.30000000E+00
  1.30000000E+00  1.30000000E+00  1.30000000E+00  1.70000000E+00  1.70000000E+00
  1.30000000E+00  1.30000000E+00  1.30000000E+00  1.70000000E+00  1.30000000E+00
  1.30000000E+00  1.30000000E+00  1.30000000E+00  1.80000000E+00  1.70000000E+00
  1.70000000E+00  1.70000000E+00  1.70000000E+00  1.70000000E+00  1.80000000E+00
  1.70000000E+00  1.70000000E+00  1.30000000E+00  1.70000000E+00  1.70000000E+00
  1.70000000E+00  1.70000000E+00  1.70000000E+00  1.30000000E+00  1.70000000E+00
  1.70000000E+00  1.30000000E+00  1.30000000E+00  1.70000000E+00  1.30000000E+00
  1.30000000E+00  1.70000000E+00  1.30000000E+00  1.30000000E+00  1.70000000E+00
  1.30000000E+00  1.30000000E+00  1.70000000E+00  1.70000000E+00  1.30000000E+00
  1.30000000E+00  1.70000000E+00  1.70000000E+00  1.70000000E+00  1.30000000E+00
  1.30000000E+00  1.70000000E+00  1.30000000E+00  1.70000000E+00  1.30000000E+00
  1.70000000E+00  1.30000000E+00  1.30000000E+00  1.70000000E+00  1.30000000E+00
  1.30000000E+00  1.70000000E+00  1.30000000E+00  1.30000000E+00  1.30000000E+00
  1.30000000E+00  1.30000000E+00  1.70000000E+00  1.70000000E+00  1.30000000E+00
  1.30000000E+00  1.30000000E+00  1.70000000E+00  1.30000000E+00  1.30000000E+00
  1.30000000E+00  1.30000000E+00
%FLAG SCREEN                                                                    
%FORMAT(5E16.8)                                                                 
  9.60000000E-01  7.20000000E-01  7.20000000E-01  7.20000000E-01  7.20000000E-01
  7.20000000E-01  9.60000000E-01  7.20000000E-01  7.20000000E-01  8.50000000E-01
  7.20000000E-01  7.20000000E-01  7.20000000E-01  7.20000000E-01  7.20000000E-01
  8.50000000E-01  7.20000000E-01  7.20000000E-01  8.50000000E-01  8.50000000E-01
  7.20000000E-01  8.50000000E-01  8.50000000E-01  7.20000000E-01  8.50000000E-01
  8.50000000E-01  7.20000000E-01  8.50000000E-01  8.50000000E-01  7.20000000E-01
  7.20000000E-01  8.50000000E-01  8.50000000E-01  7.20000000E-01  7.20000000E-01
  7.20000000E-01  8.50000000E-01  8.50000000E-01  7.20000000E-01  8.50000000E-01
  7.20000000E-01  8.50000000E-01  7.20000000E-01  8.50000000E-01  8.50000000E-01
  7.20000000E-01  8.50000000E-01  8.50000000E-01  7.20000000E-01  8.50000000E-01
  8.50000000E-01  8.50000000E-01  8.50000000E-01  8.50000000E-01  7.20000000E-01
  7.20000000E-01  8.50000000E-01  8.50000000E-01  8.50000000E-01  7.20000000E-01
  8.50000000E-01  8.50000000E-01  8.50000000E-01  8.50000000E-01  9.60000000E-01
  7.20000000E-01  7.20000000E-01  7.20000000E-01  7.20000000E-01  7.20000000E-01
  9.60000000E-01  7.20000000E-01  7.20000000E-01  8.50000000E-01  7.20000000E-01
  7.20000000E-01  7.20000000E-01  7.20000000E-01  7.20000000E-01  8.50000000E-01
  7.20000000E-01  7.20000000E-01  8.50000000E-01  8.50000000E-01  7.20000000E-01
  8.50000000E-01  8.50000000E-01  7.20000000E-01  8.50000000E-01  8.50000000E-01
  7.20000000E-01  8.50000000E-01  8.50000000E-01  7.20000000E-01  7.20000000E-01
  8.50000000E-01  8.50000000E-01  7.20000000E-01  7.20000000E-01  7.20000000E-01
  8.50000000E-01  8.50000000E-01  7.20000000E-01  8.50000000E-01  7.20000000E-01
  8.50000000E-01  7.20000000E-01  8.50000000E-01  8.50000000E-01  7.20000000E-01
  8.50000000E-01  8.50000000E-01  7.20000000E-01  8.50000000E-01  8.50000000E-01
  8.50000000E-01  8.50000000E-01  8.50000000E-01  7.20000000E-01  7.20000000E-01
  8.50000000E-01  8.50000000E-01  8.50000000E-01  7.20000000E-01  8.50000000E-01
  8.50000000E-01  8.50000000E-01  8.50000000E-01  9.60000000E-01  7.20000000E-01
  7.20000000E-01  7.20000000E-01  7.20000000E-01  7.20000000E-01  9.60000000E-01
  7.20000000E-01  7.20000000E-01  8.50000000E-01  7.20000000E-01  7.20000000E-01
  7.20000000E-01  7.20000000E-01  7.20000000E-01  8.50000000E-01  7.20000000E-01
  7.20000000E-01  8.50000000E-01  8.50000000E-01  7.20000000E-01  8.50000000E-01
  8.50000000E-01  7.20000000E-01  8.50000000E-01  8.50000000E-01  7.20000000E-01
  8.50000000E-01  8.50000000E-01  7.20000000E-01  7.20000000E-01  8.50000000E-01
  8.50000000E-01  7.20000000E-01  7.20000000E-01  7.20000000E-01  8.50000000E-01
  8.50000000E-01  7.20000000E-01  8.50000000E-01  7.20000000E-01  8.50000000E-01
  7.20000000E-01  8.50000000E-01  8.50000000E-01  7.20000000E-01  8.50000000E-01
  8.50000000E-01  7.20000000E-01  8.50000000E-01  8.50000000E-01  8.50000000E-01
  8.50000000E-01  8.50000000E-01  7.20000000E-01  7.20000000E-01  8.50000000E-01
  8.50000000E-01  8.50000000E-01  7.20000000E-01  8.50000000E-01  8.50000000E-01
  8.50000000E-01  8.50000000E-01  9.60000000E-01  7.20000000E-01  7.20000000E-01
  7.20000000E-01  7.20000000E-01  7.20000000E-01  9.60000000E-01  7.20000000E-01
  7.20000000E-01  8.50000000E-01  7.20000000E-01  7.20000000E-01  7.20000000E-01
  7.20000000E-01  7.20000000E-01  8.50000000E-01  7.20000000E-01  7.20000000E-01
  8.50000000E-01  8.50000000E-01  7.20000000E-01  8.50000000E-01  8.50000000E-01
  7.20000000E-01  8.50000000E-01  8.50000000E-01  7.20000000E-01  8.50000000E-01
  8.50000000E-01  7.20000000E-01  7.20000000E-01  8.50000000E-01  8.50000000E-01
  7.20000000E-01  7.20000000E-01  7.20000000E-01  8.50000000E-01  8.50000000E-01
  7.20000000E-01  8.50000000E-01  7.20000000E-01  8.50000000E-01  7.20000000E-01
  8.50000000E-01  8.50000000E-01  7.20000000E-01  8.50000000E-01  8.50000000E-01
  7.20000000E-01  8.50000000E-01  8.50000000E-01  8.50000000E-01  8.50000000E-01
  8.50000000E-01  7.20000000E-01  7.20000000E-01  8.50000000E-01  8.50000000E-01
  8.50000000E-01  7.20000000E-01  8.50000000E-01  8.50000000E-01  8.50000000E-01
  8.50000000E-01  9.60000000E-01  7.20000000E-01  7.20000000E-01  7.20000000E-01
  7.20000000E-01  7.20000000E-01  9.60000000E-01  7.20000000E-01  7.20000000E-01
  8.50000000E-01  7.20000000E-01  7.20000000E-01  7.20000000E-01  7.20000000E-01
  7.20000000E-01  8.50000000E-01  7.20000000E-01  7.20000000E-01  8.50000000E-01
  8.50000000E-01  7.20000000E-01  8.50000000E-01  8.50000000E-01  7.20000000E-01
  8.50000000E-01  8.50000000E-01  7.20000000E-01  8.50000000E-01  8.50000000E-01
  7.20000000E-01  7.20000000E-01  8.50000000E-01  8.50000000E-01  7.20000000E-01
  7.20000000E-01  7.20000000E-01  8.50000000E-01  8.50000000E-01  7.20000000E-01
  8.50000000E-01  7.20000000E-01  8.50000000E-01  7.20000000E-01  8.50000000E-01
  8.50000000E-01  7.20000000E-01  8.50000000E-01  8.50000000E-01  7.20000000E-01
  8.50000000E-01  8.50000000E-01  8.50000000E-01  8.50000000E-01  8.50000000E-01
  7.20000000E-01  7.20000000E-01  8.50000000E-01  8.50000000E-01  8.50000000E-01
  7.20000000E-01  8.50000000E-01  8.50000000E-01  8.50000000E-01  8.50000000E-01
  9.60000000E-01  7.20000000E-01  7.20000000E-01  7.20000000E-01  7.20000000E-01
  7.20000000E-01  9.60000000E-01  7.20000000E-01  7.20000000E-01  8.50000000E-01
  7.20000000E-01  7.20000000E-01  7.20000000E-01  7.20000000E-01  7.20000000E-01
  8.50000000E-01  7.20000000E-01  7.20000000E-01  8.50000000E-01  8.50000000E-01
  7.20000000E-01  8.50000000E-01  8.50000000E-01  7.20000000E-01  8.50000000E-01
  8.50000000E-01  7.20000000E-01  8.50000000E-01  8.50000000E-01  7.20000000E-01
  7.20000000E-01  8.50000000E-01  8.50000000E-01  7.20000000E-01  7.20000000E-01
  7.20000000E-01  8.50000000E-01  8.50000000E-01  7.20000000E-01  8.50000000E-01
  7.20000000E-01  8.50000000E-01  7.20000000E-01  8.50000000E-01  8.50000000E-01
  7.20000000E-01  8.50000000E-01  8.50000000E-01  7.20000000E-01  8.50000000E-01
  8.50000000E-01  8.50000000E-01  8.50000000E-01  8.50000000E-01  7.20000000E-01
  7.20000000E-01  8.50000000E-01  8.50000000E-01  8.50000000E-01  7.20000000E-01
  8.50000000E-01  8.50000000E-01  8.50000000E-01  8.50000000E-01  9.60000000E-01
  7.20000000E-01  7.20000000E-01  7.20000000E-01  7.20000000E-01  7.20000000E-01
  9.60000000E-01  7.20000000E-01  7.20000000E-01  8.50000000E-01  7.20000000E-01
  7.20000000E-01  7.20000000E-01  7.20000000E-01  7.20000000E-01  8.50000000E-01
  7.20000000E-01  7.20000000E-01  8.50000000E-01  8.50000000E-01  7.20000000E-01
  8.50000000E-01  8.50000000E-01  7.20000000E-01  8.50000000E-01  8.50000000E-01
  7.20000000E-01  8.50000000E-01  8.50000000E-01  7.20000000E-01  7.20000000E-01
  8.50000000E-01  8.50000000E-01  7.20000000E-01  7.20000000E-01  7.20000000E-01
  8.50000000E-01  8.50000000E-01  7.20000000E-01  8.50000000E-01  7.20000000E-01
  8.50000000E-01  7.20000000E-01  8.50000000E-01  8.50000000E-01  7.20000000E-01
  8.50000000E-01  8.50000000E-01  7.20000000E-01  8.50000000E-01  8.50000000E-01
  8.50000000E-01  8.50000000E-01  8.50000000E-01  7.20000000E-01  7.20000000E-01
  8.50000000E-01  8.50000000E-01  8.50000000E-01  7.20000000E-01  8.50000000E-01
  8.50000000E-01  8.50000000E-01  8.50000000E-01  9.60000000E-01  7.20000000E-01
  7.20000000E-01  7.20000000E-01  7.20000000E-01  7.20000000E-01  9.60000000E-01
  7.20000000E-01  7.20000000E-01  8.50000000E-01  7.20000000E-01  7.20000000E-01
  7.20000000E-01  7.20000000E-01  7.20000000E-01  8.50000000E-01  7.20000000E-01
  7.20000000E-01  8.50000000E-01  8.50000000E-01  7.20000000E-01  8.50000000E-01
  8.50000000E-01  7.20000000E-01  8.50000000E-01  8.50000000E-01  7.20000000E-01
  8.50000000E-01  8.50000000E-01  7.20000000E-01  7.20000000E-01  8.50000000E-01
  8.50000000E-01  7.20000000E-01  7.20000000E-01  7.20000000E-01  8.50000000E-01
  8.50000000E-01  7.20000000E-01  8.50000000E-01  7.20000000E-01  8.50000000E-01
  7.20000000E-01  8.50000000E-01  8.50000000E-01  7.20000000E-01  8.50000000E-01
  8.50000000E-01  7.20000000E-01  8.50000000E-01  8.50000000E-01  8.50000000E-01
  8.50000000E-01  8.50000000E-01  7.20000000E-01  7.20000000E-01  8.50000000E-01
  8.50000000E-01  8.50000000E-01  7.20000000E-01  8.50000000E-01  8.50000000E-01
  8.50000000E-01  8.50000000E-01  9.60000000E-01  7.20000000E-01  7.20000000E-01
  7.20000000E-01  7.20000000E-01  7.20000000E-01  9.60000000E-01  7.20000000E-01
  7.20000000E-01  8.50000000E-01  7.20000000E-01  7.20000000E-01  7.20000000E-01
  7.20000000E-01  7.20000000E-01  8.50000000E-01  7.20000000E-01  7.20000000E-01
  8.50000000E-01  8.50000000E-01  7.20000000E-01  8.50000000E-01  8.50000000E-01
  7.20000000E-01  8.50000000E-01  8.50000000E-01  7.20000000E-01  8.50000000E-01
  8.50000000E-01  7.20000000E-01  7.20000000E-01  8.50000000E-01  8.50000000E-01
  7.20000000E-01  7.20000000E-01  7.20000000E-01  8.50000000E-01  8.50000000E-01
  7.20000000E-01  8.50000000E-01  7.20000000E-01  8.50000000E-01  7.20000000E-01
  8.50000000E-01  8.50000000E-01  7.20000000E-01  8.50000000E-01  8.50000000E-01
  7.20000000E-01  8.50000000E-01  8.50000000E-01  8.50000000E-01  8.50000000E-01
  8.50000000E-01  7.20000000E-01  7.20000000E-01  8.50000000E-01  8.50000000E-01
  8.50000000E-01  7.20000000E-01  8.50000000E-01  8.50000000E-01  8.50000000E-01
  8.50000000E-01  9.60000000E-01  7.20000000E-01  7.20000000E-01  7.20000000E-01
  7.20000000E-01  7.20000000E-01  9.60000000E-01  7.20000000E-01  7.20000000E-01
  8.50000000E-01  7.20000000E-01  7.20000000E-01  7.20000000E-01  7.20000000E-01
  7.20000000E-01  8.50000000E-01  7.20000000E-01  7.20000000E-01  8.50000000E-01
  8.50000000E-01  7.20000000E-01  8.50000000E-01  8.50000000E-01  7.20000000E-01
  8.50000000E-01  8.50000000E-01  7.20000000E-01  8.50000000E-01  8.50000000E-01
  7.20000000E-01  7.20000000E-01  8.50000000E-01  8.50000000E-01  7.20000000E-01
  7.20000000E-01  7.20000000E-01  8.50000000E-01  8.50000000E-01  7.20000000E-01
  8.50000000E-01  7.20000000E-01  8.50000000E-01  7.20000000E-01  8.50000000E-01
  8.50000000E-01  7.20000000E-01  8.50000000E-01  8.50000000E-01  7.20000000E-01
  8.50000000E-01  8.50000000E-01  8.50000000E-01  8.50000000E-01  8.50000000E-01
  7.20000000E-01  7.20000000E-01  8.50000000E-01  8.50000000E-01  8.50000000E-01
  7.20000000E-01  8.50000000E-01  8.50000000E-01  8.50000000E-01  8.50000000E-01
  9.60000000E-01  7.20000000E-01  7.20000000E-01  7.20000000E-01  7.20000000E-01
  7.20000000E-01  9.60000000E-01  7.20000000E-01  7.20000000E-01  8.50000000E-01
  7.20000000E-01  7.20000000E-01  7.20000000E-01  7.20000000E-01  7.20000000E-01
  8.50000000E-01  7.20000000E-01  7.20000000E-01  8.50000000E-01  8.50000000E-01
  7.20000000E-01  8.50000000E-01  8.50000000E-01  7.20000000E-01  8.50000000E-01
  8.50000000E-01  7.20000000E-01  8.50000000E-01  8.50000000E-01  7.20000000E-01
  7.20000000E-01  8.50000000E-01  8.50000000E-01  7.20000000E-01  7.20000000E-01
  7.20000000E-01  8.50000000E-01  8.50000000E-01  7.20000000E-01  8.50000000E-01
  7.20000000E-01  8.50000000E-01  7.20000000E-01  8.50000000E-01  8.50000000E-01
  7.20000000E-01  8.50000000E-01  8.50000000E-01  7.20000000E-01  8.50000000E-01
  8.50000000E-01  8.50000000E-01  8.50000000E-01  8.50000000E-01  7.20000000E-01
  7.20000000E-01  8.50000000E-01  8.50000000E-01  8.50000000E-01  7.20000000E-01
  8.50000000E-01  8.50000000E-01  8.50000000E-01  8.50000000E-01  9.60000000E-01
  7.20000000E-01  7.20000000E-01  7.20000000E-01  7.20000000E-01  7.20000000E-01
  9.60000000E-01  7.20000000E-01  7.20000000E-01  8.50000000E-01  7.20000000E-01
  7.20000000E-01  7.20000000E-01  7.20000000E-01  7.20000000E-01  8.50000000E-01
  7.20000000E-01  7.20000000E-01  8.50000000E-01  8.50000000E-01  7.20000000E-01
  8.50000000E-01  8.50000000E-01  7.20000000E-01  8.50000000E-01  8.50000000E-01
  7.20000000E-01  8.50000000E-01  8.50000000E-01  7.20000000E-01  7.20000000E-01
  8.50000000E-01  8.50000000E-01  7.20000000E-01  7.20000000E-01  7.20000000E-01
  8.50000000E-01  8.50000000E-01  7.20000000E-01  8.50000000E-01  7.20000000E-01
  8.50000000E-01  7.20000000E-01  8.50000000E-01  8.50000000E-01  7.20000000E-01
  8.50000000E-01  8.50000000E-01  7.20000000E-01  8.50000000E-01  8.50000000E-01
  8.50000000E-01  8.50000000E-01  8.50000000E-01  7.20000000E-01  7.20000000E-01
  8.50000000E-01  8.50000000E-01  8.50000000E-01  7.20000000E-01  8.50000000E-01
  8.50000000E-01  8.50000000E-01  8.50000000E-01  9.60000000E-01  7.20000000E-01
  7.20000000E-01  7.20000000E-01  7.20000000E-01  7.20000000E-01  9.60000000E-01
  7.20000000E-01  7.20000000E-01  8.50000000E-01  7.20000000E-01  7.20000000E-01
  7.20000000E-01  7.20000000E-01  7.20000000E-01  8.50000000E-01  7.20000000E-01
  7.20000000E-01  8.50000000E-01  8.50000000E-01  7.20000000E-01  8.50000000E-01
  8.50000000E-01  7.20000000E-01  8.50000000E-01  8.50000000E-01  7.20000000E-01
  8.50000000E-01  8.50000000E-01  7.20000000E-01  7.20000000E-01  8.50000000E-01
  8.50000000E-01  7.20000000E-01  7.20000000E-01  7.20000000E-01  8.50000000E-01
  8.50000000E-01  7.20000000E-01  8.50000000E-01  7.20000000E-01  8.50000000E-01
  7.20000000E-01  8.50000000E-01  8.50000000E-01  7.20000000E-01  8.50000000E-01
  8.50000000E-01  7.20000000E-01  8.50000000E-01  8.50000000E-01  8.50000000E-01
  8.50000000E-01  8.50000000E-01  7.20000000E-01  7.20000000E-01  8.50000000E-01
  8.50000000E-01  8.50000000E-01  7.20000000E-01  8.50000000E-01  8.50000000E-01
  8.50000000E-01  8.50000000E-01  9.60000000E-01  7.20000000E-01  7.20000000E-01
  7.20000000E-01  7.20000000E-01  7.20000000E-01  9.60000000E-01  7.20000000E-01
  7.20000000E-01  8.50000000E-01  7.20000000E-01  7.20000000E-01  7.20000000E-01
  7.20000000E-01  7.20000000E-01  8.50000000E-01  7.20000000E-01  7.20000000E-01
  8.50000000E-01  8.50000000E-01  7.20000000E-01  8.50000000E-01  8.50000000E-01
  7.20000000E-01  8.50000000E-01  8.50000000E-01  7.20000000E-01  8.50000000E-01
  8.50000000E-01  7.20000000E-01  7.20000000E-01  8.50000000E-01  8.50000000E-01
  7.20000000E-01  7.20000000E-01  7.20000000E-01  8.50000000E-01  8.50000000E-01
  7.20000000E-01  8.50000000E-01  7.20000000E-01  8.50000000E-01  7.20000000E-01
  8.50000000E-01  8.50000000E-01  7.20000000E-01  8.50000000E-01  8.50000000E-01
  7.20000000E-01  8.50000000E-01  8.50000000E-01  8.50000000E-01  8.50000000E-01
  8.50000000E-01  7.20000000E-01  7.20000000E-01  8.50000000E-01  8.50000000E-01
  8.50000000E-01  7.20000000E-01  8.50000000E-01  8.50000000E-01  8.50000000E-01
  8.50000000E-01  9.60000000E-01  7.20000000E-01  7.20000000E-01  7.20000000E-01
  7.20000000E-01  7.20000000E-01  9.60000000E-01  7.20000000E-01  7.20000000E-01
  8.50000000E-01  7.20000000E-01  7.20000000E-01  7.20000000E-01  7.20000000E-01
  7.20000000E-01  8.50000000E-01  7.20000000E-01  7.20000000E-01  8.50000000E-01
  8.50000000E-01  7.20000000E-01  8.50000000E-01  8.50000000E-01  7.20000000E-01
  8.50000000E-01  8.50000000E-01  7.20000000E-01  8.50000000E-01  8.50000000E-01
  7.20000000E-01  7.20000000E-01  8.50000000E-01  8.50000000E-01  7.20000000E-01
  7.20000000E-01  7.20000000E-01  8.50000000E-01  8.50000000E-01  7.20000000E-01
  8.50000000E-01  7.20000000E-01  8.50000000E-01  7.20000000E-01  8.50000000E-01
  8.50000000E-01  7.20000000E-01  8.50000000E-01  8.50000000E-01  7.20000000E-01
  8.50000000E-01  8.50000000E-01  8.50000000E-01  8.50000000E-01  8.50000000E-01
  7.20000000E-01  7.20000000E-01  8.50000000E-01  8.50000000E-01  8.50000000E-01
  7.20000000E-01  8.50000000E-01  8.50000000E-01  8.50000000E-01  8.50000000E-01
  9.60000000E-01  7.20000000E-01  7.20000000E-01  7.20000000E-01  7.20000000E-01
  7.20000000E-01  9.60000000E-01  7.20000000E-01  7.20000000E-01  8.50000000E-01
  7.20000000E-01  7.20000000E-01  7.20000000E-01  7.20000000E-01  7.20000000E-01
  8.50000000E-01  7.20000000E-01  7.20000000E-01  8.50000000E-01  8.50000000E-01
  7.20000000E-01  8.50000000E-01  8.50000000E-01  7.20000000E-01  8.50000000E-01
  8.50000000E-01  7.20000000E-01  8.50000000E-01  8.50000000E-01  7.20000000E-01
  7.20000000E-01  8.50000000E-01  8.50000000E-01  7.20000000E-01  7.20000000E-01
  7.20000000E-01  8.50000000E-01  8.50000000E-01  7.20000000E-01  8.50000000E-01
  7.20000000E-01  8.50000000E-01  7.20000000E-01  8.50000000E-01  8.50000000E-01
  7.20000000E-01  8.50000000E-01  8.50000000E-01  7.20000000E-01  8.50000000E-01
  8.50000000E-01  8.50000000E-01  8.50000000E-01  8.50000000E-01  7.20000000E-01
  7.20000000E-01  8.50000000E-01  8.50000000E-01  8.50000000E-01  7.20000000E-01
  8.50000000E-01  8.50000000E-01  8.50000000E-01  8.50000000E-01  9.60000000E-01
  7.20000000E-01  7.20000000E-01  7.20000000E-01  7.20000000E-01  7.20000000E-01
  9.60000000E-01  7.20000000E-01  7.20000000E-01  8.50000000E-01  7.20000000E-01
  7.20000000E-01  7.20000000E-01  7.20000000E-01  7.20000000E-01  8.50000000E-01
  7.20000000E-01  7.20000000E-01  8.50000000E-01  8.50000000E-01  7.20000000E-01
  8.50000000E-01  8.50000000E-01  7.20000000E-01  8.50000000E-01  8.50000000E-01
  7.20000000E-01  8.50000000E-01  8.50000000E-01  7.20000000E-01  7.20000000E-01
  8.50000000E-01  8.50000000E-01  7.20000000E-01  7.20000000E-01  7.20000000E-01
  8.50000000E-01  8.50000000E-01  7.20000000E-01  8.50000000E-01  7.20000000E-01
  8.50000000E-01  7.20000000E-01  8.50000000E-01  8.50000000E-01  7.20000000E-01
  8.50000000E-01  8.50000000E-01  7.20000000E-01  8.50000000E-01  8.50000000E-01
  8.50000000E-01  8.50000000E-01  8.50000000E-01  7.20000000E-01  7.20000000E-01
  8.50000000E-01  8.50000000E-01  8.50000000E-01  7.20000000E-01  8.50000000E-01
  8.50000000E-01  8.50000000E-01  8.50000000E-01  9.60000000E-01  7.20000000E-01
  7.20000000E-01  7.20000000E-01  7.20000000E-01  7.20000000E-01  9.60000000E-01
  7.20000000E-01  7.20000000E-01  8.50000000E-01  7.20000000E-01  7.20000000E-01
  7.20000000E-01  7.20000000E-01  7.20000000E-01  8.50000000E-01  7.20000000E-01
  7.20000000E-01  8.50000000E-01  8.50000000E-01  7.20000000E-01  8.50000000E-01
  8.50000000E-01  7.20000000E-01  8.50000000E-01  8.50000000E-01  7.20000000E-01
  8.50000000E-01  8.50000000E-01  7.20000000E-01  7.20000000E-01  8.50000000E-01
  8.50000000E-01  7.20000000E-01  7.20000000E-01  7.20000000E-01  8.50000000E-01
  8.50000000E-01  7.20000000E-01  8.50000000E-01  7.20000000E-01  8.50000000E-01
  7.20000000E-01  8.50000000E-01  8.50000000E-01  7.20000000E-01  8.50000000E-01
  8.50000000E-01  7.20000000E-01  8.50000000E-01  8.50000000E-01  8.50000000E-01
  8.50000000E-01  8.50000000E-01  7.20000000E-01  7.20000000E-01  8.50000000E-01
  8.50000000E-01  8.50000000E-01  7.20000000E-01  8.50000000E-01  8.50000000E-01
  8.50000000E-01  8.50000000E-01  9.60000000E-01  7.20000000E-01  7.20000000E-01
  7.20000000E-01  7.20000000E-01  7.20000000E-01  9.60000000E-01  7.20000000E-01
  7.20000000E-01  8.50000000E-01  7.20000000E-01  7.20000000E-01  7.20000000E-01
  7.20000000E-01  7.20000000E-01  8.50000000E-01  7.20000000E-01  7.20000000E-01
  8.50000000E-01  8.50000000E-01  7.20000000E-01  8.50000000E-01  8.50000000E-01
  7.20000000E-01  8.50000000E-01  8.50000000E-01  7.20000000E-01  8.50000000E-01
  8.50000000E-01  7.20000000E-01  7.20000000E-01  8.50000000E-01  8.50000000E-01
  7.20000000E-01  7.20000000E-01  7.20000000E-01  8.50000000E-01  8.50000000E-01
  7.20000000E-01  8.50000000E-01  7.20000000E-01  8.50000000E-01  7.20000000E-01
  8.50000000E-01  8.50000000E-01  7.20000000E-01  8.50000000E-01  8.50000000E-01
  7.20000000E-01  8.50000000E-01  8.50000000E-01  8.50000000E-01  8.50000000E-01
  8.50000000E-01  7.20000000E-01  7.20000000E-01  8.50000000E-01  8.50000000E-01
  8.50000000E-01  7.20000000E-01  8.50000000E-01  8.50000000E-01  8.50000000E-01
  8.50000000E-01  9.60000000E-01  7.20000000E-01  7.20000000E-01  7.20000000E-01
  7.20000000E-01  7.20000000E-01  9.60000000E-01  7.20000000E-01  7.20000000E-01
  8.50000000E-01  7.20000000E-01  7.20000000E-01  7.20000000E-01  7.20000000E-01
  7.20000000E-01  8.50000000E-01  7.20000000E-01  7.20000000E-01  8.50000000E-01
  8.50000000E-01  7.20000000E-01  8.50000000E-01  8.50000000E-01  7.20000000E-01
  8.50000000E-01  8.50000000E-01  7.20000000E-01  8.50000000E-01  8.50000000E-01
  7.20000000E-01  7.20000000E-01  8.50000000E-01  8.50000000E-01  7.20000000E-01
  7.20000000E-01  7.20000000E-01  8.50000000E-01  8.50000000E-01  7.20000000E-01
  8.50000000E-01  7.20000000E-01  8.50000000E-01  7.20000000E-01  8.50000000E-01
  8.50000000E-01  7.20000000E-01  8.50000000E-01  8.50000000E-01  7.20000000E-01
  8.50000000E-01  8.50000000E-01  8.50000000E-01  8.50000000E-01  8.50000000E-01
  7.20000000E-01  7.20000000E-01  8.50000000E-01  8.50000000E-01  8.50000000E-01
  7.20000000E-01  8.50000000E-01  8.50000000E-01  8.50000000E-01  8.50000000E-01
  9.60000000E-01  7.20000000E-01  7.20000000E-01  7.20000000E-01  7.20000000E-01
  7.20000000E-01  9.60000000E-01  7.20000000E-01  7.20000000E-01  8.50000000E-01
  7.20000000E-01  7.20000000E-01  7.20000000E-01  7.20000000E-01  7.20000000E-01
  8.50000000E-01  7.20000000E-01  7.20000000E-01  8.50000000E-01  8.50000000E-01
  7.20000000E-01  8.50000000E-01  8.50000000E-01  7.20000000E-01  8.50000000E-01
  8.50000000E-01  7.20000000E-01  8.50000000E-01  8.50000000E-01  7.20000000E-01
  7.20000000E-01  8.50000000E-01  8.50000000E-01  7.20000000E-01  7.20000000E-01
  7.20000000E-01  8.50000000E-01  8.50000000E-01  7.20000000E-01  8.50000000E-01
  7.20000000E-01  8.50000000E-01  7.20000000E-01  8.50000000E-01  8.50000000E-01
  7.20000000E-01  8.50000000E-01  8.50000000E-01  7.20000000E-01  8.50000000E-01
  8.50000000E-01  8.50000000E-01  8.50000000E-01  8.50000000E-01  7.20000000E-01
  7.20000000E-01  8.50000000E-01  8.50000000E-01  8.50000000E-01  7.20000000E-01
  8.50000000E-01  8.50000000E-01  8.50000000E-01  8.50000000E-01  9.60000000E-01
  7.20000000E-01  7.20000000E-01  7.20000000E-01  7.20000000E-01  7.20000000E-01
  9.60000000E-01  7.20000000E-01  7.20000000E-01  8.50000000E-01  7.20000000E-01
  7.20000000E-01  7.20000000E-01  7.20000000E-01  7.20000000E-01  8.50000000E-01
  7.20000000E-01  7.20000000E-01  8.50000000E-01  8.50000000E-01  7.20000000E-01
  8.50000000E-01  8.50000000E-01  7.20000000E-01  8.50000000E-01  8.50000000E-01
  7.20000000E-01  8.50000000E-01  8.50000000E-01  7.20000000E-01  7.20000000E-01
  8.50000000E-01  8.50000000E-01  7.20000000E-01  7.20000000E-01  7.20000000E-01
  8.50000000E-01  8.50000000E-01  7.20000000E-01  8.50000000E-01  7.20000000E-01
  8.50000000E-01  7.20000000E-01  8.50000000E-01  8.50000000E-01  7.20000000E-01
  8.50000000E-01  8.50000000E-01  7.20000000E-01  8.50000000E-01  8.50000000E-01
  8.50000000E-01  8.50000000E-01  8.50000000E-01  7.20000000E-01  7.20000000E-01
  8.50000000E-01  8.50000000E-01  8.50000000E-01  7.20000000E-01  8.50000000E-01
  8.50000000E-01  8.50000000E-01  8.50000000E-01  9.60000000E-01  7.20000000E-01
  7.20000000E-01  7.20000000E-01  7.20000000E-01  7.20000000E-01  9.60000000E-01
  7.20000000E-01  7.20000000E-01  8.50000000E-01  7.20000000E-01  7.20000000E-01
  7.20000000E-01  7.20000000E-01  7.20000000E-01  8.50000000E-01  7.20000000E-01
  7.20000000E-01  8.50000000E-01  8.50000000E-01  7.20000000E-01  8.50000000E-01
  8.50000000E-01  7.20000000E-01  8.50000000E-01  8.50000000E-01  7.20000000E-01
  8.50000000E-01  8.50000000E-01  7.20000000E-01  7.20000000E-01  8.50000000E-01
  8.50000000E-01  7.20000000E-01  7.20000000E-01  7.20000000E-01  8.50000000E-01
  8.50000000E-01  7.20000000E-01  8.50000000E-01  7.20000000E-01  8.50000000E-01
  7.20000000E-01  8.50000000E-01  8.50000000E-01  7.20000000E-01  8.50000000E-01
  8.50000000E-01  7.20000000E-01  8.50000000E-01  8.50000000E-01  8.50000000E-01
  8.50000000E-01  8.50000000E-01  7.20000000E-01  7.20000000E-01  8.50000000E-01
  8.50000000E-01  8.50000000E-01  7.20000000E-01  8.50000000E-01  8.50000000E-01
  8.50000000E-01  8.50000000E-01  9.60000000E-01  7.20000000E-01  7.20000000E-01
  7.20000000E-01  7.20000000E-01  7.20000000E-01  9.60000000E-01  7.20000000E-01
  7.20000000E-01  8.50000000E-01  7.20000000E-01  7.20000000E-01  7.20000000E-01
  7.20000000E-01  7.20000000E-01  8.50000000E-01  7.20000000E-01  7.20000000E-01
  8.50000000E-01  8.50000000E-01  7.20000000E-01  8.50000000E-01  8.50000000E-01
  7.20000000E-01  8.50000000E-01  8.50000000E-01  7.20000000E-01  8.50000000E-01
  8.50000000E-01  7.20000000E-01  7.20000000E-01  8.50000000E-01  8.50000000E-01
  7.20000000E-01  7.20000000E-01  7.20000000E-01  8.50000000E-01  8.50000000E-01
  7.20000000E-01  8.50000000E-01  7.20000000E-01  8.50000000E-01  7.20000000E-01
  8.50000000E-01  8.50000000E-01  7.20000000E-01  8.50000000E-01  8.50000000E-01
  7.20000000E-01  8.50000000E-01  8.50000000E-01  8.50000000E-01  8.50000000E-01
  8.50000000E-01  7.20000000E-01  7.20000000E-01  8.50000000E-01  8.50000000E-01
  8.50000000E-01  7.20000000E-01  8.50000000E-01  8.50000000E-01  8.50000000E-01
  8.50000000E-01  9.60000000E-01  7.20000000E-01  7.20000000E-01  7.20000000E-01
  7.20000000E-01  7.20000000E-01  9.60000000E-01  7.20000000E-01  7.20000000E-01
  8.50000000E-01  7.20000000E-01  7.20000000E-01  7.20000000E-01  7.20000000E-01
  7.20000000E-01  8.50000000E-01  7.20000000E-01  7.20000000E-01  8.50000000E-01
  8.50000000E-01  7.20000000E-01  8.50000000E-01  8.50000000E-01  7.20000000E-01
  8.50000000E-01  8.50000000E-01  7.20000000E-01  8.50000000E-01  8.50000000E-01
  7.20000000E-01  7.20000000E-01  8.50000000E-01  8.50000000E-01  7.20000000E-01
  7.20000000E-01  7.20000000E-01  8.50000000E-01  8.50000000E-01  7.20000000E-01
  8.50000000E-01  7.20000000E-01  8.50000000E-01  7.20000000E-01  8.50000000E-01
  8.50000000E-01  7.20000000E-01  8.50000000E-01  8.50000000E-01  7.20000000E-01
  8.50000000E-01  8.50000000E-01  8.50000000E-01  8.50000000E-01  8.50000000E-01
  7.20000000E-01  7.20000000E-01  8.50000000E-01  8.50000000E-01  8.50000000E-01
  7.20000000E-01  8.50000000E-01  8.50000000E-01  8.50000000E-01  8.50000000E-01
  9.60000000E-01  7.20000000E-01  7.20000000E-01  7.20000000E-01  7.20000000E-01
  7.20000000E-01  9.60000000E-01  7.20000000E-01  7.20000000E-01  8.50000000E-01
  7.20000000E-01  7.20000000E-01  7.20000000E-01  7.20000000E-01  7.20000000E-01
  8.50000000E-01  7.20000000E-01  7.20000000E-01  8.50000000E-01  8.50000000E-01
  7.20000000E-01  8.50000000E-01  8.50000000E-01  7.20000000E-01  8.50000000E-01
  8.50000000E-01  7.20000000E-01  8.50000000E-01  8.50000000E-01  7.20000000E-01
  7.20000000E-01  8.50000000E-01  8.50000000E-01  7.20000000E-01  7.20000000E-01
  7.20000000E-01  8.50000000E-01  8.50000000E-01  7.20000000E-01  8.50000000E-01
  7.20000000E-01  8.50000000E-01  7.20000000E-01  8.50000000E-01  8.50000000E-01
  7.20000000E-01  8.50000000E-01  8.50000000E-01  7.20000000E-01  8.50000000E-01
  8.50000000E-01  8.50000000E-01  8.50000000E-01  8.50000000E-01  7.20000000E-01
  7.20000000E-01  8.50000000E-01  8.50000000E-01  8.50000000E-01  7.20000000E-01
  8.50000000E-01  8.50000000E-01  8.50000000E-01  8.50000000E-01  9.60000000E-01
  7.20000000E-01  7.20000000E-01  7.20000000E-01  7.20000000E-01  7.20000000E-01
  9.60000000E-01  7.20000000E-01  7.20000000E-01  8.50000000E-01  7.20000000E-01
  7.20000000E-01  7.20000000E-01  7.20000000E-01  7.20000000E-01  8.50000000E-01
  7.20000000E-01  7.20000000E-01  8.50000000E-01  8.50000000E-01  7.20000000E-01
  8.50000000E-01  8.50000000E-01  7.20000000E-01  8.50000000E-01  8.50000000E-01
  7.20000000E-01  8.50000000E-01  8.50000000E-01  7.20000000E-01  7.20000000E-01
  8.50000000E-01  8.50000000E-01  7.20000000E-01  7.20000000E-01  7.20000000E-01
  8.50000000E-01  8.50000000E-01  7.20000000E-01  8.50000000E-01  7.20000000E-01
  8.50000000E-01  7.20000000E-01  8.50000000E-01  8.50000000E-01  7.20000000E-01
  8.50000000E-01  8.50000000E-01  7.20000000E-01  8.50000000E-01  8.50000000E-01
  8.50000000E-01  8.50000000E-01  8.50000000E-01  7.20000000E-01  7.20000000E-01
  8.50000000E-01  8.50000000E-01  8.50000000E-01  7.20000000E-01  8.50000000E-01
  8.50000000E-01  8.50000000E-01  8.50000000E-01  9.60000000E-01  7.20000000E-01
  7.20000000E-01  7.20000000E-01  7.20000000E-01  7.20000000E-01  9.60000000E-01
  7.20000000E-01  7.20000000E-01  8.50000000E-01  7.20000000E-01  7.20000000E-01
  7.20000000E-01  7.20000000E-01  7.20000000E-01  8.50000000E-01  7.20000000E-01
  7.20000000E-01  8.50000000E-01  8.50000000E-01  7.20000000E-01  8.50000000E-01
  8.50000000E-01  7.20000000E-01  8.50000000E-01  8.50000000E-01  7.20000000E-01
  8.50000000E-01  8.50000000E-01  7.20000000E-01  7.20000000E-01  8.50000000E-01
  8.50000000E-01  7.20000000E-01  7.20000000E-01  7.20000000E-01  8.50000000E-01
  8.50000000E-01  7.20000000E-01  8.50000000E-01  7.20000000E-01  8.50000000E-01
  7.20000000E-01  8.50000000E-01  8.50000000E-01  7.20000000E-01  8.50000000E-01
  8.50000000E-01  7.20000000E-01  8.50000000E-01  8.50000000E-01  8.50000000E-01
  8.50000000E-01  8.50000000E-01  7.20000000E-01  7.20000000E-01  8.50000000E-01
  8.50000000E-01  8.50000000E-01  7.20000000E-01  8.50000000E-01  8.50000000E-01
  8.50000000E-01  8.50000000E-01  9.60000000E-01  7.20000000E-01  7.20000000E-01
  7.20000000E-01  7.20000000E-01  7.20000000E-01  9.60000000E-01  7.20000000E-01
  7.20000000E-01  8.50000000E-01  7.20000000E-01  7.20000000E-01  7.20000000E-01
  7.20000000E-01  7.20000000E-01  8.50000000E-01  7.20000000E-01  7.20000000E-01
  8.50000000E-01  8.50000000E-01  7.20000000E-01  8.50000000E-01  8.50000000E-01
  7.20000000E-01  8.50000000E-01  8.50000000E-01  7.20000000E-01  8.50000000E-01
  8.50000000E-01  7.20000000E-01  7.20000000E-01  8.50000000E-01  8.50000000E-01
  7.20000000E-01  7.20000000E-01  7.20000000E-01  8.50000000E-01  8.50000000E-01
  7.20000000E-01  8.50000000E-01  7.20000000E-01  8.50000000E-01  7.20000000E-01
  8.50000000E-01  8.50000000E-01  7.20000000E-01  8.50000000E-01  8.50000000E-01
  7.20000000E-01  8.50000000E-01  8.50000000E-01  8.50000000E-01  8.50000000E-01
  8.50000000E-01  7.20000000E-01  7.20000000E-01  8.50000000E-01  8.50000000E-01
  8.50000000E-01  7.20000000E-01  8.50000000E-01  8.50000000E-01  8.50000000E-01
  8.50000000E-01  9.60000000E-01  7.20000000E-01  7.20000000E-01  7.20000000E-01
  7.20000000E-01  7.20000000E-01  9.60000000E-01  7.20000000E-01  7.20000000E-01
  8.50000000E-01  7.20000000E-01  7.20000000E-01  7.20000000E-01  7.20000000E-01
  7.20000000E-01  8.50000000E-01  7.20000000E-01  7.20000000E-01  8.50000000E-01
  8.50000000E-01  7.20000000E-01  8.50000000E-01  8.50000000E-01  7.20000000E-01
  8.50000000E-01  8.50000000E-01  7.20000000E-01  8.50000000E-01  8.50000000E-01
  7.20000000E-01  7.20000000E-01  8.50000000E-01  8.50000000E-01  7.20000000E-01
  7.20000000E-01  7.20000000E-01  8.50000000E-01  8.50000000E-01  7.20000000E-01
  8.50000000E-01  7.20000000E-01  8.50000000E-01  7.20000000E-01  8.50000000E-01
  8.50000000E-01  7.20000000E-01  8.50000000E-01  8.50000000E-01  7.20000000E-01
  8.50000000E-01  8.50000000E-01  8.50000000E-01  8.50000000E-01  8.50000000E-01
  7.20000000E-01  7.20000000E-01  8.50000000E-01  8.50000000E-01  8.50000000E-01
  7.20000000E-01  8.50000000E-01  8.50000000E-01  8.50000000E-01  8.50000000E-01
  9.60000000E-01  7.20000000E-01  7.20000000E-01  7.20000000E-01  7.20000000E-01
  7.20000000E-01  9.60000000E-01  7.20000000E-01  7.20000000E-01  8.50000000E-01
  7.20000000E-01  7.20000000E-01  7.20000000E-01  7.20000000E-01  7.20000000E-01
  8.50000000E-01  7.20000000E-01  7.20000000E-01  8.50000000E-01  8.50000000E-01
  7.20000000E-01  8.50000000E-01  8.50000000E-01  7.20000000E-01  8.50000000E-01
  8.50000000E-01  7.20000000E-01  8.50000000E-01  8.50000000E-01  7.20000000E-01
  7.20000000E-01  8.50000000E-01  8.50000000E-01  7.20000000E-01  7.20000000E-01
  7.20000000E-01  8.50000000E-01  8.50000000E-01  7.20000000E-01  8.50000000E-01
  7.20000000E-01  8.50000000E-01  7.20000000E-01  8.50000000E-01  8.50000000E-01
  7.20000000E-01  8.50000000E-01  8.50000000E-01  7.20000000E-01  8.50000000E-01
  8.50000000E-01  8.50000000E-01  8.50000000E-01  8.50000000E-01  7.20000000E-01
  7.20000000E-01  8.50000000E-01  8.50000000E-01  8.50000000E-01  7.20000000E-01
  8.50000000E-01  8.50000000E-01  8.50000000E-01  8.50000000E-01  9.60000000E-01
  7.20000000E-01  7.20000000E-01  7.20000000E-01  7.20000000E-01  7.20000000E-01
  9.60000000E-01  7.20000000E-01  7.20000000E-01  8.50000000E-01  7.20000000E-01
  7.20000000E-01  7.20000000E-01  7.20000000E-01  7.20000000E-01  8.50000000E-01
  7.20000000E-01  7.20000000E-01  8.50000000E-01  8.50000000E-01  7.20000000E-01
  8.50000000E-01  8.50000000E-01  7.20000000E-01  8.50000000E-01  8.50000000E-01
  7.20000000E-01  8.50000000E-01  8.50000000E-01  7.20000000E-01  7.20000000E-01
  8.50000000E-01  8.50000000E-01  7.20000000E-01  7.20000000E-01  7.20000000E-01
  8.50000000E-01  8.50000000E-01  7.20000000E-01  8.50000000E-01  7.20000000E-01
  8.50000000E-01  7.20000000E-01  8.50000000E-01  8.50000000E-01  7.20000000E-01
  8.50000000E-01  8.50000000E-01  7.20000000E-01  8.50000000E-01  8.50000000E-01
  8.50000000E-01  8.50000000E-01  8.50000000E-01  7.20000000E-01  7.20000000E-01
  8.50000000E-01  8.50000000E-01  8.50000000E-01  7.20000000E-01  8.50000000E-01
  8.50000000E-01  8.50000000E-01  8.50000000E-01  9.60000000E-01  7.20000000E-01
  7.20000000E-01  7.20000000E-01  7.20000000E-01  7.20000000E-01  9.60000000E-01
  7.20000000E-01  7.20000000E-01  8.50000000E-01  7.20000000E-01  7.20000000E-01
  7.20000000E-01  7.20000000E-01  7.20000000E-01  8.50000000E-01  7.20000000E-01
  7.20000000E-01  8.50000000E-01  8.50000000E-01  7.20000000E-01  8.50000000E-01
  8.50000000E-01  7.20000000E-01  8.50000000E-01  8.50000000E-01  7.20000000E-01
  8.50000000E-01  8.50000000E-01  7.20000000E-01  7.20000000E-01  8.50000000E-01
  8.50000000E-01  7.20000000E-01  7.20000000E-01  7.20000000E-01  8.50000000E-01
  8.50000000E-01  7.20000000E-01  8.50000000E-01  7.20000000E-01  8.50000000E-01
  7.20000000E-01  8.50000000E-01  8.50000000E-01  7.20000000E-01  8.50000000E-01
  8.50000000E-01  7.20000000E-01  8.50000000E-01  8.50000000E-01  8.50000000E-01
  8.50000000E-01  8.50000000E-01  7.20000000E-01  7.20000000E-01  8.50000000E-01
  8.50000000E-01  8.50000000E-01  7.20000000E-01  8.50000000E-01  8.50000000E-01
  8.50000000E-01  8.50000000E-01  9.60000000E-01  7.20000000E-01  7.20000000E-01
  7.20000000E-01  7.20000000E-01  7.20000000E-01  9.60000000E-01  7.20000000E-01
  7.20000000E-01  8.50000000E-01  7.20000000E-01  7.20000000E-01  7.20000000E-01
  7.20000000E-01  7.20000000E-01  8.50000000E-01  7.20000000E-01  7.20000000E-01
  8.50000000E-01  8.50000000E-01  7.20000000E-01  8.50000000E-01  8.50000000E-01
  7.20000000E-01  8.50000000E-01  8.50000000E-01  7.20000000E-01  8.50000000E-01
  8.50000000E-01  7.20000000E-01  7.20000000E-01  8.50000000E-01  8.50000000E-01
  7.20000000E-01  7.20000000E-01  7.20000000E-01  8.50000000E-01  8.50000000E-01
  7.20000000E-01  8.50000000E-01  7.20000000E-01  8.50000000E-01  7.20000000E-01
  8.50000000E-01  8.50000000E-01  7.20000000E-01  8.50000000E-01  8.50000000E-01
  7.20000000E-01  8.50000000E-01  8.50000000E-01  8.50000000E-01  8.50000000E-01
  8.50000000E-01  7.20000000E-01  7.20000000E-01  8.50000000E-01  8.50000000E-01
  8.50000000E-01  7.20000000E-01  8.50000000E-01  8.50000000E-01  8.50000000E-01
  8.50000000E-01  9.60000000E-01  7.20000000E-01  7.20000000E-01  7.20000000E-01
  7.20000000E-01  7.20000000E-01  9.60000000E-01  7.20000000E-01  7.20000000E-01
  8.50000000E-01  7.20000000E-01  7.20000000E-01  7.20000000E-01  7.20000000E-01
  7.20000000E-01  8.50000000E-01  7.20000000E-01  7.20000000E-01  8.50000000E-01
  8.50000000E-01  7.20000000E-01  8.50000000E-01  8.50000000E-01  7.20000000E-01
  8.50000000E-01  8.50000000E-01  7.20000000E-01  8.50000000E-01  8.50000000E-01
  7.20000000E-01  7.20000000E-01  8.50000000E-01  8.50000000E-01  7.20000000E-01
  7.20000000E-01  7.20000000E-01  8.50000000E-01  8.50000000E-01  7.20000000E-01
  8.50000000E-01  7.20000000E-01  8.50000000E-01  7.20000000E-01  8.50000000E-01
  8.50000000E-01  7.20000000E-01  8.50000000E-01  8.50000000E-01  7.20000000E-01
  8.50000000E-01  8.50000000E-01  8.50000000E-01  8.50000000E-01  8.50000000E-01
  7.20000000E-01  7.20000000E-01  8.50000000E-01  8.50000000E-01  8.50000000E-01
  7.20000000E-01  8.50000000E-01  8.50000000E-01  8.50000000E-01  8.50000000E-01
  9.60000000E-01  7.20000000E-01  7.20000000E-01  7.20000000E-01  7.20000000E-01
  7.20000000E-01  9.60000000E-01  7.20000000E-01  7.20000000E-01  8.50000000E-01
  7.20000000E-01  7.20000000E-01  7.20000000E-01  7.20000000E-01  7.20000000E-01
  8.50000000E-01  7.20000000E-01  7.20000000E-01  8.50000000E-01  8.50000000E-01
  7.20000000E-01  8.50000000E-01  8.50000000E-01  7.20000000E-01  8.50000000E-01
  8.50000000E-01  7.20000000E-01  8.50000000E-01  8.50000000E-01  7.20000000E-01
  7.20000000E-01  8.50000000E-01  8.50000000E-01  7.20000000E-01  7.20000000E-01
  7.20000000E-01  8.50000000E-01  8.50000000E-01  7.20000000E-01  8.50000000E-01
  7.20000000E-01  8.50000000E-01  7.20000000E-01  8.50000000E-01  8.50000000E-01
  7.20000000E-01  8.50000000E-01  8.50000000E-01  7.20000000E-01  8.50000000E-01
  8.50000000E-01  8.50000000E-01  8.50000000E-01  8.50000000E-01  7.20000000E-01
  7.20000000E-01  8.50000000E-01  8.50000000E-01  8.50000000E-01  7.20000000E-01
  8.50000000E-01  8.50000000E-01  8.50000000E-01  8.50000000E-01  9.60000000E-01
  7.20000000E-01  7.20000000E-01  7.20000000E-01  7.20000000E-01  7.20000000E-01
  9.60000000E-01  7.20000000E-01  7.20000000E-01  8.50000000E-01  7.20000000E-01
  7.20000000E-01  7.20000000E-01  7.20000000E-01  7.20000000E-01  8.50000000E-01
  7.20000000E-01  7.20000000E-01  8.50000000E-01  8.50000000E-01  7.20000000E-01
  8.50000000E-01  8.50000000E-01  7.20000000E-01  8.50000000E-01  8.50000000E-01
  7.20000000E-01  8.50000000E-01  8.50000000E-01  7.20000000E-01  7.20000000E-01
  8.50000000E-01  8.50000000E-01  7.20000000E-01  7.20000000E-01  7.20000000E-01
  8.50000000E-01  8.50000000E-01  7.20000000E-01  8.50000000E-01  7.20000000E-01
  8.50000000E-01  7.20000000E-01  8.50000000E-01  8.50000000E-01  7.20000000E-01
  8.50000000E-01  8.50000000E-01  7.20000000E-01  8.50000000E-01  8.50000000E-01
  8.50000000E-01  8.50000000E-01  8.50000000E-01  7.20000000E-01  7.20000000E-01
  8.50000000E-01  8.50000000E-01  8.50000000E-01  7.20000000E-01  8.50000000E-01
  8.50000000E-01  8.50000000E-01  8.50000000E-01  9.60000000E-01  7.20000000E-01
  7.20000000E-01  7.20000000E-01  7.20000000E-01  7.20000000E-01  9.60000000E-01
  7.20000000E-01  7.20000000E-01  8.50000000E-01  7.20000000E-01  7.20000000E-01
  7.20000000E-01  7.20000000E-01  7.20000000E-01  8.50000000E-01  7.20000000E-01
  7.20000000E-01  8.50000000E-01  8.50000000E-01  7.20000000E-01  8.50000000E-01
  8.50000000E-01  7.20000000E-01  8.50000000E-01  8.50000000E-01  7.20000000E-01
  8.50000000E-01  8.50000000E-01  7.20000000E-01  7.20000000E-01  8.50000000E-01
  8.50000000E-01  7.20000000E-01  7.20000000E-01  7.20000000E-01  8.50000000E-01
  8.50000000E-01  7.20000000E-01  8.50000000E-01  7.20000000E-01  8.50000000E-01
  7.20000000E-01  8.50000000E-01  8.50000000E-01  7.20000000E-01  8.50000000E-01
  8.50000000E-01  7.20000000E-01  8.50000000E-01  8.50000000E-01  8.50000000E-01
  8.50000000E-01  8.50000000E-01  7.20000000E-01  7.20000000E-01  8.50000000E-01
  8.50000000E-01  8.50000000E-01  7.20000000E-01  8.50000000E-01  8.50000000E-01
  8.50000000E-01  8.50000000E-01  9.60000000E-01  7.20000000E-01  7.20000000E-01
  7.20000000E-01  7.20000000E-01  7.20000000E-01  9.60000000E-01  7.20000000E-01
  7.20000000E-01  8.50000000E-01  7.20000000E-01  7.20000000E-01  7.20000000E-01
  7.20000000E-01  7.20000000E-01  8.50000000E-01  7.20000000E-01  7.20000000E-01
  8.50000000E-01  8.50000000E-01  7.20000000E-01  8.50000000E-01  8.50000000E-01
  7.20000000E-01  8.50000000E-01  8.50000000E-01  7.20000000E-01  8.50000000E-01
  8.50000000E-01  7.20000000E-01  7.20000000E-01  8.50000000E-01  8.50000000E-01
  7.20000000E-01  7.20000000E-01  7.20000000E-01  8.50000000E-01  8.50000000E-01
  7.20000000E-01  8.50000000E-01  7.20000000E-01  8.50000000E-01  7.20000000E-01
  8.50000000E-01  8.50000000E-01  7.20000000E-01  8.50000000E-01  8.50000000E-01
  7.20000000E-01  8.50000000E-01  8.50000000E-01  8.50000000E-01  8.50000000E-01
  8.50000000E-01  7.20000000E-01  7.20000000E-01  8.50000000E-01  8.50000000E-01
  8.50000000E-01  7.20000000E-01  8.50000000E-01  8.50000000E-01  8.50000000E-01
  8.50000000E-01  9.60000000E-01  7.20000000E-01  7.20000000E-01  7.20000000E-01
  7.20000000E-01  7.20000000E-01  9.60000000E-01  7.20000000E-01  7.20000000E-01
  8.50000000E-01  7.20000000E-01  7.20000000E-01  7.20000000E-01  7.20000000E-01
  7.20000000E-01  8.50000000E-01  7.20000000E-01  7.20000000E-01  8.50000000E-01
  8.50000000E-01  7.20000000E-01  8.50000000E-01  8.50000000E-01  7.20000000E-01
  8.50000000E-01  8.50000000E-01  7.20000000E-01  8.50000000E-01  8.50000000E-01
  7.20000000E-01  7.20000000E-01  8.50000000E-01  8.50000000E-01  7.20000000E-01
  7.20000000E-01  7.20000000E-01  8.50000000E-01  8.50000000E-01  7.20000000E-01
  8.50000000E-01  7.20000000E-01  8.50000000E-01  7.20000000E-01  8.50000000E-01
  8.50000000E-01  7.20000000E-01  8.50000000E-01  8.50000000E-01  7.20000000E-01
  8.50000000E-01  8.50000000E-01  8.50000000E-01  8.50000000E-01  8.50000000E-01
  7.20000000E-01  7.20000000E-01  8.50000000E-01  8.50000000E-01  8.50000000E-01
  7.20000000E-01  8.50000000E-01  8.50000000E-01  8.50000000E-01  8.50000000E-01
  9.60000000E-01  7.20000000E-01  7.20000000E-01  7.20000000E-01  7.20000000E-01
  7.20000000E-01  9.60000000E-01  7.20000000E-01  7.20000000E-01  8.50000000E-01
  7.20000000E-01  7.20000000E-01  7.20000000E-01  7.20000000E-01  7.20000000E-01
  8.50000000E-01  7.20000000E-01  7.20000000E-01  8.50000000E-01  8.50000000E-01
  7.20000000E-01  8.50000000E-01  8.50000000E-01  7.20000000E-01  8.50000000E-01
  8.50000000E-01  7.20000000E-01  8.50000000E-01  8.50000000E-01  7.20000000E-01
  7.20000000E-01  8.50000000E-01  8.50000000E-01  7.20000000E-01  7.20000000E-01
  7.20000000E-01  8.50000000E-01  8.50000000E-01  7.20000000E-01  8.50000000E-01
  7.20000000E-01  8.50000000E-01  7.20000000E-01  8.50000000E-01  8.50000000E-01
  7.20000000E-01  8.50000000E-01  8.50000000E-01  7.20000000E-01  8.50000000E-01
  8.50000000E-01  8.50000000E-01  8.50000000E-01  8.50000000E-01  7.20000000E-01
  7.20000000E-01  8.50000000E-01  8.50000000E-01  8.50000000E-01  7.20000000E-01
  8.50000000E-01  8.50000000E-01  8.50000000E-01  8.50000000E-01  9.60000000E-01
  7.20000000E-01  7.20000000E-01  7.20000000E-01  7.20000000E-01  7.20000000E-01
  9.60000000E-01  7.20000000E-01  7.20000000E-01  8.50000000E-01  7.20000000E-01
  7.20000000E-01  7.20000000E-01  7.20000000E-01  7.20000000E-01  8.50000000E-01
  7.20000000E-01  7.20000000E-01  8.50000000E-01  8.50000000E-01  7.20000000E-01
  8.50000000E-01  8.50000000E-01  7.20000000E-01  8.50000000E-01  8.50000000E-01
  7.20000000E-01  8.50000000E-01  8.50000000E-01  7.20000000E-01  7.20000000E-01
  8.50000000E-01  8.50000000E-01  7.20000000E-01  7.20000000E-01  7.20000000E-01
  8.50000000E-01  8.50000000E-01  7.20000000E-01  8.50000000E-01  7.20000000E-01
  8.50000000E-01  7.20000000E-01  8.50000000E-01  8.50000000E-01  7.20000000E-01
  8.50000000E-01  8.50000000E-01  7.20000000E-01  8.50000000E-01  8.50000000E-01
  8.50000000E-01  8.50000000E-01  8.50000000E-01  7.20000000E-01  7.20000000E-01
  8.50000000E-01  8.50000000E-01  8.50000000E-01  7.20000000E-01  8.50000000E-01
  8.50000000E-01  8.50000000E-01  8.50000000E-01  9.60000000E-01  7.20000000E-01
  7.20000000E-01  7.20000000E-01  7.20000000E-01  7.20000000E-01  9.60000000E-01
  7.20000000E-01  7.20000000E-01  8.50000000E-01  7.20000000E-01  7.20000000E-01
  7.20000000E-01  7.20000000E-01  7.20000000E-01  8.50000000E-01  7.20000000E-01
  7.20000000E-01  8.50000000E-01  8.50000000E-01  7.20000000E-01  8.50000000E-01
  8.50000000E-01  7.20000000E-01  8.50000000E-01  8.50000000E-01  7.20000000E-01
  8.50000000E-01  8.50000000E-01  7.20000000E-01  7.20000000E-01  8.50000000E-01
  8.50000000E-01  7.20000000E-01  7.20000000E-01  7.20000000E-01  8.50000000E-01
  8.50000000E-01  7.20000000E-01  8.50000000E-01  7.20000000E-01  8.50000000E-01
  7.20000000E-01  8.50000000E-01  8.50000000E-01  7.20000000E-01  8.50000000E-01
  8.50000000E-01  7.20000000E-01  8.50000000E-01  8.50000000E-01  8.50000000E-01
  8.50000000E-01  8.50000000E-01  7.20000000E-01  7.20000000E-01  8.50000000E-01
  8.50000000E-01  8.50000000E-01  7.20000000E-01  8.50000000E-01  8.50000000E-01
  8.50000000E-01  8.50000000E-01  9.60000000E-01  7.20000000E-01  7.20000000E-01
  7.20000000E-01  7.20000000E-01  7.20000000E-01  9.60000000E-01  7.20000000E-01
  7.20000000E-01  8.50000000E-01  7.20000000E-01  7.20000000E-01  7.20000000E-01
  7.20000000E-01  7.20000000E-01  8.50000000E-01  7.20000000E-01  7.20000000E-01
  8.50000000E-01  8.50000000E-01  7.20000000E-01  8.50000000E-01  8.50000000E-01
  7.20000000E-01  8.50000000E-01  8.50000000E-01  7.20000000E-01  8.50000000E-01
  8.50000000E-01  7.20000000E-01  7.20000000E-01  8.50000000E-01  8.50000000E-01
  7.20000000E-01  7.20000000E-01  7.20000000E-01  8.50000000E-01  8.50000000E-01
  7.20000000E-01  8.50000000E-01  7.20000000E-01  8.50000000E-01  7.20000000E-01
  8.50000000E-01  8.50000000E-01  7.20000000E-01  8.50000000E-01  8.50000000E-01
  7.20000000E-01  8.50000000E-01  8.50000000E-01  8.50000000E-01  8.50000000E-01
  8.50000000E-01  7.20000000E-01  7.20000000E-01  8.50000000E-01  8.50000000E-01
  8.50000000E-01  7.20000000E-01  8.50000000E-01  8.50000000E-01  8.50000000E-01
  8.50000000E-01  9.60000000E-01  7.20000000E-01  7.20000000E-01  7.20000000E-01
  7.20000000E-01  7.20000000E-01  9.60000000E-01  7.20000000E-01  7.20000000E-01
  8.50000000E-01  7.20000000E-01  7.20000000E-01  7.20000000E-01  7.20000000E-01
  7.20000000E-01  8.50000000E-01  7.20000000E-01  7.20000000E-01  8.50000000E-01
  8.50000000E-01  7.20000000E-01  8.50000000E-01  8.50000000E-01  7.20000000E-01
  8.50000000E-01  8.50000000E-01  7.20000000E-01  8.50000000E-01  8.50000000E-01
  7.20000000E-01  7.20000000E-01  8.50000000E-01  8.50000000E-01  7.20000000E-01
  7.20000000E-01  7.20000000E-01  8.50000000E-01  8.50000000E-01  7.20000000E-01
  8.50000000E-01  7.20000000E-01  8.50000000E-01  7.20000000E-01  8.50000000E-01
  8.50000000E-01  7.20000000E-01  8.50000000E-01  8.50000000E-01  7.20000000E-01
  8.50000000E-01  8.50000000E-01  8.50000000E-01  8.50000000E-01  8.50000000E-01
  7.20000000E-01  7.20000000E-01  8.50000000E-01  8.50000000E-01  8.50000000E-01
  7.20000000E-01  8.50000000E-01  8.50000000E-01  8.50000000E-01  8.50000000E-01
  9.60000000E-01  7.20000000E-01  7.20000000E-01  7.20000000E-01  7.20000000E-01
  7.20000000E-01  9.60000000E-01  7.20000000E-01  7.20000000E-01  8.50000000E-01
  7.20000000E-01  7.20000000E-01  7.20000000E-01  7.20000000E-01  7.20000000E-01
  8.50000000E-01  7.20000000E-01  7.20000000E-01  8.50000000E-01  8.50000000E-01
  7.20000000E-01  8.50000000E-01  8.50000000E-01  7.20000000E-01  8.50000000E-01
  8.50000000E-01  7.20000000E-01  8.50000000E-01  8.50000000E-01  7.20000000E-01
  7.20000000E-01  8.50000000E-01  8.50000000E-01  7.20000000E-01  7.20000000E-01
  7.20000000E-01  8.50000000E-01  8.50000000E-01  7.20000000E-01  8.50000000E-01
  7.20000000E-01  8.50000000E-01  7.20000000E-01  8.50000000E-01  8.50000000E-01
  7.20000000E-01  8.50000000E-01  8.50000000E-01  7.20000000E-01  8.50000000E-01
  8.50000000E-01  8.50000000E-01  8.50000000E-01  8.50000000E-01  7.20000000E-01
  7.20000000E-01  8.50000000E-01  8.50000000E-01  8.50000000E-01  7.20000000E-01
  8.50000000E-01  8.50000000E-01  8.50000000E-01  8.50000000E-01  9.60000000E-01
  7.20000000E-01  7.20000000E-01  7.20000000E-01  7.20000000E-01  7.20000000E-01
  9.60000000E-01  7.20000000E-01  7.20000000E-01  8.50000000E-01  7.20000000E-01
  7.20000000E-01  7.20000000E-01  7.20000000E-01  7.20000000E-01  8.50000000E-01
  7.20000000E-01  7.20000000E-01  8.50000000E-01  8.50000000E-01  7.20000000E-01
  8.50000000E-01  8.50000000E-01  7.20000000E-01  8.50000000E-01  8.50000000E-01
  7.20000000E-01  8.50000000E-01  8.50000000E-01  7.20000000E-01  7.20000000E-01
  8.50000000E-01  8.50000000E-01  7.20000000E-01  7.20000000E-01  7.20000000E-01
  8.50000000E-01  8.50000000E-01  7.20000000E-01  8.50000000E-01  7.20000000E-01
  8.50000000E-01  7.20000000E-01  8.50000000E-01  8.50000000E-01  7.20000000E-01
  8.50000000E-01  8.50000000E-01  7.20000000E-01  8.50000000E-01  8.50000000E-01
  8.50000000E-01  8.50000000E-01  8.50000000E-01  7.20000000E-01  7.20000000E-01
  8.50000000E-01  8.50000000E-01  8.50000000E-01  7.20000000E-01  8.50000000E-01
  8.50000000E-01  8.50000000E-01  8.50000000E-01  9.60000000E-01  7.20000000E-01
  7.20000000E-01  7.20000000E-01  7.20000000E-01  7.20000000E-01  9.60000000E-01
  7.20000000E-01  7.20000000E-01  8.50000000E-01  7.20000000E-01  7.20000000E-01
  7.20000000E-01  7.20000000E-01  7.20000000E-01  8.50000000E-01  7.20000000E-01
  7.20000000E-01  8.50000000E-01  8.50000000E-01  7.20000000E-01  8.50000000E-01
  8.50000000E-01  7.20000000E-01  8.50000000E-01  8.50000000E-01  7.20000000E-01
  8.50000000E-01  8.50000000E-01  7.20000000E-01  7.20000000E-01  8.50000000E-01
  8.50000000E-01  7.20000000E-01  7.20000000E-01  7.20000000E-01  8.50000000E-01
  8.50000000E-01  7.20000000E-01  8.50000000E-01  7.20000000E-01  8.50000000E-01
  7.20000000E-01  8.50000000E-01  8.50000000E-01  7.20000000E-01  8.50000000E-01
  8.50000000E-01  7.20000000E-01  8.50000000E-01  8.50000000E-01  8.50000000E-01
  8.50000000E-01  8.50000000E-01  7.20000000E-01  7.20000000E-01  8.50000000E-01
  8.50000000E-01  8.50000000E-01  7.20000000E-01  8.50000000E-01  8.50000000E-01
  8.50000000E-01  8.50000000E-01  9.60000000E-01  7.20000000E-01  7.20000000E-01
  7.20000000E-01  7.20000000E-01  7.20000000E-01  9.60000000E-01  7.20000000E-01
  7.20000000E-01  8.50000000E-01  7.20000000E-01  7.20000000E-01  7.20000000E-01
  7.20000000E-01  7.20000000E-01  8.50000000E-01  7.20000000E-01  7.20000000E-01
  8.50000000E-01  8.50000000E-01  7.20000000E-01  8.50000000E-01  8.50000000E-01
  7.20000000E-01  8.50000000E-01  8.50000000E-01  7.20000000E-01  8.50000000E-01
  8.50000000E-01  7.20000000E-01  7.20000000E-01  8.50000000E-01  8.50000000E-01
  7.20000000E-01  7.20000000E-01  7.20000000E-01  8.50000000E-01  8.50000000E-01
  7.20000000E-01  8.50000000E-01  7.20000000E-01  8.50000000E-01  7.20000000E-01
  8.50000000E-01  8.50000000E-01  7.20000000E-01  8.50000000E-01  8.50000000E-01
  7.20000000E-01  8.50000000E-01  8.50000000E-01  8.50000000E-01  8.50000000E-01
  8.50000000E-01  7.20000000E-01  7.20000000E-01  8.50000000E-01  8.50000000E-01
  8.50000000E-01  7.20000000E-01  8.50000000E-01  8.50000000E-01  8.50000000E-01
  8.50000000E-01  9.60000000E-01  7.20000000E-01  7.20000000E-01  7.20000000E-01
  7.20000000E-01  7.20000000E-01  9.60000000E-01  7.20000000E-01  7.20000000E-01
  8.50000000E-01  7.20000000E-01  7.20000000E-01  7.20000000E-01  7.20000000E-01
  7.20000000E-01  8.50000000E-01  7.20000000E-01  7.20000000E-01  8.50000000E-01
  8.50000000E-01  7.20000000E-01  8.50000000E-01  8.50000000E-01  7.20000000E-01
  8.50000000E-01  8.50000000E-01  7.20000000E-01  8.50000000E-01  8.50000000E-01
  7.20000000E-01  7.20000000E-01  8.50000000E-01  8.50000000E-01  7.20000000E-01
  7.20000000E-01  7.20000000E-01  8.50000000E-01  8.50000000E-01  7.20000000E-01
  8.50000000E-01  7.20000000E-01  8.50000000E-01  7.20000000E-01  8.50000000E-01
  8.50000000E-01  7.20000000E-01  8.50000000E-01  8.50000000E-01  7.20000000E-01
  8.50000000E-01  8.50000000E-01  8.50000000E-01  8.50000000E-01  8.50000000E-01
  7.20000000E-01  7.20000000E-01  8.50000000E-01  8.50000000E-01  8.50000000E-01
  7.20000000E-01  8.50000000E-01  8.50000000E-01  8.50000000E-01  8.50000000E-01
  9.60000000E-01  7.20000000E-01  7.20000000E-01  7.20000000E-01  7.20000000E-01
  7.20000000E-01  9.60000000E-01  7.20000000E-01  7.20000000E-01  8.50000000E-01
  7.20000000E-01  7.20000000E-01  7.20000000E-01  7.20000000E-01  7.20000000E-01
  8.50000000E-01  7.20000000E-01  7.20000000E-01  8.50000000E-01  8.50000000E-01
  7.20000000E-01  8.50000000E-01  8.50000000E-01  7.20000000E-01  8.50000000E-01
  8.50000000E-01  7.20000000E-01  8.50000000E-01  8.50000000E-01  7.20000000E-01
  7.20000000E-01  8.50000000E-01  8.50000000E-01  7.20000000E-01  7.20000000E-01
  7.20000000E-01  8.50000000E-01  8.50000000E-01  7.20000000E-01  8.50000000E-01
  7.20000000E-01  8.50000000E-01  7.20000000E-01  8.50000000E-01  8.50000000E-01
  7.20000000E-01  8.50000000E-01  8.50000000E-01  7.20000000E-01  8.50000000E-01
  8.50000000E-01  8.50000000E-01  8.50000000E-01  8.50000000E-01  7.20000000E-01
  7.20000000E-01  8.50000000E-01  8.50000000E-01  8.50000000E-01  7.20000000E-01
  8.50000000E-01  8.50000000E-01  8.50000000E-01  8.50000000E-01  9.60000000E-01
  7.20000000E-01  7.20000000E-01  7.20000000E-01  7.20000000E-01  7.20000000E-01
  9.60000000E-01  7.20000000E-01  7.20000000E-01  8.50000000E-01  7.20000000E-01
  7.20000000E-01  7.20000000E-01  7.20000000E-01  7.20000000E-01  8.50000000E-01
  7.20000000E-01  7.20000000E-01  8.50000000E-01  8.50000000E-01  7.20000000E-01
  8.50000000E-01  8.50000000E-01  7.20000000E-01  8.50000000E-01  8.50000000E-01
  7.20000000E-01  8.50000000E-01  8.50000000E-01  7.20000000E-01  7.20000000E-01
  8.50000000E-01  8.50000000E-01  7.20000000E-01  7.20000000E-01  7.20000000E-01
  8.50000000E-01  8.50000000E-01  7.20000000E-01  8.50000000E-01  7.20000000E-01
  8.50000000E-01  7.20000000E-01  8.50000000E-01  8.50000000E-01  7.20000000E-01
  8.50000000E-01  8.50000000E-01  7.20000000E-01  8.50000000E-01  8.50000000E-01
  8.50000000E-01  8.50000000E-01  8.50000000E-01  7.20000000E-01  7.20000000E-01
  8.50000000E-01  8.50000000E-01  8.50000000E-01  7.20000000E-01  8.50000000E-01
  8.50000000E-01  8.50000000E-01  8.50000000E-01  9.60000000E-01  7.20000000E-01
  7.20000000E-01  7.20000000E-01  7.20000000E-01  7.20000000E-01  9.60000000E-01
  7.20000000E-01  7.20000000E-01  8.50000000E-01  7.20000000E-01  7.20000000E-01
  7.20000000E-01  7.20000000E-01  7.20000000E-01  8.50000000E-01  7.20000000E-01
  7.20000000E-01  8.50000000E-01  8.50000000E-01  7.20000000E-01  8.50000000E-01
  8.50000000E-01  7.20000000E-01  8.50000000E-01  8.50000000E-01  7.20000000E-01
  8.50000000E-01  8.50000000E-01  7.20000000E-01  7.20000000E-01  8.50000000E-01
  8.50000000E-01  7.20000000E-01  7.20000000E-01  7.20000000E-01  8.50000000E-01
  8.50000000E-01  7.20000000E-01  8.50000000E-01  7.20000000E-01  8.50000000E-01
  7.20000000E-01  8.50000000E-01  8.50000000E-01  7.20000000E-01  8.50000000E-01
  8.50000000E-01  7.20000000E-01  8.50000000E-01  8.50000000E-01  8.50000000E-01
  8.50000000E-01  8.50000000E-01  7.20000000E-01  7.20000000E-01  8.50000000E-01
  8.50000000E-01  8.50000000E-01  7.20000000E-01  8.50000000E-01  8.50000000E-01
  8.50000000E-01  8.50000000E-01  9.60000000E-01  7.20000000E-01  7.20000000E-01
  7.20000000E-01  7.20000000E-01  7.20000000E-01  9.60000000E-01  7.20000000E-01
  7.20000000E-01  8.50000000E-01  7.20000000E-01  7.20000000E-01  7.20000000E-01
  7.20000000E-01  7.20000000E-01  8.50000000E-01  7.20000000E-01  7.20000000E-01
  8.50000000E-01  8.50000000E-01  7.20000000E-01  8.50000000E-01  8.50000000E-01
  7.20000000E-01  8.50000000E-01  8.50000000E-01  7.20000000E-01  8.50000000E-01
  8.50000000E-01  7.20000000E-01  7.20000000E-01  8.50000000E-01  8.50000000E-01
  7.20000000E-01  7.20000000E-01  7.20000000E-01  8.50000000E-01  8.50000000E-01
  7.20000000E-01  8.50000000E-01  7.20000000E-01  8.50000000E-01  7.20000000E-01
  8.50000000E-01  8.50000000E-01  7.20000000E-01  8.50000000E-01  8.50000000E-01
  7.20000000E-01  8.50000000E-01  8.50000000E-01  8.50000000E-01  8.50000000E-01
  8.50000000E-01  7.20000000E-01  7.20000000E-01  8.50000000E-01  8.50000000E-01
  8.50000000E-01  7.20000000E-01  8.50000000E-01  8.50000000E-01  8.50000000E-01
  8.50000000E-01  9.60000000E-01  7.20000000E-01  7.20000000E-01  7.20000000E-01
  7.20000000E-01  7.20000000E-01  9.60000000E-01  7.20000000E-01  7.20000000E-01
  8.50000000E-01  7.20000000E-01  7.20000000E-01  7.20000000E-01  7.20000000E-01
  7.20000000E-01  8.50000000E-01  7.20000000E-01  7.20000000E-01  8.50000000E-01
  8.50000000E-01  7.20000000E-01  8.50000000E-01  8.50000000E-01  7.20000000E-01
  8.50000000E-01  8.50000000E-01  7.20000000E-01  8.50000000E-01  8.50000000E-01
  7.20000000E-01  7.20000000E-01  8.50000000E-01  8.50000000E-01  7.20000000E-01
  7.20000000E-01  7.20000000E-01  8.50000000E-01  8.50000000E-01  7.20000000E-01
  8.50000000E-01  7.20000000E-01  8.50000000E-01  7.20000000E-01  8.50000000E-01
  8.50000000E-01  7.20000000E-01  8.50000000E-01  8.50000000E-01  7.20000000E-01
  8.50000000E-01  8.50000000E-01  8.50000000E-01  8.50000000E-01  8.50000000E-01
  7.20000000E-01  7.20000000E-01  8.50000000E-01  8.50000000E-01  8.50000000E-01
  7.20000000E-01  8.50000000E-01  8.50000000E-01  8.50000000E-01  8.50000000E-01
  9.60000000E-01  7.20000000E-01  7.20000000E-01  7.20000000E-01  7.20000000E-01
  7.20000000E-01  9.60000000E-01  7.20000000E-01  7.20000000E-01  8.50000000E-01
  7.20000000E-01  7.20000000E-01  7.20000000E-01  7.20000000E-01  7.20000000E-01
  8.50000000E-01  7.20000000E-01  7.20000000E-01  8.50000000E-01  8.50000000E-01
  7.20000000E-01  8.50000000E-01  8.50000000E-01  7.20000000E-01  8.50000000E-01
  8.50000000E-01  7.20000000E-01  8.50000000E-01  8.50000000E-01  7.20000000E-01
  7.20000000E-01  8.50000000E-01  8.50000000E-01  7.20000000E-01  7.20000000E-01
  7.20000000E-01  8.50000000E-01  8.50000000E-01  7.20000000E-01  8.50000000E-01
  7.20000000E-01  8.50000000E-01  7.20000000E-01  8.50000000E-01  8.50000000E-01
  7.20000000E-01  8.50000000E-01  8.50000000E-01  7.20000000E-01  8.50000000E-01
  8.50000000E-01  8.50000000E-01  8.50000000E-01  8.50000000E-01  7.20000000E-01
  7.20000000E-01  8.50000000E-01  8.50000000E-01  8.50000000E-01  7.20000000E-01
  8.50000000E-01  8.50000000E-01  8.50000000E-01  8.50000000E-01  9.60000000E-01
  7.20000000E-01  7.20000000E-01  7.20000000E-01  7.20000000E-01  7.20000000E-01
  9.60000000E-01  7.20000000E-01  7.20000000E-01  8.50000000E-01  7.20000000E-01
  7.20000000E-01  7.20000000E-01  7.20000000E-01  7.20000000E-01  8.50000000E-01
  7.20000000E-01  7.20000000E-01  8.50000000E-01  8.50000000E-01  7.20000000E-01
  8.50000000E-01  8.50000000E-01  7.20000000E-01  8.50000000E-01  8.50000000E-01
  7.20000000E-01  8.50000000E-01  8.50000000E-01  7.20000000E-01  7.20000000E-01
  8.50000000E-01  8.50000000E-01  7.20000000E-01  7.20000000E-01  7.20000000E-01
  8.50000000E-01  8.50000000E-01  7.20000000E-01  8.50000000E-01  7.20000000E-01
  8.50000000E-01  7.20000000E-01  8.50000000E-01  8.50000000E-01  7.20000000E-01
  8.50000000E-01  8.50000000E-01  7.20000000E-01  8.50000000E-01  8.50000000E-01
  8.50000000E-01  8.50000000E-01  8.50000000E-01  7.20000000E-01  7.20000000E-01
  8.50000000E-01  8.50000000E-01  8.50000000E-01  7.20000000E-01  8.50000000E-01
  8.50000000E-01  8.50000000E-01  8.50000000E-01  9.60000000E-01  7.20000000E-01
  7.20000000E-01  7.20000000E-01  7.20000000E-01  7.20000000E-01  9.60000000E-01
  7.20000000E-01  7.20000000E-01  8.50000000E-01  7.20000000E-01  7.20000000E-01
  7.20000000E-01  7.20000000E-01  7.20000000E-01  8.50000000E-01  7.20000000E-01
  7.20000000E-01  8.50000000E-01  8.50000000E-01  7.20000000E-01  8.50000000E-01
  8.50000000E-01  7.20000000E-01  8.50000000E-01  8.50000000E-01  7.20000000E-01
  8.50000000E-01  8.50000000E-01  7.20000000E-01  7.20000000E-01  8.50000000E-01
  8.50000000E-01  7.20000000E-01  7.20000000E-01  7.20000000E-01  8.50000000E-01
  8.50000000E-01  7.20000000E-01  8.50000000E-01  7.20000000E-01  8.50000000E-01
  7.20000000E-01  8.50000000E-01  8.50000000E-01  7.20000000E-01  8.50000000E-01
  8.50000000E-01  7.20000000E-01  8.50000000E-01  8.50000000E-01  8.50000000E-01
  8.50000000E-01  8.50000000E-01  7.20000000E-01  7.20000000E-01  8.50000000E-01
  8.50000000E-01  8.50000000E-01  7.20000000E-01  8.50000000E-01  8.50000000E-01
  8.50000000E-01  8.50000000E-01  9.60000000E-01  7.20000000E-01  7.20000000E-01
  7.20000000E-01  7.20000000E-01  7.20000000E-01  9.60000000E-01  7.20000000E-01
  7.20000000E-01  8.50000000E-01  7.20000000E-01  7.20000000E-01  7.20000000E-01
  7.20000000E-01  7.20000000E-01  8.50000000E-01  7.20000000E-01  7.20000000E-01
  8.50000000E-01  8.50000000E-01  7.20000000E-01  8.50000000E-01  8.50000000E-01
  7.20000000E-01  8.50000000E-01  8.50000000E-01  7.20000000E-01  8.50000000E-01
  8.50000000E-01  7.20000000E-01  7.20000000E-01  8.50000000E-01  8.50000000E-01
  7.20000000E-01  7.20000000E-01  7.20000000E-01  8.50000000E-01  8.50000000E-01
  7.20000000E-01  8.50000000E-01  7.20000000E-01  8.50000000E-01  7.20000000E-01
  8.50000000E-01  8.50000000E-01  7.20000000E-01  8.50000000E-01  8.50000000E-01
  7.20000000E-01  8.50000000E-01  8.50000000E-01  8.50000000E-01  8.50000000E-01
  8.50000000E-01  7.20000000E-01  7.20000000E-01  8.50000000E-01  8.50000000E-01
  8.50000000E-01  7.20000000E-01  8.50000000E-01  8.50000000E-01  8.50000000E-01
  8.50000000E-01  9.60000000E-01  7.20000000E-01  7.20000000E-01  7.20000000E-01
  7.20000000E-01  7.20000000E-01  9.60000000E-01  7.20000000E-01  7.20000000E-01
  8.50000000E-01  7.20000000E-01  7.20000000E-01  7.20000000E-01  7.20000000E-01
  7.20000000E-01  8.50000000E-01  7.20000000E-01  7.20000000E-01  8.50000000E-01
  8.50000000E-01  7.20000000E-01  8.50000000E-01  8.50000000E-01  7.20000000E-01
  8.50000000E-01  8.50000000E-01  7.20000000E-01  8.50000000E-01  8.50000000E-01
  7.20000000E-01  7.20000000E-01  8.50000000E-01  8.50000000E-01  7.20000000E-01
  7.20000000E-01  7.20000000E-01  8.50000000E-01  8.50000000E-01  7.20000000E-01
  8.50000000E-01  7.20000000E-01  8.50000000E-01  7.20000000E-01  8.50000000E-01
  8.50000000E-01  7.20000000E-01  8.50000000E-01  8.50000000E-01  7.20000000E-01
  8.50000000E-01  8.50000000E-01  8.50000000E-01  8.50000000E-01  8.50000000E-01
  7.20000000E-01  7.20000000E-01  8.50000000E-01  8.50000000E-01  8.50000000E-01
  7.20000000E-01  8.50000000E-01  8.50000000E-01  8.50000000E-01  8.50000000E-01
  9.60000000E-01  7.20000000E-01  7.20000000E-01  7.20000000E-01  7.20000000E-01
  7.20000000E-01  9.60000000E-01  7.20000000E-01  7.20000000E-01  8.50000000E-01
  7.20000000E-01  7.20000000E-01  7.20000000E-01  7.20000000E-01  7.20000000E-01
  8.50000000E-01  7.20000000E-01  7.20000000E-01  8.50000000E-01  8.50000000E-01
  7.20000000E-01  8.50000000E-01  8.50000000E-01  7.20000000E-01  8.50000000E-01
  8.50000000E-01  7.20000000E-01  8.50000000E-01  8.50000000E-01  7.20000000E-01
  7.20000000E-01  8.50000000E-01  8.50000000E-01  7.20000000E-01  7.20000000E-01
  7.20000000E-01  8.50000000E-01  8.50000000E-01  7.20000000E-01  8.50000000E-01
  7.20000000E-01  8.50000000E-01  7.20000000E-01  8.50000000E-01  8.50000000E-01
  7.20000000E-01  8.50000000E-01  8.50000000E-01  7.20000000E-01  8.50000000E-01
  8.50000000E-01  8.50000000E-01  8.50000000E-01  8.50000000E-01  7.20000000E-01
  7.20000000E-01  8.50000000E-01  8.50000000E-01  8.50000000E-01  7.20000000E-01
  8.50000000E-01  8.50000000E-01  8.50000000E-01  8.50000000E-01  9.60000000E-01
  7.20000000E-01  7.20000000E-01  7.20000000E-01  7.20000000E-01  7.20000000E-01
  9.60000000E-01  7.20000000E-01  7.20000000E-01  8.50000000E-01  7.20000000E-01
  7.20000000E-01  7.20000000E-01  7.20000000E-01  7.20000000E-01  8.50000000E-01
  7.20000000E-01  7.20000000E-01  8.50000000E-01  8.50000000E-01  7.20000000E-01
  8.50000000E-01  8.50000000E-01  7.20000000E-01  8.50000000E-01  8.50000000E-01
  7.20000000E-01  8.50000000E-01  8.50000000E-01  7.20000000E-01  7.20000000E-01
  8.50000000E-01  8.50000000E-01  7.20000000E-01  7.20000000E-01  7.20000000E-01
  8.50000000E-01  8.50000000E-01  7.20000000E-01  8.50000000E-01  7.20000000E-01
  8.50000000E-01  7.20000000E-01  8.50000000E-01  8.50000000E-01  7.20000000E-01
  8.50000000E-01  8.50000000E-01  7.20000000E-01  8.50000000E-01  8.50000000E-01
  8.50000000E-01  8.50000000E-01  8.50000000E-01  7.20000000E-01  7.20000000E-01
  8.50000000E-01  8.50000000E-01  8.50000000E-01  7.20000000E-01  8.50000000E-01
  8.50000000E-01  8.50000000E-01  8.50000000E-01  9.60000000E-01  7.20000000E-01
  7.20000000E-01  7.20000000E-01  7.20000000E-01  7.20000000E-01  9.60000000E-01
  7.20000000E-01  7.20000000E-01  8.50000000E-01  7.20000000E-01  7.20000000E-01
  7.20000000E-01  7.20000000E-01  7.20000000E-01  8.50000000E-01  7.20000000E-01
  7.20000000E-01  8.50000000E-01  8.50000000E-01  7.20000000E-01  8.50000000E-01
  8.50000000E-01  7.20000000E-01  8.50000000E-01  8.50000000E-01  7.20000000E-01
  8.50000000E-01  8.50000000E-01  7.20000000E-01  7.20000000E-01  8.50000000E-01
  8.50000000E-01  7.20000000E-01  7.20000000E-01  7.20000000E-01  8.50000000E-01
  8.50000000E-01  7.20000000E-01  8.50000000E-01  7.20000000E-01  8.50000000E-01
  7.20000000E-01  8.50000000E-01  8.50000000E-01  7.20000000E-01  8.50000000E-01
  8.50000000E-01  7.20000000E-01  8.50000000E-01  8.50000000E-01  8.50000000E-01
  8.50000000E-01  8.50000000E-01  7.20000000E-01  7.20000000E-01  8.50000000E-01
  8.50000000E-01  8.50000000E-01  7.20000000E-01  8.50000000E-01  8.50000000E-01
  8.50000000E-01  8.50000000E-01  9.60000000E-01  7.20000000E-01  7.20000000E-01
  7.20000000E-01  7.20000000E-01  7.20000000E-01  9.60000000E-01  7.20000000E-01
  7.20000000E-01  8.50000000E-01  7.20000000E-01  7.20000000E-01  7.20000000E-01
  7.20000000E-01  7.20000000E-01  8.50000000E-01  7.20000000E-01  7.20000000E-01
  8.50000000E-01  8.50000000E-01  7.20000000E-01  8.50000000E-01  8.50000000E-01
  7.20000000E-01  8.50000000E-01  8.50000000E-01  7.20000000E-01  8.50000000E-01
  8.50000000E-01  7.20000000E-01  7.20000000E-01  8.50000000E-01  8.50000000E-01
  7.20000000E-01  7.20000000E-01  7.20000000E-01  8.50000000E-01  8.50000000E-01
  7.20000000E-01  8.50000000E-01  7.20000000E-01  8.50000000E-01  7.20000000E-01
  8.50000000E-01  8.50000000E-01  7.20000000E-01  8.50000000E-01  8.50000000E-01
  7.20000000E-01  8.50000000E-01  8.50000000E-01  8.50000000E-01  8.50000000E-01
  8.50000000E-01  7.20000000E-01  7.20000000E-01  8.50000000E-01  8.50000000E-01
  8.50000000E-01  7.20000000E-01  8.50000000E-01  8.50000000E-01  8.50000000E-01
  8.50000000E-01  9.60000000E-01  7.20000000E-01  7.20000000E-01  7.20000000E-01
  7.20000000E-01  7.20000000E-01  9.60000000E-01  7.20000000E-01  7.20000000E-01
  8.50000000E-01  7.20000000E-01  7.20000000E-01  7.20000000E-01  7.20000000E-01
  7.20000000E-01  8.50000000E-01  7.20000000E-01  7.20000000E-01  8.50000000E-01
  8.50000000E-01  7.20000000E-01  8.50000000E-01  8.50000000E-01  7.20000000E-01
  8.50000000E-01  8.50000000E-01  7.20000000E-01  8.50000000E-01  8.50000000E-01
  7.20000000E-01  7.20000000E-01  8.50000000E-01  8.50000000E-01  7.20000000E-01
  7.20000000E-01  7.20000000E-01  8.50000000E-01  8.50000000E-01  7.20000000E-01
  8.50000000E-01  7.20000000E-01  8.50000000E-01  7.20000000E-01  8.50000000E-01
  8.50000000E-01  7.20000000E-01  8.50000000E-01  8.50000000E-01  7.20000000E-01
  8.50000000E-01  8.50000000E-01  8.50000000E-01  8.50000000E-01  8.50000000E-01
  7.20000000E-01  7.20000000E-01  8.50000000E-01  8.50000000E-01  8.50000000E-01
  7.20000000E-01  8.50000000E-01  8.50000000E-01  8.50000000E-01  8.50000000E-01
  9.60000000E-01  7.20000000E-01  7.20000000E-01  7.20000000E-01  7.20000000E-01
  7.20000000E-01  9.60000000E-01  7.20000000E-01  7.20000000E-01  8.50000000E-01
  7.20000000E-01  7.20000000E-01  7.20000000E-01  7.20000000E-01  7.20000000E-01
  8.50000000E-01  7.20000000E-01  7.20000000E-01  8.50000000E-01  8.50000000E-01
  7.20000000E-01  8.50000000E-01  8.50000000E-01  7.20000000E-01  8.50000000E-01
  8.50000000E-01  7.20000000E-01  8.50000000E-01  8.50000000E-01  7.20000000E-01
  7.20000000E-01  8.50000000E-01  8.50000000E-01  7.20000000E-01  7.20000000E-01
  7.20000000E-01  8.50000000E-01  8.50000000E-01  7.20000000E-01  8.50000000E-01
  7.20000000E-01  8.50000000E-01  7.20000000E-01  8.50000000E-01  8.50000000E-01
  7.20000000E-01  8.50000000E-01  8.50000000E-01  7.20000000E-01  8.50000000E-01
  8.50000000E-01  8.50000000E-01  8.50000000E-01  8.50000000E-01  7.20000000E-01
  7.20000000E-01  8.50000000E-01  8.50000000E-01  8.50000000E-01  7.20000000E-01
  8.50000000E-01  8.50000000E-01  8.50000000E-01  8.50000000E-01  9.60000000E-01
  7.20000000E-01  7.20000000E-01  7.20000000E-01  7.20000000E-01  7.20000000E-01
  9.60000000E-01  7.20000000E-01  7.20000000E-01  8.50000000E-01  7.20000000E-01
  7.20000000E-01  7.20000000E-01  7.20000000E-01  7.20000000E-01  8.50000000E-01
  7.20000000E-01  7.20000000E-01  8.50000000E-01  8.50000000E-01  7.20000000E-01
  8.50000000E-01  8.50000000E-01  7.20000000E-01  8.50000000E-01  8.50000000E-01
  7.20000000E-01  8.50000000E-01  8.50000000E-01  7.20000000E-01  7.20000000E-01
  8.50000000E-01  8.50000000E-01  7.20000000E-01  7.20000000E-01  7.20000000E-01
  8.50000000E-01  8.50000000E-01  7.20000000E-01  8.50000000E-01  7.20000000E-01
  8.50000000E-01  7.20000000E-01  8.50000000E-01  8.50000000E-01  7.20000000E-01
  8.50000000E-01  8.50000000E-01  7.20000000E-01  8.50000000E-01  8.50000000E-01
  8.50000000E-01  8.50000000E-01  8.50000000E-01  7.20000000E-01  7.20000000E-01
  8.50000000E-01  8.50000000E-01  8.50000000E-01  7.20000000E-01  8.50000000E-01
  8.50000000E-01  8.50000000E-01  8.50000000E-01  9.60000000E-01  7.20000000E-01
  7.20000000E-01  7.20000000E-01  7.20000000E-01  7.20000000E-01  9.60000000E-01
  7.20000000E-01  7.20000000E-01  8.50000000E-01  7.20000000E-01  7.20000000E-01
  7.20000000E-01  7.20000000E-01  7.20000000E-01  8.50000000E-01  7.20000000E-01
  7.20000000E-01  8.50000000E-01  8.50000000E-01  7.20000000E-01  8.50000000E-01
  8.50000000E-01  7.20000000E-01  8.50000000E-01  8.50000000E-01  7.20000000E-01
  8.50000000E-01  8.50000000E-01  7.20000000E-01  7.20000000E-01  8.50000000E-01
  8.50000000E-01  7.20000000E-01  7.20000000E-01  7.20000000E-01  8.50000000E-01
  8.50000000E-01  7.20000000E-01  8.50000000E-01  7.20000000E-01  8.50000000E-01
  7.20000000E-01  8.50000000E-01  8.50000000E-01  7.20000000E-01  8.50000000E-01
  8.50000000E-01  7.20000000E-01  8.50000000E-01  8.50000000E-01  8.50000000E-01
  8.50000000E-01  8.50000000E-01  7.20000000E-01  7.20000000E-01  8.50000000E-01
  8.50000000E-01  8.50000000E-01  7.20000000E-01  8.50000000E-01  8.50000000E-01
  8.50000000E-01  8.50000000E-01  9.60000000E-01  7.20000000E-01  7.20000000E-01
  7.20000000E-01  7.20000000E-01  7.20000000E-01  9.60000000E-01  7.20000000E-01
  7.20000000E-01  8.50000000E-01  7.20000000E-01  7.20000000E-01  7.20000000E-01
  7.20000000E-01  7.20000000E-01  8.50000000E-01  7.20000000E-01  7.20000000E-01
  8.50000000E-01  8.50000000E-01  7.20000000E-01  8.50000000E-01  8.50000000E-01
  7.20000000E-01  8.50000000E-01  8.50000000E-01  7.20000000E-01  8.50000000E-01
  8.50000000E-01  7.20000000E-01  7.20000000E-01  8.50000000E-01  8.50000000E-01
  7.20000000E-01  7.20000000E-01  7.20000000E-01  8.50000000E-01  8.50000000E-01
  7.20000000E-01  8.50000000E-01  7.20000000E-01  8.50000000E-01  7.20000000E-01
  8.50000000E-01  8.50000000E-01  7.20000000E-01  8.50000000E-01  8.50000000E-01
  7.20000000E-01  8.50000000E-01  8.50000000E-01  8.50000000E-01  8.50000000E-01
  8.50000000E-01  7.20000000E-01  7.20000000E-01  8.50000000E-01  8.50000000E-01
  8.50000000E-01  7.20000000E-01  8.50000000E-01  8.50000000E-01  8.50000000E-01
  8.50000000E-01  9.60000000E-01  7.20000000E-01  7.20000000E-01  7.20000000E-01
  7.20000000E-01  7.20000000E-01  9.60000000E-01  7.20000000E-01  7.20000000E-01
  8.50000000E-01  7.20000000E-01  7.20000000E-01  7.20000000E-01  7.20000000E-01
  7.20000000E-01  8.50000000E-01  7.20000000E-01  7.20000000E-01  8.50000000E-01
  8.50000000E-01  7.20000000E-01  8.50000000E-01  8.50000000E-01  7.20000000E-01
  8.50000000E-01  8.50000000E-01  7.20000000E-01  8.50000000E-01  8.50000000E-01
  7.20000000E-01  7.20000000E-01  8.50000000E-01  8.50000000E-01  7.20000000E-01
  7.20000000E-01  7.20000000E-01  8.50000000E-01  8.50000000E-01  7.20000000E-01
  8.50000000E-01  7.20000000E-01  8.50000000E-01  7.20000000E-01  8.50000000E-01
  8.50000000E-01  7.20000000E-01  8.50000000E-01  8.50000000E-01  7.20000000E-01
  8.50000000E-01  8.50000000E-01  8.50000000E-01  8.50000000E-01  8.50000000E-01
  7.20000000E-01  7.20000000E-01  8.50000000E-01  8.50000000E-01  8.50000000E-01
  7.20000000E-01  8.50000000E-01  8.50000000E-01  8.50000000E-01  8.50000000E-01
  9.60000000E-01  7.20000000E-01  7.20000000E-01  7.20000000E-01  7.20000000E-01
  7.20000000E-01  9.60000000E-01  7.20000000E-01  7.20000000E-01  8.50000000E-01
  7.20000000E-01  7.20000000E-01  7.20000000E-01  7.20000000E-01  7.20000000E-01
  8.50000000E-01  7.20000000E-01  7.20000000E-01  8.50000000E-01  8.50000000E-01
  7.20000000E-01  8.50000000E-01  8.50000000E-01  7.20000000E-01  8.50000000E-01
  8.50000000E-01  7.20000000E-01  8.50000000E-01  8.50000000E-01  7.20000000E-01
  7.20000000E-01  8.50000000E-01  8.50000000E-01  7.20000000E-01  7.20000000E-01
  7.20000000E-01  8.50000000E-01  8.50000000E-01  7.20000000E-01  8.50000000E-01
  7.20000000E-01  8.50000000E-01  7.20000000E-01  8.50000000E-01  8.50000000E-01
  7.20000000E-01  8.50000000E-01  8.50000000E-01  7.20000000E-01  8.50000000E-01
  8.50000000E-01  8.50000000E-01  8.50000000E-01  8.50000000E-01  7.20000000E-01
  7.20000000E-01  8.50000000E-01  8.50000000E-01  8.50000000E-01  7.20000000E-01
  8.50000000E-01  8.50000000E-01  8.50000000E-01  8.50000000E-01  9.60000000E-01
  7.20000000E-01  7.20000000E-01  7.20000000E-01  7.20000000E-01  7.20000000E-01
  9.60000000E-01  7.20000000E-01  7.20000000E-01  8.50000000E-01  7.20000000E-01
  7.20000000E-01  7.20000000E-01  7.20000000E-01  7.20000000E-01  8.50000000E-01
  7.20000000E-01  7.20000000E-01  8.50000000E-01  8.50000000E-01  7.20000000E-01
  8.50000000E-01  8.50000000E-01  7.20000000E-01  8.50000000E-01  8.50000000E-01
  7.20000000E-01  8.50000000E-01  8.50000000E-01  7.20000000E-01  7.20000000E-01
  8.50000000E-01  8.50000000E-01  7.20000000E-01  7.20000000E-01  7.20000000E-01
  8.50000000E-01  8.50000000E-01  7.20000000E-01  8.50000000E-01  7.20000000E-01
  8.50000000E-01  7.20000000E-01  8.50000000E-01  8.50000000E-01  7.20000000E-01
  8.50000000E-01  8.50000000E-01  7.20000000E-01  8.50000000E-01  8.50000000E-01
  8.50000000E-01  8.50000000E-01  8.50000000E-01  7.20000000E-01  7.20000000E-01
  8.50000000E-01  8.50000000E-01  8.50000000E-01  7.20000000E-01  8.50000000E-01
  8.50000000E-01  8.50000000E-01  8.50000000E-01  9.60000000E-01  7.20000000E-01
  7.20000000E-01  7.20000000E-01  7.20000000E-01  7.20000000E-01  9.60000000E-01
  7.20000000E-01  7.20000000E-01  8.50000000E-01  7.20000000E-01  7.20000000E-01
  7.20000000E-01  7.20000000E-01  7.20000000E-01  8.50000000E-01  7.20000000E-01
  7.20000000E-01  8.50000000E-01  8.50000000E-01  7.20000000E-01  8.50000000E-01
  8.50000000E-01  7.20000000E-01  8.50000000E-01  8.50000000E-01  7.20000000E-01
  8.50000000E-01  8.50000000E-01  7.20000000E-01  7.20000000E-01  8.50000000E-01
  8.50000000E-01  7.20000000E-01  7.20000000E-01  7.20000000E-01  8.50000000E-01
  8.50000000E-01  7.20000000E-01  8.50000000E-01  7.20000000E-01  8.50000000E-01
  7.20000000E-01  8.50000000E-01  8.50000000E-01  7.20000000E-01  8.50000000E-01
  8.50000000E-01  7.20000000E-01  8.50000000E-01  8.50000000E-01  8.50000000E-01
  8.50000000E-01  8.50000000E-01  7.20000000E-01  7.20000000E-01  8.50000000E-01
  8.50000000E-01  8.50000000E-01  7.20000000E-01  8.50000000E-01  8.50000000E-01
  8.50000000E-01  8.50000000E-01  9.60000000E-01  7.20000000E-01  7.20000000E-01
  7.20000000E-01  7.20000000E-01  7.20000000E-01  9.60000000E-01  7.20000000E-01
  7.20000000E-01  8.50000000E-01  7.20000000E-01  7.20000000E-01  7.20000000E-01
  7.20000000E-01  7.20000000E-01  8.50000000E-01  7.20000000E-01  7.20000000E-01
  8.50000000E-01  8.50000000E-01  7.20000000E-01  8.50000000E-01  8.50000000E-01
  7.20000000E-01  8.50000000E-01  8.50000000E-01  7.20000000E-01  8.50000000E-01
  8.50000000E-01  7.20000000E-01  7.20000000E-01  8.50000000E-01  8.50000000E-01
  7.20000000E-01  7.20000000E-01  7.20000000E-01  8.50000000E-01  8.50000000E-01
  7.20000000E-01  8.50000000E-01  7.20000000E-01  8.50000000E-01  7.20000000E-01
  8.50000000E-01  8.50000000E-01  7.20000000E-01  8.50000000E-01  8.50000000E-01
  7.20000000E-01  8.50000000E-01  8.50000000E-01  8.50000000E-01  8.50000000E-01
  8.50000000E-01  7.20000000E-01  7.20000000E-01  8.50000000E-01  8.50000000E-01
  8.50000000E-01  7.20000000E-01  8.50000000E-01  8.50000000E-01  8.50000000E-01
  8.50000000E-01  9.60000000E-01  7.20000000E-01  7.20000000E-01  7.20000000E-01
  7.20000000E-01  7.20000000E-01  9.60000000E-01  7.20000000E-01  7.20000000E-01
  8.50000000E-01  7.20000000E-01  7.20000000E-01  7.20000000E-01  7.20000000E-01
  7.20000000E-01  8.50000000E-01  7.20000000E-01  7.20000000E-01  8.50000000E-01
  8.50000000E-01  7.20000000E-01  8.50000000E-01  8.50000000E-01  7.20000000E-01
  8.50000000E-01  8.50000000E-01  7.20000000E-01  8.50000000E-01  8.50000000E-01
  7.20000000E-01  7.20000000E-01  8.50000000E-01  8.50000000E-01  7.20000000E-01
  7.20000000E-01  7.20000000E-01  8.50000000E-01  8.50000000E-01  7.20000000E-01
  8.50000000E-01  7.20000000E-01  8.50000000E-01  7.20000000E-01  8.50000000E-01
  8.50000000E-01  7.20000000E-01  8.50000000E-01  8.50000000E-01  7.20000000E-01
  8.50000000E-01  8.50000000E-01  8.50000000E-01  8.50000000E-01  8.50000000E-01
  7.20000000E-01  7.20000000E-01  8.50000000E-01  8.50000000E-01  8.50000000E-01
  7.20000000E-01  8.50000000E-01  8.50000000E-01  8.50000000E-01  8.50000000E-01
  9.60000000E-01  7.20000000E-01  7.20000000E-01  7.20000000E-01  7.20000000E-01
  7.20000000E-01  9.60000000E-01  7.20000000E-01  7.20000000E-01  8.50000000E-01
  7.20000000E-01  7.20000000E-01  7.20000000E-01  7.20000000E-01  7.20000000E-01
  8.50000000E-01  7.20000000E-01  7.20000000E-01  8.50000000E-01  8.50000000E-01
  7.20000000E-01  8.50000000E-01  8.50000000E-01  7.20000000E-01  8.50000000E-01
  8.50000000E-01  7.20000000E-01  8.50000000E-01  8.50000000E-01  7.20000000E-01
  7.20000000E-01  8.50000000E-01  8.50000000E-01  7.20000000E-01  7.20000000E-01
  7.20000000E-01  8.50000000E-01  8.50000000E-01  7.20000000E-01  8.50000000E-01
  7.20000000E-01  8.50000000E-01  7.20000000E-01  8.50000000E-01  8.50000000E-01
  7.20000000E-01  8.50000000E-01  8.50000000E-01  7.20000000E-01  8.50000000E-01
  8.50000000E-01  8.50000000E-01  8.50000000E-01  8.50000000E-01  7.20000000E-01
  7.20000000E-01  8.50000000E-01  8.50000000E-01  8.50000000E-01  7.20000000E-01
  8.50000000E-01  8.50000000E-01  8.50000000E-01  8.50000000E-01  9.60000000E-01
  7.20000000E-01  7.20000000E-01  7.20000000E-01  7.20000000E-01  7.20000000E-01
  9.60000000E-01  7.20000000E-01  7.20000000E-01  8.50000000E-01  7.20000000E-01
  7.20000000E-01  7.20000000E-01  7.20000000E-01  7.20000000E-01  8.50000000E-01
  7.20000000E-01  7.20000000E-01  8.50000000E-01  8.50000000E-01  7.20000000E-01
  8.50000000E-01  8.50000000E-01  7.20000000E-01  8.50000000E-01  8.50000000E-01
  7.20000000E-01  8.50000000E-01  8.50000000E-01  7.20000000E-01  7.20000000E-01
  8.50000000E-01  8.50000000E-01  7.20000000E-01  7.20000000E-01  7.20000000E-01
  8.50000000E-01  8.50000000E-01  7.20000000E-01  8.50000000E-01  7.20000000E-01
  8.50000000E-01  7.20000000E-01  8.50000000E-01  8.50000000E-01  7.20000000E-01
  8.50000000E-01  8.50000000E-01  7.20000000E-01  8.50000000E-01  8.50000000E-01
  8.50000000E-01  8.50000000E-01  8.50000000E-01  7.20000000E-01  7.20000000E-01
  8.50000000E-01  8.50000000E-01  8.50000000E-01  7.20000000E-01  8.50000000E-01
  8.50000000E-01  8.50000000E-01  8.50000000E-01  9.60000000E-01  7.20000000E-01
  7.20000000E-01  7.20000000E-01  7.20000000E-01  7.20000000E-01  9.60000000E-01
  7.20000000E-01  7.20000000E-01  8.50000000E-01  7.20000000E-01  7.20000000E-01
  7.20000000E-01  7.20000000E-01  7.20000000E-01  8.50000000E-01  7.20000000E-01
  7.20000000E-01  8.50000000E-01  8.50000000E-01  7.20000000E-01  8.50000000E-01
  8.50000000E-01  7.20000000E-01  8.50000000E-01  8.50000000E-01  7.20000000E-01
  8.50000000E-01  8.50000000E-01  7.20000000E-01  7.20000000E-01  8.50000000E-01
  8.50000000E-01  7.20000000E-01  7.20000000E-01  7.20000000E-01  8.50000000E-01
  8.50000000E-01  7.20000000E-01  8.50000000E-01  7.20000000E-01  8.50000000E-01
  7.20000000E-01  8.50000000E-01  8.50000000E-01  7.20000000E-01  8.50000000E-01
  8.50000000E-01  7.20000000E-01  8.50000000E-01  8.50000000E-01  8.50000000E-01
  8.50000000E-01  8.50000000E-01  7.20000000E-01  7.20000000E-01  8.50000000E-01
  8.50000000E-01  8.50000000E-01  7.20000000E-01  8.50000000E-01  8.50000000E-01
  8.50000000E-01  8.50000000E-01  9.60000000E-01  7.20000000E-01  7.20000000E-01
  7.20000000E-01  7.20000000E-01  7.20000000E-01  9.60000000E-01  7.20000000E-01
  7.20000000E-01  8.50000000E-01  7.20000000E-01  7.20000000E-01  7.20000000E-01
  7.20000000E-01  7.20000000E-01  8.50000000E-01  7.20000000E-01  7.20000000E-01
  8.50000000E-01  8.50000000E-01  7.20000000E-01  8.50000000E-01  8.50000000E-01
  7.20000000E-01  8.50000000E-01  8.50000000E-01  7.20000000E-01  8.50000000E-01
  8.50000000E-01  7.20000000E-01  7.20000000E-01  8.50000000E-01  8.50000000E-01
  7.20000000E-01  7.20000000E-01  7.20000000E-01  8.50000000E-01  8.50000000E-01
  7.20000000E-01  8.50000000E-01  7.20000000E-01  8.50000000E-01  7.20000000E-01
  8.50000000E-01  8.50000000E-01  7.20000000E-01  8.50000000E-01  8.50000000E-01
  7.20000000E-01  8.50000000E-01  8.50000000E-01  8.50000000E-01  8.50000000E-01
  8.50000000E-01  7.20000000E-01  7.20000000E-01  8.50000000E-01  8.50000000E-01
  8.50000000E-01  7.20000000E-01  8.50000000E-01  8.50000000E-01  8.50000000E-01
  8.50000000E-01  9.60000000E-01  7.20000000E-01  7.20000000E-01  7.20000000E-01
  7.20000000E-01  7.20000000E-01  9.60000000E-01  7.20000000E-01  7.20000000E-01
  8.50000000E-01  7.20000000E-01  7.20000000E-01  7.20000000E-01  7.20000000E-01
  7.20000000E-01  8.50000000E-01  7.20000000E-01  7.20000000E-01  8.50000000E-01
  8.50000000E-01  7.20000000E-01  8.50000000E-01  8.50000000E-01  7.20000000E-01
  8.50000000E-01  8.50000000E-01  7.20000000E-01  8.50000000E-01  8.50000000E-01
  7.20000000E-01  7.20000000E-01  8.50000000E-01  8.50000000E-01  7.20000000E-01
  7.20000000E-01  7.20000000E-01  8.50000000E-01  8.50000000E-01  7.20000000E-01
  8.50000000E-01  7.20000000E-01  8.50000000E-01  7.20000000E-01  8.50000000E-01
  8.50000000E-01  7.20000000E-01  8.50000000E-01  8.50000000E-01  7.20000000E-01
  8.50000000E-01  8.50000000E-01  8.50000000E-01  8.50000000E-01  8.50000000E-01
  7.20000000E-01  7.20000000E-01  8.50000000E-01  8.50000000E-01  8.50000000E-01
  7.20000000E-01  8.50000000E-01  8.50000000E-01  8.50000000E-01  8.50000000E-01
  9.60000000E-01  7.20000000E-01  7.20000000E-01  7.20000000E-01  7.20000000E-01
  7.20000000E-01  9.60000000E-01  7.20000000E-01  7.20000000E-01  8.50000000E-01
  7.20000000E-01  7.20000000E-01  7.20000000E-01  7.20000000E-01  7.20000000E-01
  8.50000000E-01  7.20000000E-01  7.20000000E-01  8.50000000E-01  8.50000000E-01
  7.20000000E-01  8.50000000E-01  8.50000000E-01  7.20000000E-01  8.50000000E-01
  8.50000000E-01  7.20000000E-01  8.50000000E-01  8.50000000E-01  7.20000000E-01
  7.20000000E-01  8.50000000E-01  8.50000000E-01  7.20000000E-01  7.20000000E-01
  7.20000000E-01  8.50000000E-01  8.50000000E-01  7.20000000E-01  8.50000000E-01
  7.20000000E-01  8.50000000E-01  7.20000000E-01  8.50000000E-01  8.50000000E-01
  7.20000000E-01  8.50000000E-01  8.50000000E-01  7.20000000E-01  8.50000000E-01
  8.50000000E-01  8.50000000E-01  8.50000000E-01  8.50000000E-01  7.20000000E-01
  7.20000000E-01  8.50000000E-01  8.50000000E-01  8.50000000E-01  7.20000000E-01
  8.50000000E-01  8.50000000E-01  8.50000000E-01  8.50000000E-01  9.60000000E-01
  7.20000000E-01  7.20000000E-01  7.20000000E-01  7.20000000E-01  7.20000000E-01
  9.60000000E-01  7.20000000E-01  7.20000000E-01  8.50000000E-01  7.20000000E-01
  7.20000000E-01  7.20000000E-01  7.20000000E-01  7.20000000E-01  8.50000000E-01
  7.20000000E-01  7.20000000E-01  8.50000000E-01  8.50000000E-01  7.20000000E-01
  8.50000000E-01  8.50000000E-01  7.20000000E-01  8.50000000E-01  8.50000000E-01
  7.20000000E-01  8.50000000E-01  8.50000000E-01  7.20000000E-01  7.20000000E-01
  8.50000000E-01  8.50000000E-01  7.20000000E-01  7.20000000E-01  7.20000000E-01
  8.50000000E-01  8.50000000E-01  7.20000000E-01  8.50000000E-01  7.20000000E-01
  8.50000000E-01  7.20000000E-01  8.50000000E-01  8.50000000E-01  7.20000000E-01
  8.50000000E-01  8.50000000E-01  7.20000000E-01  8.50000000E-01  8.50000000E-01
  8.50000000E-01  8.50000000E-01  8.50000000E-01  7.20000000E-01  7.20000000E-01
  8.50000000E-01  8.50000000E-01  8.50000000E-01  7.20000000E-01  8.50000000E-01
  8.50000000E-01  8.50000000E-01  8.50000000E-01  9.60000000E-01  7.20000000E-01
  7.20000000E-01  7.20000000E-01  7.20000000E-01  7.20000000E-01  9.60000000E-01
  7.20000000E-01  7.20000000E-01  8.50000000E-01  7.20000000E-01  7.20000000E-01
  7.20000000E-01  7.20000000E-01  7.20000000E-01  8.50000000E-01  7.20000000E-01
  7.20000000E-01  8.50000000E-01  8.50000000E-01  7.20000000E-01  8.50000000E-01
  8.50000000E-01  7.20000000E-01  8.50000000E-01  8.50000000E-01  7.20000000E-01
  8.50000000E-01  8.50000000E-01  7.20000000E-01  7.20000000E-01  8.50000000E-01
  8.50000000E-01  7.20000000E-01  7.20000000E-01  7.20000000E-01  8.50000000E-01
  8.50000000E-01  7.20000000E-01  8.50000000E-01  7.20000000E-01  8.50000000E-01
  7.20000000E-01  8.50000000E-01  8.50000000E-01  7.20000000E-01  8.50000000E-01
  8.50000000E-01  7.20000000E-01  8.50000000E-01  8.50000000E-01  8.50000000E-01
  8.50000000E-01  8.50000000E-01  7.20000000E-01  7.20000000E-01  8.50000000E-01
  8.50000000E-01  8.50000000E-01  7.20000000E-01  8.50000000E-01  8.50000000E-01
  8.50000000E-01  8.50000000E-01  9.60000000E-01  7.20000000E-01  7.20000000E-01
  7.20000000E-01  7.20000000E-01  7.20000000E-01  9.60000000E-01  7.20000000E-01
  7.20000000E-01  8.50000000E-01  7.20000000E-01  7.20000000E-01  7.20000000E-01
  7.20000000E-01  7.20000000E-01  8.50000000E-01  7.20000000E-01  7.20000000E-01
  8.50000000E-01  8.50000000E-01  7.20000000E-01  8.50000000E-01  8.50000000E-01
  7.20000000E-01  8.50000000E-01  8.50000000E-01  7.20000000E-01  8.50000000E-01
  8.50000000E-01  7.20000000E-01  7.20000000E-01  8.50000000E-01  8.50000000E-01
  7.20000000E-01  7.20000000E-01  7.20000000E-01  8.50000000E-01  8.50000000E-01
  7.20000000E-01  8.50000000E-01  7.20000000E-01  8.50000000E-01  7.20000000E-01
  8.50000000E-01  8.50000000E-01  7.20000000E-01  8.50000000E-01  8.50000000E-01
  7.20000000E-01  8.50000000E-01  8.50000000E-01  8.50000000E-01  8.50000000E-01
  8.50000000E-01  7.20000000E-01  7.20000000E-01  8.50000000E-01  8.50000000E-01
  8.50000000E-01  7.20000000E-01  8.50000000E-01  8.50000000E-01  8.50000000E-01
  8.50000000E-01  9.60000000E-01  7.20000000E-01  7.20000000E-01  7.20000000E-01
  7.20000000E-01  7.20000000E-01  9.60000000E-01  7.20000000E-01  7.20000000E-01
  8.50000000E-01  7.20000000E-01  7.20000000E-01  7.20000000E-01  7.20000000E-01
  7.20000000E-01  8.50000000E-01  7.20000000E-01  7.20000000E-01  8.50000000E-01
  8.50000000E-01  7.20000000E-01  8.50000000E-01  8.50000000E-01  7.20000000E-01
  8.50000000E-01  8.50000000E-01  7.20000000E-01  8.50000000E-01  8.50000000E-01
  7.20000000E-01  7.20000000E-01  8.50000000E-01  8.50000000E-01  7.20000000E-01
  7.20000000E-01  7.20000000E-01  8.50000000E-01  8.50000000E-01  7.20000000E-01
  8.50000000E-01  7.20000000E-01  8.50000000E-01  7.20000000E-01  8.50000000E-01
  8.50000000E-01  7.20000000E-01  8.50000000E-01  8.50000000E-01  7.20000000E-01
  8.50000000E-01  8.50000000E-01  8.50000000E-01  8.50000000E-01  8.50000000E-01
  7.20000000E-01  7.20000000E-01  8.50000000E-01  8.50000000E-01  8.50000000E-01
  7.20000000E-01  8.50000000E-01  8.50000000E-01  8.50000000E-01  8.50000000E-01
  9.60000000E-01  7.20000000E-01  7.20000000E-01  7.20000000E-01  7.20000000E-01
  7.20000000E-01  9.60000000E-01  7.20000000E-01  7.20000000E-01  8.50000000E-01
  7.20000000E-01  7.20000000E-01  7.20000000E-01  7.20000000E-01  7.20000000E-01
  8.50000000E-01  7.20000000E-01  7.20000000E-01  8.50000000E-01  8.50000000E-01
  7.20000000E-01  8.50000000E-01  8.50000000E-01  7.20000000E-01  8.50000000E-01
  8.50000000E-01  7.20000000E-01  8.50000000E-01  8.50000000E-01  7.20000000E-01
  7.20000000E-01  8.50000000E-01  8.50000000E-01  7.20000000E-01  7.20000000E-01
  7.20000000E-01  8.50000000E-01  8.50000000E-01  7.20000000E-01  8.50000000E-01
  7.20000000E-01  8.50000000E-01  7.20000000E-01  8.50000000E-01  8.50000000E-01
  7.20000000E-01  8.50000000E-01  8.50000000E-01  7.20000000E-01  8.50000000E-01
  8.50000000E-01  8.50000000E-01  8.50000000E-01  8.50000000E-01  7.20000000E-01
  7.20000000E-01  8.50000000E-01  8.50000000E-01  8.50000000E-01  7.20000000E-01
  8.50000000E-01  8.50000000E-01  8.50000000E-01  8.50000000E-01  9.60000000E-01
  7.20000000E-01  7.20000000E-01  7.20000000E-01  7.20000000E-01  7.20000000E-01
  9.60000000E-01  7.20000000E-01  7.20000000E-01  8.50000000E-01  7.20000000E-01
  7.20000000E-01  7.20000000E-01  7.20000000E-01  7.20000000E-01  8.50000000E-01
  7.20000000E-01  7.20000000E-01  8.50000000E-01  8.50000000E-01  7.20000000E-01
  8.50000000E-01  8.50000000E-01  7.20000000E-01  8.50000000E-01  8.50000000E-01
  7.20000000E-01  8.50000000E-01  8.50000000E-01  7.20000000E-01  7.20000000E-01
  8.50000000E-01  8.50000000E-01  7.20000000E-01  7.20000000E-01  7.20000000E-01
  8.50000000E-01  8.50000000E-01  7.20000000E-01  8.50000000E-01  7.20000000E-01
  8.50000000E-01  7.20000000E-01  8.50000000E-01  8.50000000E-01  7.20000000E-01
  8.50000000E-01  8.50000000E-01  7.20000000E-01  8.50000000E-01  8.50000000E-01
  8.50000000E-01  8.50000000E-01  8.50000000E-01  7.20000000E-01  7.20000000E-01
  8.50000000E-01  8.50000000E-01  8.50000000E-01  7.20000000E-01  8.50000000E-01
  8.50000000E-01  8.50000000E-01  8.50000000E-01  9.60000000E-01  7.20000000E-01
  7.20000000E-01  7.20000000E-01  7.20000000E-01  7.20000000E-01  9.60000000E-01
  7.20000000E-01  7.20000000E-01  8.50000000E-01  7.20000000E-01  7.20000000E-01
  7.20000000E-01  7.20000000E-01  7.20000000E-01  8.50000000E-01  7.20000000E-01
  7.20000000E-01  8.50000000E-01  8.50000000E-01  7.20000000E-01  8.50000000E-01
  8.50000000E-01  7.20000000E-01  8.50000000E-01  8.50000000E-01  7.20000000E-01
  8.50000000E-01  8.50000000E-01  7.20000000E-01  7.20000000E-01  8.50000000E-01
  8.50000000E-01  7.20000000E-01  7.20000000E-01  7.20000000E-01  8.50000000E-01
  8.50000000E-01  7.20000000E-01  8.50000000E-01  7.20000000E-01  8.50000000E-01
  7.20000000E-01  8.50000000E-01  8.50000000E-01  7.20000000E-01  8.50000000E-01
  8.50000000E-01  7.20000000E-01  8.50000000E-01  8.50000000E-01  8.50000000E-01
  8.50000000E-01  8.50000000E-01  7.20000000E-01  7.20000000E-01  8.50000000E-01
  8.50000000E-01  8.50000000E-01  7.20000000E-01  8.50000000E-01  8.50000000E-01
  8.50000000E-01  8.50000000E-01  9.60000000E-01  7.20000000E-01  7.20000000E-01
  7.20000000E-01  7.20000000E-01  7.20000000E-01  9.60000000E-01  7.20000000E-01
  7.20000000E-01  8.50000000E-01  7.20000000E-01  7.20000000E-01  7.20000000E-01
  7.20000000E-01  7.20000000E-01  8.50000000E-01  7.20000000E-01  7.20000000E-01
  8.50000000E-01  8.50000000E-01  7.20000000E-01  8.50000000E-01  8.50000000E-01
  7.20000000E-01  8.50000000E-01  8.50000000E-01  7.20000000E-01  8.50000000E-01
  8.50000000E-01  7.20000000E-01  7.20000000E-01  8.50000000E-01  8.50000000E-01
  7.20000000E-01  7.20000000E-01  7.20000000E-01  8.50000000E-01  8.50000000E-01
  7.20000000E-01  8.50000000E-01  7.20000000E-01  8.50000000E-01  7.20000000E-01
  8.50000000E-01  8.50000000E-01  7.20000000E-01  8.50000000E-01  8.50000000E-01
  7.20000000E-01  8.50000000E-01  8.50000000E-01  8.50000000E-01  8.50000000E-01
  8.50000000E-01  7.20000000E-01  7.20000000E-01  8.50000000E-01  8.50000000E-01
  8.50000000E-01  7.20000000E-01  8.50000000E-01  8.50000000E-01  8.50000000E-01
  8.50000000E-01  9.60000000E-01  7.20000000E-01  7.20000000E-01  7.20000000E-01
  7.20000000E-01  7.20000000E-01  9.60000000E-01  7.20000000E-01  7.20000000E-01
  8.50000000E-01  7.20000000E-01  7.20000000E-01  7.20000000E-01  7.20000000E-01
  7.20000000E-01  8.50000000E-01  7.20000000E-01  7.20000000E-01  8.50000000E-01
  8.50000000E-01  7.20000000E-01  8.50000000E-01  8.50000000E-01  7.20000000E-01
  8.50000000E-01  8.50000000E-01  7.20000000E-01  8.50000000E-01  8.50000000E-01
  7.20000000E-01  7.20000000E-01  8.50000000E-01  8.50000000E-01  7.20000000E-01
  7.20000000E-01  7.20000000E-01  8.50000000E-01  8.50000000E-01  7.20000000E-01
  8.50000000E-01  7.20000000E-01  8.50000000E-01  7.20000000E-01  8.50000000E-01
  8.50000000E-01  7.20000000E-01  8.50000000E-01  8.50000000E-01  7.20000000E-01
  8.50000000E-01  8.50000000E-01  8.50000000E-01  8.50000000E-01  8.50000000E-01
  7.20000000E-01  7.20000000E-01  8.50000000E-01  8.50000000E-01  8.50000000E-01
  7.20000000E-01  8.50000000E-01  8.50000000E-01  8.50000000E-01  8.50000000E-01
  9.60000000E-01  7.20000000E-01  7.20000000E-01  7.20000000E-01  7.20000000E-01
  7.20000000E-01  9.60000000E-01  7.20000000E-01  7.20000000E-01  8.50000000E-01
  7.20000000E-01  7.20000000E-01  7.20000000E-01  7.20000000E-01  7.20000000E-01
  8.50000000E-01  7.20000000E-01  7.20000000E-01  8.50000000E-01  8.50000000E-01
  7.20000000E-01  8.50000000E-01  8.50000000E-01  7.20000000E-01  8.50000000E-01
  8.50000000E-01  7.20000000E-01  8.50000000E-01  8.50000000E-01  7.20000000E-01
  7.20000000E-01  8.50000000E-01  8.50000000E-01  7.20000000E-01  7.20000000E-01
  7.20000000E-01  8.50000000E-01  8.50000000E-01  7.20000000E-01  8.50000000E-01
  7.20000000E-01  8.50000000E-01  7.20000000E-01  8.50000000E-01  8.50000000E-01
  7.20000000E-01  8.50000000E-01  8.50000000E-01  7.20000000E-01  8.50000000E-01
  8.50000000E-01  8.50000000E-01  8.50000000E-01  8.50000000E-01  7.20000000E-01
  7.20000000E-01  8.50000000E-01  8.50000000E-01  8.50000000E-01  7.20000000E-01
  8.50000000E-01  8.50000000E-01  8.50000000E-01  8.50000000E-01  9.60000000E-01
  7.20000000E-01  7.20000000E-01  7.20000000E-01  7.20000000E-01  7.20000000E-01
  9.60000000E-01  7.20000000E-01  7.20000000E-01  8.50000000E-01  7.20000000E-01
  7.20000000E-01  7.20000000E-01  7.20000000E-01  7.20000000E-01  8.50000000E-01
  7.20000000E-01  7.20000000E-01  8.50000000E-01  8.50000000E-01  7.20000000E-01
  8.50000000E-01  8.50000000E-01  7.20000000E-01  8.50000000E-01  8.50000000E-01
  7.20000000E-01  8.50000000E-01  8.50000000E-01  7.20000000E-01  7.20000000E-01
  8.50000000E-01  8.50000000E-01  7.20000000E-01  7.20000000E-01  7.20000000E-01
  8.50000000E-01  8.50000000E-01  7.20000000E-01  8.50000000E-01  7.20000000E-01
  8.50000000E-01  7.20000000E-01  8.50000000E-01  8.50000000E-01  7.20000000E-01
  8.50000000E-01  8.50000000E-01  7.20000000E-01  8.50000000E-01  8.50000000E-01
  8.50000000E-01  8.50000000E-01  8.50000000E-01  7.20000000E-01  7.20000000E-01
  8.50000000E-01  8.50000000E-01  8.50000000E-01  7.20000000E-01  8.50000000E-01
  8.50000000E-01  8.50000000E-01  8.50000000E-01  9.60000000E-01  7.20000000E-01
  7.20000000E-01  7.20000000E-01  7.20000000E-01  7.20000000E-01  9.60000000E-01
  7.20000000E-01  7.20000000E-01  8.50000000E-01  7.20000000E-01  7.20000000E-01
  7.20000000E-01  7.20000000E-01  7.20000000E-01  8.50000000E-01  7.20000000E-01
  7.20000000E-01  8.50000000E-01  8.50000000E-01  7.20000000E-01  8.50000000E-01
  8.50000000E-01  7.20000000E-01  8.50000000E-01  8.50000000E-01  7.20000000E-01
  8.50000000E-01  8.50000000E-01  7.20000000E-01  7.20000000E-01  8.50000000E-01
  8.50000000E-01  7.20000000E-01  7.20000000E-01  7.20000000E-01  8.50000000E-01
  8.50000000E-01  7.20000000E-01  8.50000000E-01  7.20000000E-01  8.50000000E-01
  7.20000000E-01  8.50000000E-01  8.50000000E-01  7.20000000E-01  8.50000000E-01
  8.50000000E-01  7.20000000E-01  8.50000000E-01  8.50000000E-01  8.50000000E-01
  8.50000000E-01  8.50000000E-01  7.20000000E-01  7.20000000E-01  8.50000000E-01
  8.50000000E-01  8.50000000E-01  7.20000000E-01  8.50000000E-01  8.50000000E-01
  8.50000000E-01  8.50000000E-01  9.60000000E-01  7.20000000E-01  7.20000000E-01
  7.20000000E-01  7.20000000E-01  7.20000000E-01  9.60000000E-01  7.20000000E-01
  7.20000000E-01  8.50000000E-01  7.20000000E-01  7.20000000E-01  7.20000000E-01
  7.20000000E-01  7.20000000E-01  8.50000000E-01  7.20000000E-01  7.20000000E-01
  8.50000000E-01  8.50000000E-01  7.20000000E-01  8.50000000E-01  8.50000000E-01
  7.20000000E-01  8.50000000E-01  8.50000000E-01  7.20000000E-01  8.50000000E-01
  8.50000000E-01  7.20000000E-01  7.20000000E-01  8.50000000E-01  8.50000000E-01
  7.20000000E-01  7.20000000E-01  7.20000000E-01  8.50000000E-01  8.50000000E-01
  7.20000000E-01  8.50000000E-01  7.20000000E-01  8.50000000E-01  7.20000000E-01
  8.50000000E-01  8.50000000E-01  7.20000000E-01  8.50000000E-01  8.50000000E-01
  7.20000000E-01  8.50000000E-01  8.50000000E-01  8.50000000E-01  8.50000000E-01
  8.50000000E-01  7.20000000E-01  7.20000000E-01  8.50000000E-01  8.50000000E-01
  8.50000000E-01  7.20000000E-01  8.50000000E-01  8.50000000E-01  8.50000000E-01
  8.50000000E-01  9.60000000E-01  7.20000000E-01  7.20000000E-01  7.20000000E-01
  7.20000000E-01  7.20000000E-01  9.60000000E-01  7.20000000E-01  7.20000000E-01
  8.50000000E-01  7.20000000E-01  7.20000000E-01  7.20000000E-01  7.20000000E-01
  7.20000000E-01  8.50000000E-01  7.20000000E-01  7.20000000E-01  8.50000000E-01
  8.50000000E-01  7.20000000E-01  8.50000000E-01  8.50000000E-01  7.20000000E-01
  8.50000000E-01  8.50000000E-01  7.20000000E-01  8.50000000E-01  8.50000000E-01
  7.20000000E-01  7.20000000E-01  8.50000000E-01  8.50000000E-01  7.20000000E-01
  7.20000000E-01  7.20000000E-01  8.50000000E-01  8.50000000E-01  7.20000000E-01
  8.50000000E-01  7.20000000E-01  8.50000000E-01  7.20000000E-01  8.50000000E-01
  8.50000000E-01  7.20000000E-01  8.50000000E-01  8.50000000E-01  7.20000000E-01
  8.50000000E-01  8.50000000E-01  8.50000000E-01  8.50000000E-01  8.50000000E-01
  7.20000000E-01  7.20000000E-01  8.50000000E-01  8.50000000E-01  8.50000000E-01
  7.20000000E-01  8.50000000E-01  8.50000000E-01  8.50000000E-01  8.50000000E-01
  9.60000000E-01  7.20000000E-01  7.20000000E-01  7.20000000E-01  7.20000000E-01
  7.20000000E-01  9.60000000E-01  7.20000000E-01  7.20000000E-01  8.50000000E-01
  7.20000000E-01  7.20000000E-01  7.20000000E-01  7.20000000E-01  7.20000000E-01
  8.50000000E-01  7.20000000E-01  7.20000000E-01  8.50000000E-01  8.50000000E-01
  7.20000000E-01  8.50000000E-01  8.50000000E-01  7.20000000E-01  8.50000000E-01
  8.50000000E-01  7.20000000E-01  8.50000000E-01  8.50000000E-01  7.20000000E-01
  7.20000000E-01  8.50000000E-01  8.50000000E-01  7.20000000E-01  7.20000000E-01
  7.20000000E-01  8.50000000E-01  8.50000000E-01  7.20000000E-01  8.50000000E-01
  7.20000000E-01  8.50000000E-01  7.20000000E-01  8.50000000E-01  8.50000000E-01
  7.20000000E-01  8.50000000E-01  8.50000000E-01  7.20000000E-01  8.50000000E-01
  8.50000000E-01  8.50000000E-01  8.50000000E-01  8.50000000E-01  7.20000000E-01
  7.20000000E-01  8.50000000E-01  8.50000000E-01  8.50000000E-01  7.20000000E-01
  8.50000000E-01  8.50000000E-01  8.50000000E-01  8.50000000E-01  9.60000000E-01
  7.20000000E-01  7.20000000E-01  7.20000000E-01  7.20000000E-01  7.20000000E-01
  9.60000000E-01  7.20000000E-01  7.20000000E-01  8.50000000E-01  7.20000000E-01
  7.20000000E-01  7.20000000E-01  7.20000000E-01  7.20000000E-01  8.50000000E-01
  7.20000000E-01  7.20000000E-01  8.50000000E-01  8.50000000E-01  7.20000000E-01
  8.50000000E-01  8.50000000E-01  7.20000000E-01  8.50000000E-01  8.50000000E-01
  7.20000000E-01  8.50000000E-01  8.50000000E-01  7.20000000E-01  7.20000000E-01
  8.50000000E-01  8.50000000E-01  7.20000000E-01  7.20000000E-01  7.20000000E-01
  8.50000000E-01  8.50000000E-01  7.20000000E-01  8.50000000E-01  7.20000000E-01
  8.50000000E-01  7.20000000E-01  8.50000000E-01  8.50000000E-01  7.20000000E-01
  8.50000000E-01  8.50000000E-01  7.20000000E-01  8.50000000E-01  8.50000000E-01
  8.50000000E-01  8.50000000E-01  8.50000000E-01  7.20000000E-01  7.20000000E-01
  8.50000000E-01  8.50000000E-01  8.50000000E-01  7.20000000E-01  8.50000000E-01
  8.50000000E-01  8.50000000E-01  8.50000000E-01  9.60000000E-01  7.20000000E-01
  7.20000000E-01  7.20000000E-01  7.20000000E-01  7.20000000E-01  9.60000000E-01
  7.20000000E-01  7.20000000E-01  8.50000000E-01  7.20000000E-01  7.20000000E-01
  7.20000000E-01  7.20000000E-01  7.20000000E-01  8.50000000E-01  7.20000000E-01
  7.20000000E-01  8.50000000E-01  8.50000000E-01  7.20000000E-01  8.50000000E-01
  8.50000000E-01  7.20000000E-01  8.50000000E-01  8.50000000E-01  7.20000000E-01
  8.50000000E-01  8.50000000E-01  7.20000000E-01  7.20000000E-01  8.50000000E-01
  8.50000000E-01  7.20000000E-01  7.20000000E-01  7.20000000E-01  8.50000000E-01
  8.50000000E-01  7.20000000E-01  8.50000000E-01  7.20000000E-01  8.50000000E-01
  7.20000000E-01  8.50000000E-01  8.50000000E-01  7.20000000E-01  8.50000000E-01
  8.50000000E-01  7.20000000E-01  8.50000000E-01  8.50000000E-01  8.50000000E-01
  8.50000000E-01  8.50000000E-01  7.20000000E-01  7.20000000E-01  8.50000000E-01
  8.50000000E-01  8.50000000E-01  7.20000000E-01  8.50000000E-01  8.50000000E-01
  8.50000000E-01  8.50000000E-01  9.60000000E-01  7.20000000E-01  7.20000000E-01
  7.20000000E-01  7.20000000E-01  7.20000000E-01  9.60000000E-01  7.20000000E-01
  7.20000000E-01  8.50000000E-01  7.20000000E-01  7.20000000E-01  7.20000000E-01
  7.20000000E-01  7.20000000E-01  8.50000000E-01  7.20000000E-01  7.20000000E-01
  8.50000000E-01  8.50000000E-01  7.20000000E-01  8.50000000E-01  8.50000000E-01
  7.20000000E-01  8.50000000E-01  8.50000000E-01  7.20000000E-01  8.50000000E-01
  8.50000000E-01  7.20000000E-01  7.20000000E-01  8.50000000E-01  8.50000000E-01
  7.20000000E-01  7.20000000E-01  7.20000000E-01  8.50000000E-01  8.50000000E-01
  7.20000000E-01  8.50000000E-01  7.20000000E-01  8.50000000E-01  7.20000000E-01
  8.50000000E-01  8.50000000E-01  7.20000000E-01  8.50000000E-01  8.50000000E-01
  7.20000000E-01  8.50000000E-01  8.50000000E-01  8.50000000E-01  8.50000000E-01
  8.50000000E-01  7.20000000E-01  7.20000000E-01  8.50000000E-01  8.50000000E-01
  8.50000000E-01  7.20000000E-01  8.50000000E-01  8.50000000E-01  8.50000000E-01
  8.50000000E-01  9.60000000E-01  7.20000000E-01  7.20000000E-01  7.20000000E-01
  7.20000000E-01  7.20000000E-01  9.60000000E-01  7.20000000E-01  7.20000000E-01
  8.50000000E-01  7.20000000E-01  7.20000000E-01  7.20000000E-01  7.20000000E-01
  7.20000000E-01  8.50000000E-01  7.20000000E-01  7.20000000E-01  8.50000000E-01
  8.50000000E-01  7.20000000E-01  8.50000000E-01  8.50000000E-01  7.20000000E-01
  8.50000000E-01  8.50000000E-01  7.20000000E-01  8.50000000E-01  8.50000000E-01
  7.20000000E-01  7.20000000E-01  8.50000000E-01  8.50000000E-01  7.20000000E-01
  7.20000000E-01  7.20000000E-01  8.50000000E-01  8.50000000E-01  7.20000000E-01
  8.50000000E-01  7.20000000E-01  8.50000000E-01  7.20000000E-01  8.50000000E-01
  8.50000000E-01  7.20000000E-01  8.50000000E-01  8.50000000E-01  7.20000000E-01
  8.50000000E-01  8.50000000E-01  8.50000000E-01  8.50000000E-01  8.50000000E-01
  7.20000000E-01  7.20000000E-01  8.50000000E-01  8.50000000E-01  8.50000000E-01
  7.20000000E-01  8.50000000E-01  8.50000000E-01  8.50000000E-01  8.50000000E-01
  9.60000000E-01  7.20000000E-01  7.20000000E-01  7.20000000E-01  7.20000000E-01
  7.20000000E-01  9.60000000E-01  7.20000000E-01  7.20000000E-01  8.50000000E-01
  7.20000000E-01  7.20000000E-01  7.20000000E-01  7.20000000E-01  7.20000000E-01
  8.50000000E-01  7.20000000E-01  7.20000000E-01  8.50000000E-01  8.50000000E-01
  7.20000000E-01  8.50000000E-01  8.50000000E-01  7.20000000E-01  8.50000000E-01
  8.50000000E-01  7.20000000E-01  8.50000000E-01  8.50000000E-01  7.20000000E-01
  7.20000000E-01  8.50000000E-01  8.50000000E-01  7.20000000E-01  7.20000000E-01
  7.20000000E-01  8.50000000E-01  8.50000000E-01  7.20000000E-01  8.50000000E-01
  7.20000000E-01  8.50000000E-01  7.20000000E-01  8.50000000E-01  8.50000000E-01
  7.20000000E-01  8.50000000E-01  8.50000000E-01  7.20000000E-01  8.50000000E-01
  8.50000000E-01  8.50000000E-01  8.50000000E-01  8.50000000E-01  7.20000000E-01
  7.20000000E-01  8.50000000E-01  8.50000000E-01  8.50000000E-01  7.20000000E-01
  8.50000000E-01  8.50000000E-01  8.50000000E-01  8.50000000E-01  9.60000000E-01
  7.20000000E-01  7.20000000E-01  7.20000000E-01  7.20000000E-01  7.20000000E-01
  9.60000000E-01  7.20000000E-01  7.20000000E-01  8.50000000E-01  7.20000000E-01
  7.20000000E-01  7.20000000E-01  7.20000000E-01  7.20000000E-01  8.50000000E-01
  7.20000000E-01  7.20000000E-01  8.50000000E-01  8.50000000E-01  7.20000000E-01
  8.50000000E-01  8.50000000E-01  7.20000000E-01  8.50000000E-01  8.50000000E-01
  7.20000000E-01  8.50000000E-01  8.50000000E-01  7.20000000E-01  7.20000000E-01
  8.50000000E-01  8.50000000E-01  7.20000000E-01  7.20000000E-01  7.20000000E-01
  8.50000000E-01  8.50000000E-01  7.20000000E-01  8.50000000E-01  7.20000000E-01
  8.50000000E-01  7.20000000E-01  8.50000000E-01  8.50000000E-01  7.20000000E-01
  8.50000000E-01  8.50000000E-01  7.20000000E-01  8.50000000E-01  8.50000000E-01
  8.50000000E-01  8.50000000E-01  8.50000000E-01  7.20000000E-01  7.20000000E-01
  8.50000000E-01  8.50000000E-01  8.50000000E-01  7.20000000E-01  8.50000000E-01
  8.50000000E-01  8.50000000E-01  8.50000000E-01  9.60000000E-01  7.20000000E-01
  7.20000000E-01  7.20000000E-01  7.20000000E-01  7.20000000E-01  9.60000000E-01
  7.20000000E-01  7.20000000E-01  8.50000000E-01  7.20000000E-01  7.20000000E-01
  7.20000000E-01  7.20000000E-01  7.20000000E-01  8.50000000E-01  7.20000000E-01
  7.20000000E-01  8.50000000E-01  8.50000000E-01  7.20000000E-01  8.50000000E-01
  8.50000000E-01  7.20000000E-01  8.50000000E-01  8.50000000E-01  7.20000000E-01
  8.50000000E-01  8.50000000E-01  7.20000000E-01  7.20000000E-01  8.50000000E-01
  8.50000000E-01  7.20000000E-01  7.20000000E-01  7.20000000E-01  8.50000000E-01
  8.50000000E-01  7.20000000E-01  8.50000000E-01  7.20000000E-01  8.50000000E-01
  7.20000000E-01  8.50000000E-01  8.50000000E-01  7.20000000E-01  8.50000000E-01
  8.50000000E-01  7.20000000E-01  8.50000000E-01  8.50000000E-01  8.50000000E-01
  8.50000000E-01  8.50000000E-01  7.20000000E-01  7.20000000E-01  8.50000000E-01
  8.50000000E-01  8.50000000E-01  7.20000000E-01  8.50000000E-01  8.50000000E-01
  8.50000000E-01  8.50000000E-01  9.60000000E-01  7.20000000E-01  7.20000000E-01
  7.20000000E-01  7.20000000E-01  7.20000000E-01  9.60000000E-01  7.20000000E-01
  7.20000000E-01  8.50000000E-01  7.20000000E-01  7.20000000E-01  7.20000000E-01
  7.20000000E-01  7.20000000E-01  8.50000000E-01  7.20000000E-01  7.20000000E-01
  8.50000000E-01  8.50000000E-01  7.20000000E-01  8.50000000E-01  8.50000000E-01
  7.20000000E-01  8.50000000E-01  8.50000000E-01  7.20000000E-01  8.50000000E-01
  8.50000000E-01  7.20000000E-01  7.20000000E-01  8.50000000E-01  8.50000000E-01
  7.20000000E-01  7.20000000E-01  7.20000000E-01  8.50000000E-01  8.50000000E-01
  7.20000000E-01  8.50000000E-01  7.20000000E-01  8.50000000E-01  7.20000000E-01
  8.50000000E-01  8.50000000E-01  7.20000000E-01  8.50000000E-01  8.50000000E-01
  7.20000000E-01  8.50000000E-01  8.50000000E-01  8.50000000E-01  8.50000000E-01
  8.50000000E-01  7.20000000E-01  7.20000000E-01  8.50000000E-01  8.50000000E-01
  8.50000000E-01  7.20000000E-01  8.50000000E-01  8.50000000E-01  8.50000000E-01
  8.50000000E-01  9.60000000E-01  7.20000000E-01  7.20000000E-01  7.20000000E-01
  7.20000000E-01  7.20000000E-01  9.60000000E-01  7.20000000E-01  7.20000000E-01
  8.50000000E-01  7.20000000E-01  7.20000000E-01  7.20000000E-01  7.20000000E-01
  7.20000000E-01  8.50000000E-01  7.20000000E-01  7.20000000E-01  8.50000000E-01
  8.50000000E-01  7.20000000E-01  8.50000000E-01  8.50000000E-01  7.20000000E-01
  8.50000000E-01  8.50000000E-01  7.20000000E-01  8.50000000E-01  8.50000000E-01
  7.20000000E-01  7.20000000E-01  8.50000000E-01  8.50000000E-01  7.20000000E-01
  7.20000000E-01  7.20000000E-01  8.50000000E-01  8.50000000E-01  7.20000000E-01
  8.50000000E-01  7.20000000E-01  8.50000000E-01  7.20000000E-01  8.50000000E-01
  8.50000000E-01  7.20000000E-01  8.50000000E-01  8.50000000E-01  7.20000000E-01
  8.50000000E-01  8.50000000E-01  8.50000000E-01  8.50000000E-01  8.50000000E-01
  7.20000000E-01  7.20000000E-01  8.50000000E-01  8.50000000E-01  8.50000000E-01
  7.20000000E-01  8.50000000E-01  8.50000000E-01  8.50000000E-01  8.50000000E-01
  9.60000000E-01  7.20000000E-01  7.20000000E-01  7.20000000E-01  7.20000000E-01
  7.20000000E-01  9.60000000E-01  7.20000000E-01  7.20000000E-01  8.50000000E-01
  7.20000000E-01  7.20000000E-01  7.20000000E-01  7.20000000E-01  7.20000000E-01
  8.50000000E-01  7.20000000E-01  7.20000000E-01  8.50000000E-01  8.50000000E-01
  7.20000000E-01  8.50000000E-01  8.50000000E-01  7.20000000E-01  8.50000000E-01
  8.50000000E-01  7.20000000E-01  8.50000000E-01  8.50000000E-01  7.20000000E-01
  7.20000000E-01  8.50000000E-01  8.50000000E-01  7.20000000E-01  7.20000000E-01
  7.20000000E-01  8.50000000E-01  8.50000000E-01  7.20000000E-01  8.50000000E-01
  7.20000000E-01  8.50000000E-01  7.20000000E-01  8.50000000E-01  8.50000000E-01
  7.20000000E-01  8.50000000E-01  8.50000000E-01  7.20000000E-01  8.50000000E-01
  8.50000000E-01  8.50000000E-01  8.50000000E-01  8.50000000E-01  7.20000000E-01
  7.20000000E-01  8.50000000E-01  8.50000000E-01  8.50000000E-01  7.20000000E-01
  8.50000000E-01  8.50000000E-01  8.50000000E-01  8.50000000E-01  9.60000000E-01
  7.20000000E-01  7.20000000E-01  7.20000000E-01  7.20000000E-01  7.20000000E-01
  9.60000000E-01  7.20000000E-01  7.20000000E-01  8.50000000E-01  7.20000000E-01
  7.20000000E-01  7.20000000E-01  7.20000000E-01  7.20000000E-01  8.50000000E-01
  7.20000000E-01  7.20000000E-01  8.50000000E-01  8.50000000E-01  7.20000000E-01
  8.50000000E-01  8.50000000E-01  7.20000000E-01  8.50000000E-01  8.50000000E-01
  7.20000000E-01  8.50000000E-01  8.50000000E-01  7.20000000E-01  7.20000000E-01
  8.50000000E-01  8.50000000E-01  7.20000000E-01  7.20000000E-01  7.20000000E-01
  8.50000000E-01  8.50000000E-01  7.20000000E-01  8.50000000E-01  7.20000000E-01
  8.50000000E-01  7.20000000E-01  8.50000000E-01  8.50000000E-01  7.20000000E-01
  8.50000000E-01  8.50000000E-01  7.20000000E-01  8.50000000E-01  8.50000000E-01
  8.50000000E-01  8.50000000E-01  8.50000000E-01  7.20000000E-01  7.20000000E-01
  8.50000000E-01  8.50000000E-01  8.50000000E-01  7.20000000E-01  8.50000000E-01
  8.50000000E-01  8.50000000E-01  8.50000000E-01  9.60000000E-01  7.20000000E-01
  7.20000000E-01  7.20000000E-01  7.20000000E-01  7.20000000E-01  9.60000000E-01
  7.20000000E-01  7.20000000E-01  8.50000000E-01  7.20000000E-01  7.20000000E-01
  7.20000000E-01  7.20000000E-01  7.20000000E-01  8.50000000E-01  7.20000000E-01
  7.20000000E-01  8.50000000E-01  8.50000000E-01  7.20000000E-01  8.50000000E-01
  8.50000000E-01  7.20000000E-01  8.50000000E-01  8.50000000E-01  7.20000000E-01
  8.50000000E-01  8.50000000E-01  7.20000000E-01  7.20000000E-01  8.50000000E-01
  8.50000000E-01  7.20000000E-01  7.20000000E-01  7.20000000E-01  8.50000000E-01
  8.50000000E-01  7.20000000E-01  8.50000000E-01  7.20000000E-01  8.50000000E-01
  7.20000000E-01  8.50000000E-01  8.50000000E-01  7.20000000E-01  8.50000000E-01
  8.50000000E-01  7.20000000E-01  8.50000000E-01  8.50000000E-01  8.50000000E-01
  8.50000000E-01  8.50000000E-01  7.20000000E-01  7.20000000E-01  8.50000000E-01
  8.50000000E-01  8.50000000E-01  7.20000000E-01  8.50000000E-01  8.50000000E-01
  8.50000000E-01  8.50000000E-01  9.60000000E-01  7.20000000E-01  7.20000000E-01
  7.20000000E-01  7.20000000E-01  7.20000000E-01  9.60000000E-01  7.20000000E-01
  7.20000000E-01  8.50000000E-01  7.20000000E-01  7.20000000E-01  7.20000000E-01
  7.20000000E-01  7.20000000E-01  8.50000000E-01  7.20000000E-01  7.20000000E-01
  8.50000000E-01  8.50000000E-01  7.20000000E-01  8.50000000E-01  8.50000000E-01
  7.20000000E-01  8.50000000E-01  8.50000000E-01  7.20000000E-01  8.50000000E-01
  8.50000000E-01  7.20000000E-01  7.20000000E-01  8.50000000E-01  8.50000000E-01
  7.20000000E-01  7.20000000E-01  7.20000000E-01  8.50000000E-01  8.50000000E-01
  7.20000000E-01  8.50000000E-01  7.20000000E-01  8.50000000E-01  7.20000000E-01
  8.50000000E-01  8.50000000E-01  7.20000000E-01  8.50000000E-01  8.50000000E-01
  7.20000000E-01  8.50000000E-01  8.50000000E-01  8.50000000E-01  8.50000000E-01
  8.50000000E-01  7.20000000E-01  7.20000000E-01  8.50000000E-01  8.50000000E-01
  8.50000000E-01  7.20000000E-01  8.50000000E-01  8.50000000E-01  8.50000000E-01
  8.50000000E-01  9.60000000E-01  7.20000000E-01  7.20000000E-01  7.20000000E-01
  7.20000000E-01  7.20000000E-01  9.60000000E-01  7.20000000E-01  7.20000000E-01
  8.50000000E-01  7.20000000E-01  7.20000000E-01  7.20000000E-01  7.20000000E-01
  7.20000000E-01  8.50000000E-01  7.20000000E-01  7.20000000E-01  8.50000000E-01
  8.50000000E-01  7.20000000E-01  8.50000000E-01  8.50000000E-01  7.20000000E-01
  8.50000000E-01  8.50000000E-01  7.20000000E-01  8.50000000E-01  8.50000000E-01
  7.20000000E-01  7.20000000E-01  8.50000000E-01  8.50000000E-01  7.20000000E-01
  7.20000000E-01  7.20000000E-01  8.50000000E-01  8.50000000E-01  7.20000000E-01
  8.50000000E-01  7.20000000E-01  8.50000000E-01  7.20000000E-01  8.50000000E-01
  8.50000000E-01  7.20000000E-01  8.50000000E-01  8.50000000E-01  7.20000000E-01
  8.50000000E-01  8.50000000E-01  8.50000000E-01  8.50000000E-01  8.50000000E-01
  7.20000000E-01  7.20000000E-01  8.50000000E-01  8.50000000E-01  8.50000000E-01
  7.20000000E-01  8.50000000E-01  8.50000000E-01  8.50000000E-01  8.50000000E-01
  9.60000000E-01  7.20000000E-01  7.20000000E-01  7.20000000E-01  7.20000000E-01
  7.20000000E-01  9.60000000E-01  7.20000000E-01  7.20000000E-01  8.50000000E-01
  7.20000000E-01  7.20000000E-01  7.20000000E-01  7.20000000E-01  7.20000000E-01
  8.50000000E-01  7.20000000E-01  7.20000000E-01  8.50000000E-01  8.50000000E-01
  7.20000000E-01  8.50000000E-01  8.50000000E-01  7.20000000E-01  8.50000000E-01
  8.50000000E-01  7.20000000E-01  8.50000000E-01  8.50000000E-01  7.20000000E-01
  7.20000000E-01  8.50000000E-01  8.50000000E-01  7.20000000E-01  7.20000000E-01
  7.20000000E-01  8.50000000E-01  8.50000000E-01  7.20000000E-01  8.50000000E-01
  7.20000000E-01  8.50000000E-01  7.20000000E-01  8.50000000E-01  8.50000000E-01
  7.20000000E-01  8.50000000E-01  8.50000000E-01  7.20000000E-01  8.50000000E-01
  8.50000000E-01  8.50000000E-01  8.50000000E-01  8.50000000E-01  7.20000000E-01
  7.20000000E-01  8.50000000E-01  8.50000000E-01  8.50000000E-01  7.20000000E-01
  8.50000000E-01  8.50000000E-01  8.50000000E-01  8.50000000E-01  9.60000000E-01
  7.20000000E-01  7.20000000E-01  7.20000000E-01  7.20000000E-01  7.20000000E-01
  9.60000000E-01  7.20000000E-01  7.20000000E-01  8.50000000E-01  7.20000000E-01
  7.20000000E-01  7.20000000E-01  7.20000000E-01  7.20000000E-01  8.50000000E-01
  7.20000000E-01  7.20000000E-01  8.50000000E-01  8.50000000E-01  7.20000000E-01
  8.50000000E-01  8.50000000E-01  7.20000000E-01  8.50000000E-01  8.50000000E-01
  7.20000000E-01  8.50000000E-01  8.50000000E-01  7.20000000E-01  7.20000000E-01
  8.50000000E-01  8.50000000E-01  7.20000000E-01  7.20000000E-01  7.20000000E-01
  8.50000000E-01  8.50000000E-01  7.20000000E-01  8.50000000E-01  7.20000000E-01
  8.50000000E-01  7.20000000E-01  8.50000000E-01  8.50000000E-01  7.20000000E-01
  8.50000000E-01  8.50000000E-01  7.20000000E-01  8.50000000E-01  8.50000000E-01
  8.50000000E-01  8.50000000E-01  8.50000000E-01  7.20000000E-01  7.20000000E-01
  8.50000000E-01  8.50000000E-01  8.50000000E-01  7.20000000E-01  8.50000000E-01
  8.50000000E-01  8.50000000E-01  8.50000000E-01  9.60000000E-01  7.20000000E-01
  7.20000000E-01  7.20000000E-01  7.20000000E-01  7.20000000E-01  9.60000000E-01
  7.20000000E-01  7.20000000E-01  8.50000000E-01  7.20000000E-01  7.20000000E-01
  7.20000000E-01  7.20000000E-01  7.20000000E-01  8.50000000E-01  7.20000000E-01
  7.20000000E-01  8.50000000E-01  8.50000000E-01  7.20000000E-01  8.50000000E-01
  8.50000000E-01  7.20000000E-01  8.50000000E-01  8.50000000E-01  7.20000000E-01
  8.50000000E-01  8.50000000E-01  7.20000000E-01  7.20000000E-01  8.50000000E-01
  8.50000000E-01  7.20000000E-01  7.20000000E-01  7.20000000E-01  8.50000000E-01
  8.50000000E-01  7.20000000E-01  8.50000000E-01  7.20000000E-01  8.50000000E-01
  7.20000000E-01  8.50000000E-01  8.50000000E-01  7.20000000E-01  8.50000000E-01
  8.50000000E-01  7.20000000E-01  8.50000000E-01  8.50000000E-01  8.50000000E-01
  8.50000000E-01  8.50000000E-01  7.20000000E-01  7.20000000E-01  8.50000000E-01
  8.50000000E-01  8.50000000E-01  7.20000000E-01  8.50000000E-01  8.50000000E-01
  8.50000000E-01  8.50000000E-01  9.60000000E-01  7.20000000E-01  7.20000000E-01
  7.20000000E-01  7.20000000E-01  7.20000000E-01  9.60000000E-01  7.20000000E-01
  7.20000000E-01  8.50000000E-01  7.20000000E-01  7.20000000E-01  7.20000000E-01
  7.20000000E-01  7.20000000E-01  8.50000000E-01  7.20000000E-01  7.20000000E-01
  8.50000000E-01  8.50000000E-01  7.20000000E-01  8.50000000E-01  8.50000000E-01
  7.20000000E-01  8.50000000E-01  8.50000000E-01  7.20000000E-01  8.50000000E-01
  8.50000000E-01  7.20000000E-01  7.20000000E-01  8.50000000E-01  8.50000000E-01
  7.20000000E-01  7.20000000E-01  7.20000000E-01  8.50000000E-01  8.50000000E-01
  7.20000000E-01  8.50000000E-01  7.20000000E-01  8.50000000E-01  7.20000000E-01
  8.50000000E-01  8.50000000E-01  7.20000000E-01  8.50000000E-01  8.50000000E-01
  7.20000000E-01  8.50000000E-01  8.50000000E-01  8.50000000E-01  8.50000000E-01
  8.50000000E-01  7.20000000E-01  7.20000000E-01  8.50000000E-01  8.50000000E-01
  8.50000000E-01  7.20000000E-01  8.50000000E-01  8.50000000E-01  8.50000000E-01
  8.50000000E-01  9.60000000E-01  7.20000000E-01  7.20000000E-01  7.20000000E-01
  7.20000000E-01  7.20000000E-01  9.60000000E-01  7.20000000E-01  7.20000000E-01
  8.50000000E-01  7.20000000E-01  7.20000000E-01  7.20000000E-01  7.20000000E-01
  7.20000000E-01  8.50000000E-01  7.20000000E-01  7.20000000E-01  8.50000000E-01
  8.50000000E-01  7.20000000E-01  8.50000000E-01  8.50000000E-01  7.20000000E-01
  8.50000000E-01  8.50000000E-01  7.20000000E-01  8.50000000E-01  8.50000000E-01
  7.20000000E-01  7.20000000E-01  8.50000000E-01  8.50000000E-01  7.20000000E-01
  7.20000000E-01  7.20000000E-01  8.50000000E-01  8.50000000E-01  7.20000000E-01
  8.50000000E-01  7.20000000E-01  8.50000000E-01  7.20000000E-01  8.50000000E-01
  8.50000000E-01  7.20000000E-01  8.50000000E-01  8.50000000E-01  7.20000000E-01
  8.50000000E-01  8.50000000E-01  8.50000000E-01  8.50000000E-01  8.50000000E-01
  7.20000000E-01  7.20000000E-01  8.50000000E-01  8.50000000E-01  8.50000000E-01
  7.20000000E-01  8.50000000E-01  8.50000000E-01  8.50000000E-01  8.50000000E-01
  9.60000000E-01  7.20000000E-01  7.20000000E-01  7.20000000E-01  7.20000000E-01
  7.20000000E-01  9.60000000E-01  7.20000000E-01  7.20000000E-01  8.50000000E-01
  7.20000000E-01  7.20000000E-01  7.20000000E-01  7.20000000E-01  7.20000000E-01
  8.50000000E-01  7.20000000E-01  7.20000000E-01  8.50000000E-01  8.50000000E-01
  7.20000000E-01  8.50000000E-01  8.50000000E-01  7.20000000E-01  8.50000000E-01
  8.50000000E-01  7.20000000E-01  8.50000000E-01  8.50000000E-01  7.20000000E-01
  7.20000000E-01  8.50000000E-01  8.50000000E-01  7.20000000E-01  7.20000000E-01
  7.20000000E-01  8.50000000E-01  8.50000000E-01  7.20000000E-01  8.50000000E-01
  7.20000000E-01  8.50000000E-01  7.20000000E-01  8.50000000E-01  8.50000000E-01
  7.20000000E-01  8.50000000E-01  8.50000000E-01  7.20000000E-01  8.50000000E-01
  8.50000000E-01  8.50000000E-01  8.50000000E-01  8.50000000E-01  7.20000000E-01
  7.20000000E-01  8.50000000E-01  8.50000000E-01  8.50000000E-01  7.20000000E-01
  8.50000000E-01  8.50000000E-01  8.50000000E-01  8.50000000E-01  9.60000000E-01
  7.20000000E-01  7.20000000E-01  7.20000000E-01  7.20000000E-01  7.20000000E-01
  9.60000000E-01  7.20000000E-01  7.20000000E-01  8.50000000E-01  7.20000000E-01
  7.20000000E-01  7.20000000E-01  7.20000000E-01  7.20000000E-01  8.50000000E-01
  7.20000000E-01  7.20000000E-01  8.50000000E-01  8.50000000E-01  7.20000000E-01
  8.50000000E-01  8.50000000E-01  7.20000000E-01  8.50000000E-01  8.50000000E-01
  7.20000000E-01  8.50000000E-01  8.50000000E-01  7.20000000E-01  7.20000000E-01
  8.50000000E-01  8.50000000E-01  7.20000000E-01  7.20000000E-01  7.20000000E-01
  8.50000000E-01  8.50000000E-01  7.20000000E-01  8.50000000E-01  7.20000000E-01
  8.50000000E-01  7.20000000E-01  8.50000000E-01  8.50000000E-01  7.20000000E-01
  8.50000000E-01  8.50000000E-01  7.20000000E-01  8.50000000E-01  8.50000000E-01
  8.50000000E-01  8.50000000E-01  8.50000000E-01  7.20000000E-01  7.20000000E-01
  8.50000000E-01  8.50000000E-01  8.50000000E-01  7.20000000E-01  8.50000000E-01
  8.50000000E-01  8.50000000E-01  8.50000000E-01  9.60000000E-01  7.20000000E-01
  7.20000000E-01  7.20000000E-01  7.20000000E-01  7.20000000E-01  9.60000000E-01
  7.20000000E-01  7.20000000E-01  8.50000000E-01  7.20000000E-01  7.20000000E-01
  7.20000000E-01  7.20000000E-01  7.20000000E-01  8.50000000E-01  7.20000000E-01
  7.20000000E-01  8.50000000E-01  8.50000000E-01  7.20000000E-01  8.50000000E-01
  8.50000000E-01  7.20000000E-01  8.50000000E-01  8.50000000E-01  7.20000000E-01
  8.50000000E-01  8.50000000E-01  7.20000000E-01  7.20000000E-01  8.50000000E-01
  8.50000000E-01  7.20000000E-01  7.20000000E-01  7.20000000E-01  8.50000000E-01
  8.50000000E-01  7.20000000E-01  8.50000000E-01  7.20000000E-01  8.50000000E-01
  7.20000000E-01  8.50000000E-01  8.50000000E-01  7.20000000E-01  8.50000000E-01
  8.50000000E-01  7.20000000E-01  8.50000000E-01  8.50000000E-01  8.50000000E-01
  8.50000000E-01  8.50000000E-01  7.20000000E-01  7.20000000E-01  8.50000000E-01
  8.50000000E-01  8.50000000E-01  7.20000000E-01  8.50000000E-01  8.50000000E-01
  8.50000000E-01  8.50000000E-01  9.60000000E-01  7.20000000E-01  7.20000000E-01
  7.20000000E-01  7.20000000E-01  7.20000000E-01  9.60000000E-01  7.20000000E-01
  7.20000000E-01  8.50000000E-01  7.20000000E-01  7.20000000E-01  7.20000000E-01
  7.20000000E-01  7.20000000E-01  8.50000000E-01  7.20000000E-01  7.20000000E-01
  8.50000000E-01  8.50000000E-01  7.20000000E-01  8.50000000E-01  8.50000000E-01
  7.20000000E-01  8.50000000E-01  8.50000000E-01  7.20000000E-01  8.50000000E-01
  8.50000000E-01  7.20000000E-01  7.20000000E-01  8.50000000E-01  8.50000000E-01
  7.20000000E-01  7.20000000E-01  7.20000000E-01  8.50000000E-01  8.50000000E-01
  7.20000000E-01  8.50000000E-01  7.20000000E-01  8.50000000E-01  7.20000000E-01
  8.50000000E-01  8.50000000E-01  7.20000000E-01  8.50000000E-01  8.50000000E-01
  7.20000000E-01  8.50000000E-01  8.50000000E-01  8.50000000E-01  8.50000000E-01
  8.50000000E-01  7.20000000E-01  7.20000000E-01  8.50000000E-01  8.50000000E-01
  8.50000000E-01  7.20000000E-01  8.50000000E-01  8.50000000E-01  8.50000000E-01
  8.50000000E-01  9.60000000E-01  7.20000000E-01  7.20000000E-01  7.20000000E-01
  7.20000000E-01  7.20000000E-01  9.60000000E-01  7.20000000E-01  7.20000000E-01
  8.50000000E-01  7.20000000E-01  7.20000000E-01  7.20000000E-01  7.20000000E-01
  7.20000000E-01  8.50000000E-01  7.20000000E-01  7.20000000E-01  8.50000000E-01
  8.50000000E-01  7.20000000E-01  8.50000000E-01  8.50000000E-01  7.20000000E-01
  8.50000000E-01  8.50000000E-01  7.20000000E-01  8.50000000E-01  8.50000000E-01
  7.20000000E-01  7.20000000E-01  8.50000000E-01  8.50000000E-01  7.20000000E-01
  7.20000000E-01  7.20000000E-01  8.50000000E-01  8.50000000E-01  7.20000000E-01
  8.50000000E-01  7.20000000E-01  8.50000000E-01  7.20000000E-01  8.50000000E-01
  8.50000000E-01  7.20000000E-01  8.50000000E-01  8.50000000E-01  7.20000000E-01
  8.50000000E-01  8.50000000E-01  8.50000000E-01  8.50000000E-01  8.50000000E-01
  7.20000000E-01  7.20000000E-01  8.50000000E-01  8.50000000E-01  8.50000000E-01
  7.20000000E-01  8.50000000E-01  8.50000000E-01  8.50000000E-01  8.50000000E-01
  9.60000000E-01  7.20000000E-01  7.20000000E-01  7.20000000E-01  7.20000000E-01
  7.20000000E-01  9.60000000E-01  7.20000000E-01  7.20000000E-01  8.50000000E-01
  7.20000000E-01  7.20000000E-01  7.20000000E-01  7.20000000E-01  7.20000000E-01
  8.50000000E-01  7.20000000E-01  7.20000000E-01  8.50000000E-01  8.50000000E-01
  7.20000000E-01  8.50000000E-01  8.50000000E-01  7.20000000E-01  8.50000000E-01
  8.50000000E-01  7.20000000E-01  8.50000000E-01  8.50000000E-01  7.20000000E-01
  7.20000000E-01  8.50000000E-01  8.50000000E-01  7.20000000E-01  7.20000000E-01
  7.20000000E-01  8.50000000E-01  8.50000000E-01  7.20000000E-01  8.50000000E-01
  7.20000000E-01  8.50000000E-01  7.20000000E-01  8.50000000E-01  8.50000000E-01
  7.20000000E-01  8.50000000E-01  8.50000000E-01  7.20000000E-01  8.50000000E-01
  8.50000000E-01  8.50000000E-01  8.50000000E-01  8.50000000E-01  7.20000000E-01
  7.20000000E-01  8.50000000E-01  8.50000000E-01  8.50000000E-01  7.20000000E-01
  8.50000000E-01  8.50000000E-01  8.50000000E-01  8.50000000E-01  9.60000000E-01
  7.20000000E-01  7.20000000E-01  7.20000000E-01  7.20000000E-01  7.20000000E-01
  9.60000000E-01  7.20000000E-01  7.20000000E-01  8.50000000E-01  7.20000000E-01
  7.20000000E-01  7.20000000E-01  7.20000000E-01  7.20000000E-01  8.50000000E-01
  7.20000000E-01  7.20000000E-01  8.50000000E-01  8.50000000E-01  7.20000000E-01
  8.50000000E-01  8.50000000E-01  7.20000000E-01  8.50000000E-01  8.50000000E-01
  7.20000000E-01  8.50000000E-01  8.50000000E-01  7.20000000E-01  7.20000000E-01
  8.50000000E-01  8.50000000E-01  7.20000000E-01  7.20000000E-01  7.20000000E-01
  8.50000000E-01  8.50000000E-01  7.20000000E-01  8.50000000E-01  7.20000000E-01
  8.50000000E-01  7.20000000E-01  8.50000000E-01  8.50000000E-01  7.20000000E-01
  8.50000000E-01  8.50000000E-01  7.20000000E-01  8.50000000E-01  8.50000000E-01
  8.50000000E-01  8.50000000E-01  8.50000000E-01  7.20000000E-01  7.20000000E-01
  8.50000000E-01  8.50000000E-01  8.50000000E-01  7.20000000E-01  8.50000000E-01
  8.50000000E-01  8.50000000E-01  8.50000000E-01  9.60000000E-01  7.20000000E-01
  7.20000000E-01  7.20000000E-01  7.20000000E-01  7.20000000E-01  9.60000000E-01
  7.20000000E-01  7.20000000E-01  8.50000000E-01  7.20000000E-01  7.20000000E-01
  7.20000000E-01  7.20000000E-01  7.20000000E-01  8.50000000E-01  7.20000000E-01
  7.20000000E-01  8.50000000E-01  8.50000000E-01  7.20000000E-01  8.50000000E-01
  8.50000000E-01  7.20000000E-01  8.50000000E-01  8.50000000E-01  7.20000000E-01
  8.50000000E-01  8.50000000E-01  7.20000000E-01  7.20000000E-01  8.50000000E-01
  8.50000000E-01  7.20000000E-01  7.20000000E-01  7.20000000E-01  8.50000000E-01
  8.50000000E-01  7.20000000E-01  8.50000000E-01  7.20000000E-01  8.50000000E-01
  7.20000000E-01  8.50000000E-01  8.50000000E-01  7.20000000E-01  8.50000000E-01
  8.50000000E-01  7.20000000E-01  8.50000000E-01  8.50000000E-01  8.50000000E-01
  8.50000000E-01  8.50000000E-01  7.20000000E-01  7.20000000E-01  8.50000000E-01
  8.50000000E-01  8.50000000E-01  7.20000000E-01  8.50000000E-01  8.50000000E-01
  8.50000000E-01  8.50000000E-01  9.60000000E-01  7.20000000E-01  7.20000000E-01
  7.20000000E-01  7.20000000E-01  7.20000000E-01  9.60000000E-01  7.20000000E-01
  7.20000000E-01  8.50000000E-01  7.20000000E-01  7.20000000E-01  7.20000000E-01
  7.20000000E-01  7.20000000E-01  8.50000000E-01  7.20000000E-01  7.20000000E-01
  8.50000000E-01  8.50000000E-01  7.20000000E-01  8.50000000E-01  8.50000000E-01
  7.20000000E-01  8.50000000E-01  8.50000000E-01  7.20000000E-01  8.50000000E-01
  8.50000000E-01  7.20000000E-01  7.20000000E-01  8.50000000E-01  8.50000000E-01
  7.20000000E-01  7.20000000E-01  7.20000000E-01  8.50000000E-01  8.50000000E-01
  7.20000000E-01  8.50000000E-01  7.20000000E-01  8.50000000E-01  7.20000000E-01
  8.50000000E-01  8.50000000E-01  7.20000000E-01  8.50000000E-01  8.50000000E-01
  7.20000000E-01  8.50000000E-01  8.50000000E-01  8.50000000E-01  8.50000000E-01
  8.50000000E-01  7.20000000E-01  7.20000000E-01  8.50000000E-01  8.50000000E-01
  8.50000000E-01  7.20000000E-01  8.50000000E-01  8.50000000E-01  8.50000000E-01
  8.50000000E-01  9.60000000E-01  7.20000000E-01  7.20000000E-01  7.20000000E-01
  7.20000000E-01  7.20000000E-01  9.60000000E-01  7.20000000E-01  7.20000000E-01
  8.50000000E-01  7.20000000E-01  7.20000000E-01  7.20000000E-01  7.20000000E-01
  7.20000000E-01  8.50000000E-01  7.20000000E-01  7.20000000E-01  8.50000000E-01
  8.50000000E-01  7.20000000E-01  8.50000000E-01  8.50000000E-01  7.20000000E-01
  8.50000000E-01  8.50000000E-01  7.20000000E-01  8.50000000E-01  8.50000000E-01
  7.20000000E-01  7.20000000E-01  8.50000000E-01  8.50000000E-01  7.20000000E-01
  7.20000000E-01  7.20000000E-01  8.50000000E-01  8.50000000E-01  7.20000000E-01
  8.50000000E-01  7.20000000E-01  8.50000000E-01  7.20000000E-01  8.50000000E-01
  8.50000000E-01  7.20000000E-01  8.50000000E-01  8.50000000E-01  7.20000000E-01
  8.50000000E-01  8.50000000E-01  8.50000000E-01  8.50000000E-01  8.50000000E-01
  7.20000000E-01  7.20000000E-01  8.50000000E-01  8.50000000E-01  8.50000000E-01
  7.20000000E-01  8.50000000E-01  8.50000000E-01  8.50000000E-01  8.50000000E-01
  9.60000000E-01  7.20000000E-01  7.20000000E-01  7.20000000E-01  7.20000000E-01
  7.20000000E-01  9.60000000E-01  7.20000000E-01  7.20000000E-01  8.50000000E-01
  7.20000000E-01  7.20000000E-01  7.20000000E-01  7.20000000E-01  7.20000000E-01
  8.50000000E-01  7.20000000E-01  7.20000000E-01  8.50000000E-01  8.50000000E-01
  7.20000000E-01  8.50000000E-01  8.50000000E-01  7.20000000E-01  8.50000000E-01
  8.50000000E-01  7.20000000E-01  8.50000000E-01  8.50000000E-01  7.20000000E-01
  7.20000000E-01  8.50000000E-01  8.50000000E-01  7.20000000E-01  7.20000000E-01
  7.20000000E-01  8.50000000E-01  8.50000000E-01  7.20000000E-01  8.50000000E-01
  7.20000000E-01  8.50000000E-01  7.20000000E-01  8.50000000E-01  8.50000000E-01
  7.20000000E-01  8.50000000E-01  8.50000000E-01  7.20000000E-01  8.50000000E-01
  8.50000000E-01  8.50000000E-01  8.50000000E-01  8.50000000E-01  7.20000000E-01
  7.20000000E-01  8.50000000E-01  8.50000000E-01  8.50000000E-01  7.20000000E-01
  8.50000000E-01  8.50000000E-01  8.50000000E-01  8.50000000E-01  9.60000000E-01
  7.20000000E-01  7.20000000E-01  7.20000000E-01  7.20000000E-01  7.20000000E-01
  9.60000000E-01  7.20000000E-01  7.20000000E-01  8.50000000E-01  7.20000000E-01
  7.20000000E-01  7.20000000E-01  7.20000000E-01  7.20000000E-01  8.50000000E-01
  7.20000000E-01  7.20000000E-01  8.50000000E-01  8.50000000E-01  7.20000000E-01
  8.50000000E-01  8.50000000E-01  7.20000000E-01  8.50000000E-01  8.50000000E-01
  7.20000000E-01  8.50000000E-01  8.50000000E-01  7.20000000E-01  7.20000000E-01
  8.50000000E-01  8.50000000E-01  7.20000000E-01  7.20000000E-01  7.20000000E-01
  8.50000000E-01  8.50000000E-01  7.20000000E-01  8.50000000E-01  7.20000000E-01
  8.50000000E-01  7.20000000E-01  8.50000000E-01  8.50000000E-01  7.20000000E-01
  8.50000000E-01  8.50000000E-01  7.20000000E-01  8.50000000E-01  8.50000000E-01
  8.50000000E-01  8.50000000E-01  8.50000000E-01  7.20000000E-01  7.20000000E-01
  8.50000000E-01  8.50000000E-01  8.50000000E-01  7.20000000E-01  8.50000000E-01
  8.50000000E-01  8.50000000E-01  8.50000000E-01  9.60000000E-01  7.20000000E-01
  7.20000000E-01  7.20000000E-01  7.20000000E-01  7.20000000E-01  9.60000000E-01
  7.20000000E-01  7.20000000E-01  8.50000000E-01  7.20000000E-01  7.20000000E-01
  7.20000000E-01  7.20000000E-01  7.20000000E-01  8.50000000E-01  7.20000000E-01
  7.20000000E-01  8.50000000E-01  8.50000000E-01  7.20000000E-01  8.50000000E-01
  8.50000000E-01  7.20000000E-01  8.50000000E-01  8.50000000E-01  7.20000000E-01
  8.50000000E-01  8.50000000E-01  7.20000000E-01  7.20000000E-01  8.50000000E-01
  8.50000000E-01  7.20000000E-01  7.20000000E-01  7.20000000E-01  8.50000000E-01
  8.50000000E-01  7.20000000E-01  8.50000000E-01  7.20000000E-01  8.50000000E-01
  7.20000000E-01  8.50000000E-01  8.50000000E-01  7.20000000E-01  8.50000000E-01
  8.50000000E-01  7.20000000E-01  8.50000000E-01  8.50000000E-01  8.50000000E-01
  8.50000000E-01  8.50000000E-01  7.20000000E-01  7.20000000E-01  8.50000000E-01
  8.50000000E-01  8.50000000E-01  7.20000000E-01  8.50000000E-01  8.50000000E-01
  8.50000000E-01  8.50000000E-01  9.60000000E-01  7.20000000E-01  7.20000000E-01
  7.20000000E-01  7.20000000E-01  7.20000000E-01  9.60000000E-01  7.20000000E-01
  7.20000000E-01  8.50000000E-01  7.20000000E-01  7.20000000E-01  7.20000000E-01
  7.20000000E-01  7.20000000E-01  8.50000000E-01  7.20000000E-01  7.20000000E-01
  8.50000000E-01  8.50000000E-01  7.20000000E-01  8.50000000E-01  8.50000000E-01
  7.20000000E-01  8.50000000E-01  8.50000000E-01  7.20000000E-01  8.50000000E-01
  8.50000000E-01  7.20000000E-01  7.20000000E-01  8.50000000E-01  8.50000000E-01
  7.20000000E-01  7.20000000E-01  7.20000000E-01  8.50000000E-01  8.50000000E-01
  7.20000000E-01  8.50000000E-01  7.20000000E-01  8.50000000E-01  7.20000000E-01
  8.50000000E-01  8.50000000E-01  7.20000000E-01  8.50000000E-01  8.50000000E-01
  7.20000000E-01  8.50000000E-01  8.50000000E-01  8.50000000E-01  8.50000000E-01
  8.50000000E-01  7.20000000E-01  7.20000000E-01  8.50000000E-01  8.50000000E-01
  8.50000000E-01  7.20000000E-01  8.50000000E-01  8.50000000E-01  8.50000000E-01
  8.50000000E-01  9.60000000E-01  7.20000000E-01  7.20000000E-01  7.20000000E-01
  7.20000000E-01  7.20000000E-01  9.60000000E-01  7.20000000E-01  7.20000000E-01
  8.50000000E-01  7.20000000E-01  7.20000000E-01  7.20000000E-01  7.20000000E-01
  7.20000000E-01  8.50000000E-01  7.20000000E-01  7.20000000E-01  8.50000000E-01
  8.50000000E-01  7.20000000E-01  8.50000000E-01  8.50000000E-01  7.20000000E-01
  8.50000000E-01  8.50000000E-01  7.20000000E-01  8.50000000E-01  8.50000000E-01
  7.20000000E-01  7.20000000E-01  8.50000000E-01  8.50000000E-01  7.20000000E-01
  7.20000000E-01  7.20000000E-01  8.50000000E-01  8.50000000E-01  7.20000000E-01
  8.50000000E-01  7.20000000E-01  8.50000000E-01  7.20000000E-01  8.50000000E-01
  8.50000000E-01  7.20000000E-01  8.50000000E-01  8.50000000E-01  7.20000000E-01
  8.50000000E-01  8.50000000E-01  8.50000000E-01  8.50000000E-01  8.50000000E-01
  7.20000000E-01  7.20000000E-01  8.50000000E-01  8.50000000E-01  8.50000000E-01
  7.20000000E-01  8.50000000E-01  8.50000000E-01  8.50000000E-01  8.50000000E-01
  9.60000000E-01  7.20000000E-01  7.20000000E-01  7.20000000E-01  7.20000000E-01
  7.20000000E-01  9.60000000E-01  7.20000000E-01  7.20000000E-01  8.50000000E-01
  7.20000000E-01  7.20000000E-01  7.20000000E-01  7.20000000E-01  7.20000000E-01
  8.50000000E-01  7.20000000E-01  7.20000000E-01  8.50000000E-01  8.50000000E-01
  7.20000000E-01  8.50000000E-01  8.50000000E-01  7.20000000E-01  8.50000000E-01
  8.50000000E-01  7.20000000E-01  8.50000000E-01  8.50000000E-01  7.20000000E-01
  7.20000000E-01  8.50000000E-01  8.50000000E-01  7.20000000E-01  7.20000000E-01
  7.20000000E-01  8.50000000E-01  8.50000000E-01  7.20000000E-01  8.50000000E-01
  7.20000000E-01  8.50000000E-01  7.20000000E-01  8.50000000E-01  8.50000000E-01
  7.20000000E-01  8.50000000E-01  8.50000000E-01  7.20000000E-01  8.50000000E-01
  8.50000000E-01  8.50000000E-01  8.50000000E-01  8.50000000E-01  7.20000000E-01
  7.20000000E-01  8.50000000E-01  8.50000000E-01  8.50000000E-01  7.20000000E-01
  8.50000000E-01  8.50000000E-01  8.50000000E-01  8.50000000E-01  9.60000000E-01
  7.20000000E-01  7.20000000E-01  7.20000000E-01  7.20000000E-01  7.20000000E-01
  9.60000000E-01  7.20000000E-01  7.20000000E-01  8.50000000E-01  7.20000000E-01
  7.20000000E-01  7.20000000E-01  7.20000000E-01  7.20000000E-01  8.50000000E-01
  7.20000000E-01  7.20000000E-01  8.50000000E-01  8.50000000E-01  7.20000000E-01
  8.50000000E-01  8.50000000E-01  7.20000000E-01  8.50000000E-01  8.50000000E-01
  7.20000000E-01  8.50000000E-01  8.50000000E-01  7.20000000E-01  7.20000000E-01
  8.50000000E-01  8.50000000E-01  7.20000000E-01  7.20000000E-01  7.20000000E-01
  8.50000000E-01  8.50000000E-01  7.20000000E-01  8.50000000E-01  7.20000000E-01
  8.50000000E-01  7.20000000E-01  8.50000000E-01  8.50000000E-01  7.20000000E-01
  8.50000000E-01  8.50000000E-01  7.20000000E-01  8.50000000E-01  8.50000000E-01
  8.50000000E-01  8.50000000E-01  8.50000000E-01  7.20000000E-01  7.20000000E-01
  8.50000000E-01  8.50000000E-01  8.50000000E-01  7.20000000E-01  8.50000000E-01
  8.50000000E-01  8.50000000E-01  8.50000000E-01  9.60000000E-01  7.20000000E-01
  7.20000000E-01  7.20000000E-01  7.20000000E-01  7.20000000E-01  9.60000000E-01
  7.20000000E-01  7.20000000E-01  8.50000000E-01  7.20000000E-01  7.20000000E-01
  7.20000000E-01  7.20000000E-01  7.20000000E-01  8.50000000E-01  7.20000000E-01
  7.20000000E-01  8.50000000E-01  8.50000000E-01  7.20000000E-01  8.50000000E-01
  8.50000000E-01  7.20000000E-01  8.50000000E-01  8.50000000E-01  7.20000000E-01
  8.50000000E-01  8.50000000E-01  7.20000000E-01  7.20000000E-01  8.50000000E-01
  8.50000000E-01  7.20000000E-01  7.20000000E-01  7.20000000E-01  8.50000000E-01
  8.50000000E-01  7.20000000E-01  8.50000000E-01  7.20000000E-01  8.50000000E-01
  7.20000000E-01  8.50000000E-01  8.50000000E-01  7.20000000E-01  8.50000000E-01
  8.50000000E-01  7.20000000E-01  8.50000000E-01  8.50000000E-01  8.50000000E-01
  8.50000000E-01  8.50000000E-01  7.20000000E-01  7.20000000E-01  8.50000000E-01
  8.50000000E-01  8.50000000E-01  7.20000000E-01  8.50000000E-01  8.50000000E-01
  8.50000000E-01  8.50000000E-01  9.60000000E-01  7.20000000E-01  7.20000000E-01
  7.20000000E-01  7.20000000E-01  7.20000000E-01  9.60000000E-01  7.20000000E-01
  7.20000000E-01  8.50000000E-01  7.20000000E-01  7.20000000E-01  7.20000000E-01
  7.20000000E-01  7.20000000E-01  8.50000000E-01  7.20000000E-01  7.20000000E-01
  8.50000000E-01  8.50000000E-01  7.20000000E-01  8.50000000E-01  8.50000000E-01
  7.20000000E-01  8.50000000E-01  8.50000000E-01  7.20000000E-01  8.50000000E-01
  8.50000000E-01  7.20000000E-01  7.20000000E-01  8.50000000E-01  8.50000000E-01
  7.20000000E-01  7.20000000E-01  7.20000000E-01  8.50000000E-01  8.50000000E-01
  7.20000000E-01  8.50000000E-01  7.20000000E-01  8.50000000E-01  7.20000000E-01
  8.50000000E-01  8.50000000E-01  7.20000000E-01  8.50000000E-01  8.50000000E-01
  7.20000000E-01  8.50000000E-01  8.50000000E-01  8.50000000E-01  8.50000000E-01
  8.50000000E-01  7.20000000E-01  7.20000000E-01  8.50000000E-01  8.50000000E-01
  8.50000000E-01  7.20000000E-01  8.50000000E-01  8.50000000E-01  8.50000000E-01
  8.50000000E-01  9.60000000E-01  7.20000000E-01  7.20000000E-01  7.20000000E-01
  7.20000000E-01  7.20000000E-01  9.60000000E-01  7.20000000E-01  7.20000000E-01
  8.50000000E-01  7.20000000E-01  7.20000000E-01  7.20000000E-01  7.20000000E-01
  7.20000000E-01  8.50000000E-01  7.20000000E-01  7.20000000E-01  8.50000000E-01
  8.50000000E-01  7.20000000E-01  8.50000000E-01  8.50000000E-01  7.20000000E-01
  8.50000000E-01  8.50000000E-01  7.20000000E-01  8.50000000E-01  8.50000000E-01
  7.20000000E-01  7.20000000E-01  8.50000000E-01  8.50000000E-01  7.20000000E-01
  7.20000000E-01  7.20000000E-01  8.50000000E-01  8.50000000E-01  7.20000000E-01
  8.50000000E-01  7.20000000E-01  8.50000000E-01  7.20000000E-01  8.50000000E-01
  8.50000000E-01  7.20000000E-01  8.50000000E-01  8.50000000E-01  7.20000000E-01
  8.50000000E-01  8.50000000E-01  8.50000000E-01  8.50000000E-01  8.50000000E-01
  7.20000000E-01  7.20000000E-01  8.50000000E-01  8.50000000E-01  8.50000000E-01
  7.20000000E-01  8.50000000E-01  8.50000000E-01  8.50000000E-01  8.50000000E-01
  9.60000000E-01  7.20000000E-01  7.20000000E-01  7.20000000E-01  7.20000000E-01
  7.20000000E-01  9.60000000E-01  7.20000000E-01  7.20000000E-01  8.50000000E-01
  7.20000000E-01  7.20000000E-01  7.20000000E-01  7.20000000E-01  7.20000000E-01
  8.50000000E-01  7.20000000E-01  7.20000000E-01  8.50000000E-01  8.50000000E-01
  7.20000000E-01  8.50000000E-01  8.50000000E-01  7.20000000E-01  8.50000000E-01
  8.50000000E-01  7.20000000E-01  8.50000000E-01  8.50000000E-01  7.20000000E-01
  7.20000000E-01  8.50000000E-01  8.50000000E-01  7.20000000E-01  7.20000000E-01
  7.20000000E-01  8.50000000E-01  8.50000000E-01  7.20000000E-01  8.50000000E-01
  7.20000000E-01  8.50000000E-01  7.20000000E-01  8.50000000E-01  8.50000000E-01
  7.20000000E-01  8.50000000E-01  8.50000000E-01  7.20000000E-01  8.50000000E-01
  8.50000000E-01  8.50000000E-01  8.50000000E-01  8.50000000E-01  7.20000000E-01
  7.20000000E-01  8.50000000E-01  8.50000000E-01  8.50000000E-01  7.20000000E-01
  8.50000000E-01  8.50000000E-01  8.50000000E-01  8.50000000E-01  9.60000000E-01
  7.20000000E-01  7.20000000E-01  7.20000000E-01  7.20000000E-01  7.20000000E-01
  9.60000000E-01  7.20000000E-01  7.20000000E-01  8.50000000E-01  7.20000000E-01
  7.20000000E-01  7.20000000E-01  7.20000000E-01  7.20000000E-01  8.50000000E-01
  7.20000000E-01  7.20000000E-01  8.50000000E-01  8.50000000E-01  7.20000000E-01
  8.50000000E-01  8.50000000E-01  7.20000000E-01  8.50000000E-01  8.50000000E-01
  7.20000000E-01  8.50000000E-01  8.50000000E-01  7.20000000E-01  7.20000000E-01
  8.50000000E-01  8.50000000E-01  7.20000000E-01  7.20000000E-01  7.20000000E-01
  8.50000000E-01  8.50000000E-01  7.20000000E-01  8.50000000E-01  7.20000000E-01
  8.50000000E-01  7.20000000E-01  8.50000000E-01  8.50000000E-01  7.20000000E-01
  8.50000000E-01  8.50000000E-01  7.20000000E-01  8.50000000E-01  8.50000000E-01
  8.50000000E-01  8.50000000E-01  8.50000000E-01  7.20000000E-01  7.20000000E-01
  8.50000000E-01  8.50000000E-01  8.50000000E-01  7.20000000E-01  8.50000000E-01
  8.50000000E-01  8.50000000E-01  8.50000000E-01  9.60000000E-01  7.20000000E-01
  7.20000000E-01  7.20000000E-01  7.20000000E-01  7.20000000E-01  9.60000000E-01
  7.20000000E-01  7.20000000E-01  8.50000000E-01  7.20000000E-01  7.20000000E-01
  7.20000000E-01  7.20000000E-01  7.20000000E-01  8.50000000E-01  7.20000000E-01
  7.20000000E-01  8.50000000E-01  8.50000000E-01  7.20000000E-01  8.50000000E-01
  8.50000000E-01  7.20000000E-01  8.50000000E-01  8.50000000E-01  7.20000000E-01
  8.50000000E-01  8.50000000E-01  7.20000000E-01  7.20000000E-01  8.50000000E-01
  8.50000000E-01  7.20000000E-01  7.20000000E-01  7.20000000E-01  8.50000000E-01
  8.50000000E-01  7.20000000E-01  8.50000000E-01  7.20000000E-01  8.50000000E-01
  7.20000000E-01  8.50000000E-01  8.50000000E-01  7.20000000E-01  8.50000000E-01
  8.50000000E-01  7.20000000E-01  8.50000000E-01  8.50000000E-01  8.50000000E-01
  8.50000000E-01  8.50000000E-01  7.20000000E-01  7.20000000E-01  8.50000000E-01
  8.50000000E-01  8.50000000E-01  7.20000000E-01  8.50000000E-01  8.50000000E-01
  8.50000000E-01  8.50000000E-01  9.60000000E-01  7.20000000E-01  7.20000000E-01
  7.20000000E-01  7.20000000E-01  7.20000000E-01  9.60000000E-01  7.20000000E-01
  7.20000000E-01  8.50000000E-01  7.20000000E-01  7.20000000E-01  7.20000000E-01
  7.20000000E-01  7.20000000E-01  8.50000000E-01  7.20000000E-01  7.20000000E-01
  8.50000000E-01  8.50000000E-01  7.20000000E-01  8.50000000E-01  8.50000000E-01
  7.20000000E-01  8.50000000E-01  8.50000000E-01  7.20000000E-01  8.50000000E-01
  8.50000000E-01  7.20000000E-01  7.20000000E-01  8.50000000E-01  8.50000000E-01
  7.20000000E-01  7.20000000E-01  7.20000000E-01  8.50000000E-01  8.50000000E-01
  7.20000000E-01  8.50000000E-01  7.20000000E-01  8.50000000E-01  7.20000000E-01
  8.50000000E-01  8.50000000E-01  7.20000000E-01  8.50000000E-01  8.50000000E-01
  7.20000000E-01  8.50000000E-01  8.50000000E-01  8.50000000E-01  8.50000000E-01
  8.50000000E-01  7.20000000E-01  7.20000000E-01  8.50000000E-01  8.50000000E-01
  8.50000000E-01  7.20000000E-01  8.50000000E-01  8.50000000E-01  8.50000000E-01
  8.50000000E-01  9.60000000E-01  7.20000000E-01  7.20000000E-01  7.20000000E-01
  7.20000000E-01  7.20000000E-01  9.60000000E-01  7.20000000E-01  7.20000000E-01
  8.50000000E-01  7.20000000E-01  7.20000000E-01  7.20000000E-01  7.20000000E-01
  7.20000000E-01  8.50000000E-01  7.20000000E-01  7.20000000E-01  8.50000000E-01
  8.50000000E-01  7.20000000E-01  8.50000000E-01  8.50000000E-01  7.20000000E-01
  8.50000000E-01  8.50000000E-01  7.20000000E-01  8.50000000E-01  8.50000000E-01
  7.20000000E-01  7.20000000E-01  8.50000000E-01  8.50000000E-01  7.20000000E-01
  7.20000000E-01  7.20000000E-01  8.50000000E-01  8.50000000E-01  7.20000000E-01
  8.50000000E-01  7.20000000E-01  8.50000000E-01  7.20000000E-01  8.50000000E-01
  8.50000000E-01  7.20000000E-01  8.50000000E-01  8.50000000E-01  7.20000000E-01
  8.50000000E-01  8.50000000E-01  8.50000000E-01  8.50000000E-01  8.50000000E-01
  7.20000000E-01  7.20000000E-01  8.50000000E-01  8.50000000E-01  8.50000000E-01
  7.20000000E-01  8.50000000E-01  8.50000000E-01  8.50000000E-01  8.50000000E-01
  9.60000000E-01  7.20000000E-01  7.20000000E-01  7.20000000E-01  7.20000000E-01
  7.20000000E-01  9.60000000E-01  7.20000000E-01  7.20000000E-01  8.50000000E-01
  7.20000000E-01  7.20000000E-01  7.20000000E-01  7.20000000E-01  7.20000000E-01
  8.50000000E-01  7.20000000E-01  7.20000000E-01  8.50000000E-01  8.50000000E-01
  7.20000000E-01  8.50000000E-01  8.50000000E-01  7.20000000E-01  8.50000000E-01
  8.50000000E-01  7.20000000E-01  8.50000000E-01  8.50000000E-01  7.20000000E-01
  7.20000000E-01  8.50000000E-01  8.50000000E-01  7.20000000E-01  7.20000000E-01
  7.20000000E-01  8.50000000E-01  8.50000000E-01  7.20000000E-01  8.50000000E-01
  7.20000000E-01  8.50000000E-01  7.20000000E-01  8.50000000E-01  8.50000000E-01
  7.20000000E-01  8.50000000E-01  8.50000000E-01  7.20000000E-01  8.50000000E-01
  8.50000000E-01  8.50000000E-01  8.50000000E-01  8.50000000E-01  7.20000000E-01
  7.20000000E-01  8.50000000E-01  8.50000000E-01  8.50000000E-01  7.20000000E-01
  8.50000000E-01  8.50000000E-01  8.50000000E-01  8.50000000E-01  9.60000000E-01
  7.20000000E-01  7.20000000E-01  7.20000000E-01  7.20000000E-01  7.20000000E-01
  9.60000000E-01  7.20000000E-01  7.20000000E-01  8.50000000E-01  7.20000000E-01
  7.20000000E-01  7.20000000E-01  7.20000000E-01  7.20000000E-01  8.50000000E-01
  7.20000000E-01  7.20000000E-01  8.50000000E-01  8.50000000E-01  7.20000000E-01
  8.50000000E-01  8.50000000E-01  7.20000000E-01  8.50000000E-01  8.50000000E-01
  7.20000000E-01  8.50000000E-01  8.50000000E-01  7.20000000E-01  7.20000000E-01
  8.50000000E-01  8.50000000E-01  7.20000000E-01  7.20000000E-01  7.20000000E-01
  8.50000000E-01  8.50000000E-01  7.20000000E-01  8.50000000E-01  7.20000000E-01
  8.50000000E-01  7.20000000E-01  8.50000000E-01  8.50000000E-01  7.20000000E-01
  8.50000000E-01  8.50000000E-01  7.20000000E-01  8.50000000E-01  8.50000000E-01
  8.50000000E-01  8.50000000E-01  8.50000000E-01  7.20000000E-01  7.20000000E-01
  8.50000000E-01  8.50000000E-01  8.50000000E-01  7.20000000E-01  8.50000000E-01
  8.50000000E-01  8.50000000E-01  8.50000000E-01  9.60000000E-01  7.20000000E-01
  7.20000000E-01  7.20000000E-01  7.20000000E-01  7.20000000E-01  9.60000000E-01
  7.20000000E-01  7.20000000E-01  8.50000000E-01  7.20000000E-01  7.20000000E-01
  7.20000000E-01  7.20000000E-01  7.20000000E-01  8.50000000E-01  7.20000000E-01
  7.20000000E-01  8.50000000E-01  8.50000000E-01  7.20000000E-01  8.50000000E-01
  8.50000000E-01  7.20000000E-01  8.50000000E-01  8.50000000E-01  7.20000000E-01
  8.50000000E-01  8.50000000E-01  7.20000000E-01  7.20000000E-01  8.50000000E-01
  8.50000000E-01  7.20000000E-01  7.20000000E-01  7.20000000E-01  8.50000000E-01
  8.50000000E-01  7.20000000E-01  8.50000000E-01  7.20000000E-01  8.50000000E-01
  7.20000000E-01  8.50000000E-01  8.50000000E-01  7.20000000E-01  8.50000000E-01
  8.50000000E-01  7.20000000E-01  8.50000000E-01  8.50000000E-01  8.50000000E-01
  8.50000000E-01  8.50000000E-01  7.20000000E-01  7.20000000E-01  8.50000000E-01
  8.50000000E-01  8.50000000E-01  7.20000000E-01  8.50000000E-01  8.50000000E-01
  8.50000000E-01  8.50000000E-01  9.60000000E-01  7.20000000E-01  7.20000000E-01
  7.20000000E-01  7.20000000E-01  7.20000000E-01  9.60000000E-01  7.20000000E-01
  7.20000000E-01  8.50000000E-01  7.20000000E-01  7.20000000E-01  7.20000000E-01
  7.20000000E-01  7.20000000E-01  8.50000000E-01  7.20000000E-01  7.20000000E-01
  8.50000000E-01  8.50000000E-01  7.20000000E-01  8.50000000E-01  8.50000000E-01
  7.20000000E-01  8.50000000E-01  8.50000000E-01  7.20000000E-01  8.50000000E-01
  8.50000000E-01  7.20000000E-01  7.20000000E-01  8.50000000E-01  8.50000000E-01
  7.20000000E-01  7.20000000E-01  7.20000000E-01  8.50000000E-01  8.50000000E-01
  7.20000000E-01  8.50000000E-01  7.20000000E-01  8.50000000E-01  7.20000000E-01
  8.50000000E-01  8.50000000E-01  7.20000000E-01  8.50000000E-01  8.50000000E-01
  7.20000000E-01  8.50000000E-01  8.50000000E-01  8.50000000E-01  8.50000000E-01
  8.50000000E-01  7.20000000E-01  7.20000000E-01  8.50000000E-01  8.50000000E-01
  8.50000000E-01  7.20000000E-01  8.50000000E-01  8.50000000E-01  8.50000000E-01
  8.50000000E-01  9.60000000E-01  7.20000000E-01  7.20000000E-01  7.20000000E-01
  7.20000000E-01  7.20000000E-01  9.60000000E-01  7.20000000E-01  7.20000000E-01
  8.50000000E-01  7.20000000E-01  7.20000000E-01  7.20000000E-01  7.20000000E-01
  7.20000000E-01  8.50000000E-01  7.20000000E-01  7.20000000E-01  8.50000000E-01
  8.50000000E-01  7.20000000E-01  8.50000000E-01  8.50000000E-01  7.20000000E-01
  8.50000000E-01  8.50000000E-01  7.20000000E-01  8.50000000E-01  8.50000000E-01
  7.20000000E-01  7.20000000E-01  8.50000000E-01  8.50000000E-01  7.20000000E-01
  7.20000000E-01  7.20000000E-01  8.50000000E-01  8.50000000E-01  7.20000000E-01
  8.50000000E-01  7.20000000E-01  8.50000000E-01  7.20000000E-01  8.50000000E-01
  8.50000000E-01  7.20000000E-01  8.50000000E-01  8.50000000E-01  7.20000000E-01
  8.50000000E-01  8.50000000E-01  8.50000000E-01  8.50000000E-01  8.50000000E-01
  7.20000000E-01  7.20000000E-01  8.50000000E-01  8.50000000E-01  8.50000000E-01
  7.20000000E-01  8.50000000E-01  8.50000000E-01  8.50000000E-01  8.50000000E-01
  9.60000000E-01  7.20000000E-01  7.20000000E-01  7.20000000E-01  7.20000000E-01
  7.20000000E-01  9.60000000E-01  7.20000000E-01  7.20000000E-01  8.50000000E-01
  7.20000000E-01  7.20000000E-01  7.20000000E-01  7.20000000E-01  7.20000000E-01
  8.50000000E-01  7.20000000E-01  7.20000000E-01  8.50000000E-01  8.50000000E-01
  7.20000000E-01  8.50000000E-01  8.50000000E-01  7.20000000E-01  8.50000000E-01
  8.50000000E-01  7.20000000E-01  8.50000000E-01  8.50000000E-01  7.20000000E-01
  7.20000000E-01  8.50000000E-01  8.50000000E-01  7.20000000E-01  7.20000000E-01
  7.20000000E-01  8.50000000E-01  8.50000000E-01  7.20000000E-01  8.50000000E-01
  7.20000000E-01  8.50000000E-01  7.20000000E-01  8.50000000E-01  8.50000000E-01
  7.20000000E-01  8.50000000E-01  8.50000000E-01  7.20000000E-01  8.50000000E-01
  8.50000000E-01  8.50000000E-01  8.50000000E-01  8.50000000E-01  7.20000000E-01
  7.20000000E-01  8.50000000E-01  8.50000000E-01  8.50000000E-01  7.20000000E-01
  8.50000000E-01  8.50000000E-01  8.50000000E-01  8.50000000E-01  9.60000000E-01
  7.20000000E-01  7.20000000E-01  7.20000000E-01  7.20000000E-01  7.20000000E-01
  9.60000000E-01  7.20000000E-01  7.20000000E-01  8.50000000E-01  7.20000000E-01
  7.20000000E-01  7.20000000E-01  7.20000000E-01  7.20000000E-01  8.50000000E-01
  7.20000000E-01  7.20000000E-01  8.50000000E-01  8.50000000E-01  7.20000000E-01
  8.50000000E-01  8.50000000E-01  7.20000000E-01  8.50000000E-01  8.50000000E-01
  7.20000000E-01  8.50000000E-01  8.50000000E-01  7.20000000E-01  7.20000000E-01
  8.50000000E-01  8.50000000E-01  7.20000000E-01  7.20000000E-01  7.20000000E-01
  8.50000000E-01  8.50000000E-01  7.20000000E-01  8.50000000E-01  7.20000000E-01
  8.50000000E-01  7.20000000E-01  8.50000000E-01  8.50000000E-01  7.20000000E-01
  8.50000000E-01  8.50000000E-01  7.20000000E-01  8.50000000E-01  8.50000000E-01
  8.50000000E-01  8.50000000E-01  8.50000000E-01  7.20000000E-01  7.20000000E-01
  8.50000000E-01  8.50000000E-01  8.50000000E-01  7.20000000E-01  8.50000000E-01
  8.50000000E-01  8.50000000E-01  8.50000000E-01  9.60000000E-01  7.20000000E-01
  7.20000000E-01  7.20000000E-01  7.20000000E-01  7.20000000E-01  9.60000000E-01
  7.20000000E-01  7.20000000E-01  8.50000000E-01  7.20000000E-01  7.20000000E-01
  7.20000000E-01  7.20000000E-01  7.20000000E-01  8.50000000E-01  7.20000000E-01
  7.20000000E-01  8.50000000E-01  8.50000000E-01  7.20000000E-01  8.50000000E-01
  8.50000000E-01  7.20000000E-01  8.50000000E-01  8.50000000E-01  7.20000000E-01
  8.50000000E-01  8.50000000E-01  7.20000000E-01  7.20000000E-01  8.50000000E-01
  8.50000000E-01  7.20000000E-01  7.20000000E-01  7.20000000E-01  8.50000000E-01
  8.50000000E-01  7.20000000E-01  8.50000000E-01  7.20000000E-01  8.50000000E-01
  7.20000000E-01  8.50000000E-01  8.50000000E-01  7.20000000E-01  8.50000000E-01
  8.50000000E-01  7.20000000E-01  8.50000000E-01  8.50000000E-01  8.50000000E-01
  8.50000000E-01  8.50000000E-01  7.20000000E-01  7.20000000E-01  8.50000000E-01
  8.50000000E-01  8.50000000E-01  7.20000000E-01  8.50000000E-01  8.50000000E-01
  8.50000000E-01  8.50000000E-01  9.60000000E-01  7.20000000E-01  7.20000000E-01
  7.20000000E-01  7.20000000E-01  7.20000000E-01  9.60000000E-01  7.20000000E-01
  7.20000000E-01  8.50000000E-01  7.20000000E-01  7.20000000E-01  7.20000000E-01
  7.20000000E-01  7.20000000E-01  8.50000000E-01  7.20000000E-01  7.20000000E-01
  8.50000000E-01  8.50000000E-01  7.20000000E-01  8.50000000E-01  8.50000000E-01
  7.20000000E-01  8.50000000E-01  8.50000000E-01  7.20000000E-01  8.50000000E-01
  8.50000000E-01  7.20000000E-01  7.20000000E-01  8.50000000E-01  8.50000000E-01
  7.20000000E-01  7.20000000E-01  7.20000000E-01  8.50000000E-01  8.50000000E-01
  7.20000000E-01  8.50000000E-01  7.20000000E-01  8.50000000E-01  7.20000000E-01
  8.50000000E-01  8.50000000E-01  7.20000000E-01  8.50000000E-01  8.50000000E-01
  7.20000000E-01  8.50000000E-01  8.50000000E-01  8.50000000E-01  8.50000000E-01
  8.50000000E-01  7.20000000E-01  7.20000000E-01  8.50000000E-01  8.50000000E-01
  8.50000000E-01  7.20000000E-01  8.50000000E-01  8.50000000E-01  8.50000000E-01
  8.50000000E-01  9.60000000E-01  7.20000000E-01  7.20000000E-01  7.20000000E-01
  7.20000000E-01  7.20000000E-01  9.60000000E-01  7.20000000E-01  7.20000000E-01
  8.50000000E-01  7.20000000E-01  7.20000000E-01  7.20000000E-01  7.20000000E-01
  7.20000000E-01  8.50000000E-01  7.20000000E-01  7.20000000E-01  8.50000000E-01
  8.50000000E-01  7.20000000E-01  8.50000000E-01  8.50000000E-01  7.20000000E-01
  8.50000000E-01  8.50000000E-01  7.20000000E-01  8.50000000E-01  8.50000000E-01
  7.20000000E-01  7.20000000E-01  8.50000000E-01  8.50000000E-01  7.20000000E-01
  7.20000000E-01  7.20000000E-01  8.50000000E-01  8.50000000E-01  7.20000000E-01
  8.50000000E-01  7.20000000E-01  8.50000000E-01  7.20000000E-01  8.50000000E-01
  8.50000000E-01  7.20000000E-01  8.50000000E-01  8.50000000E-01  7.20000000E-01
  8.50000000E-01  8.50000000E-01  8.50000000E-01  8.50000000E-01  8.50000000E-01
  7.20000000E-01  7.20000000E-01  8.50000000E-01  8.50000000E-01  8.50000000E-01
  7.20000000E-01  8.50000000E-01  8.50000000E-01  8.50000000E-01  8.50000000E-01
  9.60000000E-01  7.20000000E-01  7.20000000E-01  7.20000000E-01  7.20000000E-01
  7.20000000E-01  9.60000000E-01  7.20000000E-01  7.20000000E-01  8.50000000E-01
  7.20000000E-01  7.20000000E-01  7.20000000E-01  7.20000000E-01  7.20000000E-01
  8.50000000E-01  7.20000000E-01  7.20000000E-01  8.50000000E-01  8.50000000E-01
  7.20000000E-01  8.50000000E-01  8.50000000E-01  7.20000000E-01  8.50000000E-01
  8.50000000E-01  7.20000000E-01  8.50000000E-01  8.50000000E-01  7.20000000E-01
  7.20000000E-01  8.50000000E-01  8.50000000E-01  7.20000000E-01  7.20000000E-01
  7.20000000E-01  8.50000000E-01  8.50000000E-01  7.20000000E-01  8.50000000E-01
  7.20000000E-01  8.50000000E-01  7.20000000E-01  8.50000000E-01  8.50000000E-01
  7.20000000E-01  8.50000000E-01  8.50000000E-01  7.20000000E-01  8.50000000E-01
  8.50000000E-01  8.50000000E-01  8.50000000E-01  8.50000000E-01  7.20000000E-01
  7.20000000E-01  8.50000000E-01  8.50000000E-01  8.50000000E-01  7.20000000E-01
  8.50000000E-01  8.50000000E-01  8.50000000E-01  8.50000000E-01  9.60000000E-01
  7.20000000E-01  7.20000000E-01  7.20000000E-01  7.20000000E-01  7.20000000E-01
  9.60000000E-01  7.20000000E-01  7.20000000E-01  8.50000000E-01  7.20000000E-01
  7.20000000E-01  7.20000000E-01  7.20000000E-01  7.20000000E-01  8.50000000E-01
  7.20000000E-01  7.20000000E-01  8.50000000E-01  8.50000000E-01  7.20000000E-01
  8.50000000E-01  8.50000000E-01  7.20000000E-01  8.50000000E-01  8.50000000E-01
  7.20000000E-01  8.50000000E-01  8.50000000E-01  7.20000000E-01  7.20000000E-01
  8.50000000E-01  8.50000000E-01  7.20000000E-01  7.20000000E-01  7.20000000E-01
  8.50000000E-01  8.50000000E-01  7.20000000E-01  8.50000000E-01  7.20000000E-01
  8.50000000E-01  7.20000000E-01  8.50000000E-01  8.50000000E-01  7.20000000E-01
  8.50000000E-01  8.50000000E-01  7.20000000E-01  8.50000000E-01  8.50000000E-01
  8.50000000E-01  8.50000000E-01  8.50000000E-01  7.20000000E-01  7.20000000E-01
  8.50000000E-01  8.50000000E-01  8.50000000E-01  7.20000000E-01  8.50000000E-01
  8.50000000E-01  8.50000000E-01  8.50000000E-01  9.60000000E-01  7.20000000E-01
  7.20000000E-01  7.20000000E-01  7.20000000E-01  7.20000000E-01  9.60000000E-01
  7.20000000E-01  7.20000000E-01  8.50000000E-01  7.20000000E-01  7.20000000E-01
  7.20000000E-01  7.20000000E-01  7.20000000E-01  8.50000000E-01  7.20000000E-01
  7.20000000E-01  8.50000000E-01  8.50000000E-01  7.20000000E-01  8.50000000E-01
  8.50000000E-01  7.20000000E-01  8.50000000E-01  8.50000000E-01  7.20000000E-01
  8.50000000E-01  8.50000000E-01  7.20000000E-01  7.20000000E-01  8.50000000E-01
  8.50000000E-01  7.20000000E-01  7.20000000E-01  7.20000000E-01  8.50000000E-01
  8.50000000E-01  7.20000000E-01  8.50000000E-01  7.20000000E-01  8.50000000E-01
  7.20000000E-01  8.50000000E-01  8.50000000E-01  7.20000000E-01  8.50000000E-01
  8.50000000E-01  7.20000000E-01  8.50000000E-01  8.50000000E-01  8.50000000E-01
  8.50000000E-01  8.50000000E-01  7.20000000E-01  7.20000000E-01  8.50000000E-01
  8.50000000E-01  8.50000000E-01  7.20000000E-01  8.50000000E-01  8.50000000E-01
  8.50000000E-01  8.50000000E-01  9.60000000E-01  7.20000000E-01  7.20000000E-01
  7.20000000E-01  7.20000000E-01  7.20000000E-01  9.60000000E-01  7.20000000E-01
  7.20000000E-01  8.50000000E-01  7.20000000E-01  7.20000000E-01  7.20000000E-01
  7.20000000E-01  7.20000000E-01  8.50000000E-01  7.20000000E-01  7.20000000E-01
  8.50000000E-01  8.50000000E-01  7.20000000E-01  8.50000000E-01  8.50000000E-01
  7.20000000E-01  8.50000000E-01  8.50000000E-01  7.20000000E-01  8.50000000E-01
  8.50000000E-01  7.20000000E-01  7.20000000E-01  8.50000000E-01  8.50000000E-01
  7.20000000E-01  7.20000000E-01  7.20000000E-01  8.50000000E-01  8.50000000E-01
  7.20000000E-01  8.50000000E-01  7.20000000E-01  8.50000000E-01  7.20000000E-01
  8.50000000E-01  8.50000000E-01  7.20000000E-01  8.50000000E-01  8.50000000E-01
  7.20000000E-01  8.50000000E-01  8.50000000E-01  8.50000000E-01  8.50000000E-01
  8.50000000E-01  7.20000000E-01  7.20000000E-01  8.50000000E-01  8.50000000E-01
  8.50000000E-01  7.20000000E-01  8.50000000E-01  8.50000000E-01  8.50000000E-01
  8.50000000E-01  9.60000000E-01  7.20000000E-01  7.20000000E-01  7.20000000E-01
  7.20000000E-01  7.20000000E-01  9.60000000E-01  7.20000000E-01  7.20000000E-01
  8.50000000E-01  7.20000000E-01  7.20000000E-01  7.20000000E-01  7.20000000E-01
  7.20000000E-01  8.50000000E-01  7.20000000E-01  7.20000000E-01  8.50000000E-01
  8.50000000E-01  7.20000000E-01  8.50000000E-01  8.50000000E-01  7.20000000E-01
  8.50000000E-01  8.50000000E-01  7.20000000E-01  8.50000000E-01  8.50000000E-01
  7.20000000E-01  7.20000000E-01  8.50000000E-01  8.50000000E-01  7.20000000E-01
  7.20000000E-01  7.20000000E-01  8.50000000E-01  8.50000000E-01  7.20000000E-01
  8.50000000E-01  7.20000000E-01  8.50000000E-01  7.20000000E-01  8.50000000E-01
  8.50000000E-01  7.20000000E-01  8.50000000E-01  8.50000000E-01  7.20000000E-01
  8.50000000E-01  8.50000000E-01  8.50000000E-01  8.50000000E-01  8.50000000E-01
  7.20000000E-01  7.20000000E-01  8.50000000E-01  8.50000000E-01  8.50000000E-01
  7.20000000E-01  8.50000000E-01  8.50000000E-01  8.50000000E-01  8.50000000E-01
  9.60000000E-01  7.20000000E-01  7.20000000E-01  7.20000000E-01  7.20000000E-01
  7.20000000E-01  9.60000000E-01  7.20000000E-01  7.20000000E-01  8.50000000E-01
  7.20000000E-01  7.20000000E-01  7.20000000E-01  7.20000000E-01  7.20000000E-01
  8.50000000E-01  7.20000000E-01  7.20000000E-01  8.50000000E-01  8.50000000E-01
  7.20000000E-01  8.50000000E-01  8.50000000E-01  7.20000000E-01  8.50000000E-01
  8.50000000E-01  7.20000000E-01  8.50000000E-01  8.50000000E-01  7.20000000E-01
  7.20000000E-01  8.50000000E-01  8.50000000E-01  7.20000000E-01  7.20000000E-01
  7.20000000E-01  8.50000000E-01  8.50000000E-01  7.20000000E-01  8.50000000E-01
  7.20000000E-01  8.50000000E-01  7.20000000E-01  8.50000000E-01  8.50000000E-01
  7.20000000E-01  8.50000000E-01  8.50000000E-01  7.20000000E-01  8.50000000E-01
  8.50000000E-01  8.50000000E-01  8.50000000E-01  8.50000000E-01  7.20000000E-01
  7.20000000E-01  8.50000000E-01  8.50000000E-01  8.50000000E-01  7.20000000E-01
  8.50000000E-01  8.50000000E-01  8.50000000E-01  8.50000000E-01  9.60000000E-01
  7.20000000E-01  7.20000000E-01  7.20000000E-01  7.20000000E-01  7.20000000E-01
  9.60000000E-01  7.20000000E-01  7.20000000E-01  8.50000000E-01  7.20000000E-01
  7.20000000E-01  7.20000000E-01  7.20000000E-01  7.20000000E-01  8.50000000E-01
  7.20000000E-01  7.20000000E-01  8.50000000E-01  8.50000000E-01  7.20000000E-01
  8.50000000E-01  8.50000000E-01  7.20000000E-01  8.50000000E-01  8.50000000E-01
  7.20000000E-01  8.50000000E-01  8.50000000E-01  7.20000000E-01  7.20000000E-01
  8.50000000E-01  8.50000000E-01  7.20000000E-01  7.20000000E-01  7.20000000E-01
  8.50000000E-01  8.50000000E-01  7.20000000E-01  8.50000000E-01  7.20000000E-01
  8.50000000E-01  7.20000000E-01  8.50000000E-01  8.50000000E-01  7.20000000E-01
  8.50000000E-01  8.50000000E-01  7.20000000E-01  8.50000000E-01  8.50000000E-01
  8.50000000E-01  8.50000000E-01  8.50000000E-01  7.20000000E-01  7.20000000E-01
  8.50000000E-01  8.50000000E-01  8.50000000E-01  7.20000000E-01  8.50000000E-01
  8.50000000E-01  8.50000000E-01  8.50000000E-01  9.60000000E-01  7.20000000E-01
  7.20000000E-01  7.20000000E-01  7.20000000E-01  7.20000000E-01  9.60000000E-01
  7.20000000E-01  7.20000000E-01  8.50000000E-01  7.20000000E-01  7.20000000E-01
  7.20000000E-01  7.20000000E-01  7.20000000E-01  8.50000000E-01  7.20000000E-01
  7.20000000E-01  8.50000000E-01  8.50000000E-01  7.20000000E-01  8.50000000E-01
  8.50000000E-01  7.20000000E-01  8.50000000E-01  8.50000000E-01  7.20000000E-01
  8.50000000E-01  8.50000000E-01  7.20000000E-01  7.20000000E-01  8.50000000E-01
  8.50000000E-01  7.20000000E-01  7.20000000E-01  7.20000000E-01  8.50000000E-01
  8.50000000E-01  7.20000000E-01  8.50000000E-01  7.20000000E-01  8.50000000E-01
  7.20000000E-01  8.50000000E-01  8.50000000E-01  7.20000000E-01  8.50000000E-01
  8.50000000E-01  7.20000000E-01  8.50000000E-01  8.50000000E-01  8.50000000E-01
  8.50000000E-01  8.50000000E-01  7.20000000E-01  7.20000000E-01  8.50000000E-01
  8.50000000E-01  8.50000000E-01  7.20000000E-01  8.50000000E-01  8.50000000E-01
  8.50000000E-01  8.50000000E-01  9.60000000E-01  7.20000000E-01  7.20000000E-01
  7.20000000E-01  7.20000000E-01  7.20000000E-01  9.60000000E-01  7.20000000E-01
  7.20000000E-01  8.50000000E-01  7.20000000E-01  7.20000000E-01  7.20000000E-01
  7.20000000E-01  7.20000000E-01  8.50000000E-01  7.20000000E-01  7.20000000E-01
  8.50000000E-01  8.50000000E-01  7.20000000E-01  8.50000000E-01  8.50000000E-01
  7.20000000E-01  8.50000000E-01  8.50000000E-01  7.20000000E-01  8.50000000E-01
  8.50000000E-01  7.20000000E-01  7.20000000E-01  8.50000000E-01  8.50000000E-01
  7.20000000E-01  7.20000000E-01  7.20000000E-01  8.50000000E-01  8.50000000E-01
  7.20000000E-01  8.50000000E-01  7.20000000E-01  8.50000000E-01  7.20000000E-01
  8.50000000E-01  8.50000000E-01  7.20000000E-01  8.50000000E-01  8.50000000E-01
  7.20000000E-01  8.50000000E-01  8.50000000E-01  8.50000000E-01  8.50000000E-01
  8.50000000E-01  7.20000000E-01  7.20000000E-01  8.50000000E-01  8.50000000E-01
  8.50000000E-01  7.20000000E-01  8.50000000E-01  8.50000000E-01  8.50000000E-01
  8.50000000E-01  9.60000000E-01  7.20000000E-01  7.20000000E-01  7.20000000E-01
  7.20000000E-01  7.20000000E-01  9.60000000E-01  7.20000000E-01  7.20000000E-01
  8.50000000E-01  7.20000000E-01  7.20000000E-01  7.20000000E-01  7.20000000E-01
  7.20000000E-01  8.50000000E-01  7.20000000E-01  7.20000000E-01  8.50000000E-01
  8.50000000E-01  7.20000000E-01  8.50000000E-01  8.50000000E-01  7.20000000E-01
  8.50000000E-01  8.50000000E-01  7.20000000E-01  8.50000000E-01  8.50000000E-01
  7.20000000E-01  7.20000000E-01  8.50000000E-01  8.50000000E-01  7.20000000E-01
  7.20000000E-01  7.20000000E-01  8.50000000E-01  8.50000000E-01  7.20000000E-01
  8.50000000E-01  7.20000000E-01  8.50000000E-01  7.20000000E-01  8.50000000E-01
  8.50000000E-01  7.20000000E-01  8.50000000E-01  8.50000000E-01  7.20000000E-01
  8.50000000E-01  8.50000000E-01  8.50000000E-01  8.50000000E-01  8.50000000E-01
  7.20000000E-01  7.20000000E-01  8.50000000E-01  8.50000000E-01  8.50000000E-01
  7.20000000E-01  8.50000000E-01  8.50000000E-01  8.50000000E-01  8.50000000E-01
  9.60000000E-01  7.20000000E-01  7.20000000E-01  7.20000000E-01  7.20000000E-01
  7.20000000E-01  9.60000000E-01  7.20000000E-01  7.20000000E-01  8.50000000E-01
  7.20000000E-01  7.20000000E-01  7.20000000E-01  7.20000000E-01  7.20000000E-01
  8.50000000E-01  7.20000000E-01  7.20000000E-01  8.50000000E-01  8.50000000E-01
  7.20000000E-01  8.50000000E-01  8.50000000E-01  7.20000000E-01  8.50000000E-01
  8.50000000E-01  7.20000000E-01  8.50000000E-01  8.50000000E-01  7.20000000E-01
  7.20000000E-01  8.50000000E-01  8.50000000E-01  7.20000000E-01  7.20000000E-01
  7.20000000E-01  8.50000000E-01  8.50000000E-01  7.20000000E-01  8.50000000E-01
  7.20000000E-01  8.50000000E-01  7.20000000E-01  8.50000000E-01  8.50000000E-01
  7.20000000E-01  8.50000000E-01  8.50000000E-01  7.20000000E-01  8.50000000E-01
  8.50000000E-01  8.50000000E-01  8.50000000E-01  8.50000000E-01  7.20000000E-01
  7.20000000E-01  8.50000000E-01  8.50000000E-01  8.50000000E-01  7.20000000E-01
  8.50000000E-01  8.50000000E-01  8.50000000E-01  8.50000000E-01  9.60000000E-01
  7.20000000E-01  7.20000000E-01  7.20000000E-01  7.20000000E-01  7.20000000E-01
  9.60000000E-01  7.20000000E-01  7.20000000E-01  8.50000000E-01  7.20000000E-01
  7.20000000E-01  7.20000000E-01  7.20000000E-01  7.20000000E-01  8.50000000E-01
  7.20000000E-01  7.20000000E-01  8.50000000E-01  8.50000000E-01  7.20000000E-01
  8.50000000E-01  8.50000000E-01  7.20000000E-01  8.50000000E-01  8.50000000E-01
  7.20000000E-01  8.50000000E-01  8.50000000E-01  7.20000000E-01  7.20000000E-01
  8.50000000E-01  8.50000000E-01  7.20000000E-01  7.20000000E-01  7.20000000E-01
  8.50000000E-01  8.50000000E-01  7.20000000E-01  8.50000000E-01  7.20000000E-01
  8.50000000E-01  7.20000000E-01  8.50000000E-01  8.50000000E-01  7.20000000E-01
  8.50000000E-01  8.50000000E-01  7.20000000E-01  8.50000000E-01  8.50000000E-01
  8.50000000E-01  8.50000000E-01  8.50000000E-01  7.20000000E-01  7.20000000E-01
  8.50000000E-01  8.50000000E-01  8.50000000E-01  7.20000000E-01  8.50000000E-01
  8.50000000E-01  8.50000000E-01  8.50000000E-01  9.60000000E-01  7.20000000E-01
  7.20000000E-01  7.20000000E-01  7.20000000E-01  7.20000000E-01  9.60000000E-01
  7.20000000E-01  7.20000000E-01  8.50000000E-01  7.20000000E-01  7.20000000E-01
  7.20000000E-01  7.20000000E-01  7.20000000E-01  8.50000000E-01  7.20000000E-01
  7.20000000E-01  8.50000000E-01  8.50000000E-01  7.20000000E-01  8.50000000E-01
  8.50000000E-01  7.20000000E-01  8.50000000E-01  8.50000000E-01  7.20000000E-01
  8.50000000E-01  8.50000000E-01  7.20000000E-01  7.20000000E-01  8.50000000E-01
  8.50000000E-01  7.20000000E-01  7.20000000E-01  7.20000000E-01  8.50000000E-01
  8.50000000E-01  7.20000000E-01  8.50000000E-01  7.20000000E-01  8.50000000E-01
  7.20000000E-01  8.50000000E-01  8.50000000E-01  7.20000000E-01  8.50000000E-01
  8.50000000E-01  7.20000000E-01  8.50000000E-01  8.50000000E-01  8.50000000E-01
  8.50000000E-01  8.50000000E-01  7.20000000E-01  7.20000000E-01  8.50000000E-01
  8.50000000E-01  8.50000000E-01  7.20000000E-01  8.50000000E-01  8.50000000E-01
  8.50000000E-01  8.50000000E-01  9.60000000E-01  7.20000000E-01  7.20000000E-01
  7.20000000E-01  7.20000000E-01  7.20000000E-01  9.60000000E-01  7.20000000E-01
  7.20000000E-01  8.50000000E-01  7.20000000E-01  7.20000000E-01  7.20000000E-01
  7.20000000E-01  7.20000000E-01  8.50000000E-01  7.20000000E-01  7.20000000E-01
  8.50000000E-01  8.50000000E-01  7.20000000E-01  8.50000000E-01  8.50000000E-01
  7.20000000E-01  8.50000000E-01  8.50000000E-01  7.20000000E-01  8.50000000E-01
  8.50000000E-01  7.20000000E-01  7.20000000E-01  8.50000000E-01  8.50000000E-01
  7.20000000E-01  7.20000000E-01  7.20000000E-01  8.50000000E-01  8.50000000E-01
  7.20000000E-01  8.50000000E-01  7.20000000E-01  8.50000000E-01  7.20000000E-01
  8.50000000E-01  8.50000000E-01  7.20000000E-01  8.50000000E-01  8.50000000E-01
  7.20000000E-01  8.50000000E-01  8.50000000E-01  8.50000000E-01  8.50000000E-01
  8.50000000E-01  7.20000000E-01  7.20000000E-01  8.50000000E-01  8.50000000E-01
  8.50000000E-01  7.20000000E-01  8.50000000E-01  8.50000000E-01  8.50000000E-01
  8.50000000E-01  9.60000000E-01  7.20000000E-01  7.20000000E-01  7.20000000E-01
  7.20000000E-01  7.20000000E-01  9.60000000E-01  7.20000000E-01  7.20000000E-01
  8.50000000E-01  7.20000000E-01  7.20000000E-01  7.20000000E-01  7.20000000E-01
  7.20000000E-01  8.50000000E-01  7.20000000E-01  7.20000000E-01  8.50000000E-01
  8.50000000E-01  7.20000000E-01  8.50000000E-01  8.50000000E-01  7.20000000E-01
  8.50000000E-01  8.50000000E-01  7.20000000E-01  8.50000000E-01  8.50000000E-01
  7.20000000E-01  7.20000000E-01  8.50000000E-01  8.50000000E-01  7.20000000E-01
  7.20000000E-01  7.20000000E-01  8.50000000E-01  8.50000000E-01  7.20000000E-01
  8.50000000E-01  7.20000000E-01  8.50000000E-01  7.20000000E-01  8.50000000E-01
  8.50000000E-01  7.20000000E-01  8.50000000E-01  8.50000000E-01  7.20000000E-01
  8.50000000E-01  8.50000000E-01  8.50000000E-01  8.50000000E-01  8.50000000E-01
  7.20000000E-01  7.20000000E-01  8.50000000E-01  8.50000000E-01  8.50000000E-01
  7.20000000E-01  8.50000000E-01  8.50000000E-01  8.50000000E-01  8.50000000E-01
  9.60000000E-01  7.20000000E-01  7.20000000E-01  7.20000000E-01  7.20000000E-01
  7.20000000E-01  9.60000000E-01  7.20000000E-01  7.20000000E-01  8.50000000E-01
  7.20000000E-01  7.20000000E-01  7.20000000E-01  7.20000000E-01  7.20000000E-01
  8.50000000E-01  7.20000000E-01  7.20000000E-01  8.50000000E-01  8.50000000E-01
  7.20000000E-01  8.50000000E-01  8.50000000E-01  7.20000000E-01  8.50000000E-01
  8.50000000E-01  7.20000000E-01  8.50000000E-01  8.50000000E-01  7.20000000E-01
  7.20000000E-01  8.50000000E-01  8.50000000E-01  7.20000000E-01  7.20000000E-01
  7.20000000E-01  8.50000000E-01  8.50000000E-01  7.20000000E-01  8.50000000E-01
  7.20000000E-01  8.50000000E-01  7.20000000E-01  8.50000000E-01  8.50000000E-01
  7.20000000E-01  8.50000000E-01  8.50000000E-01  7.20000000E-01  8.50000000E-01
  8.50000000E-01  8.50000000E-01  8.50000000E-01  8.50000000E-01  7.20000000E-01
  7.20000000E-01  8.50000000E-01  8.50000000E-01  8.50000000E-01  7.20000000E-01
  8.50000000E-01  8.50000000E-01  8.50000000E-01  8.50000000E-01  9.60000000E-01
  7.20000000E-01  7.20000000E-01  7.20000000E-01  7.20000000E-01  7.20000000E-01
  9.60000000E-01  7.20000000E-01  7.20000000E-01  8.50000000E-01  7.20000000E-01
  7.20000000E-01  7.20000000E-01  7.20000000E-01  7.20000000E-01  8.50000000E-01
  7.20000000E-01  7.20000000E-01  8.50000000E-01  8.50000000E-01  7.20000000E-01
  8.50000000E-01  8.50000000E-01  7.20000000E-01  8.50000000E-01  8.50000000E-01
  7.20000000E-01  8.50000000E-01  8.50000000E-01  7.20000000E-01  7.20000000E-01
  8.50000000E-01  8.50000000E-01  7.20000000E-01  7.20000000E-01  7.20000000E-01
  8.50000000E-01  8.50000000E-01  7.20000000E-01  8.50000000E-01  7.20000000E-01
  8.50000000E-01  7.20000000E-01  8.50000000E-01  8.50000000E-01  7.20000000E-01
  8.50000000E-01  8.50000000E-01  7.20000000E-01  8.50000000E-01  8.50000000E-01
  8.50000000E-01  8.50000000E-01  8.50000000E-01  7.20000000E-01  7.20000000E-01
  8.50000000E-01  8.50000000E-01  8.50000000E-01  7.20000000E-01  8.50000000E-01
  8.50000000E-01  8.50000000E-01  8.50000000E-01  9.60000000E-01  7.20000000E-01
  7.20000000E-01  7.20000000E-01  7.20000000E-01  7.20000000E-01  9.60000000E-01
  7.20000000E-01  7.20000000E-01  8.50000000E-01  7.20000000E-01  7.20000000E-01
  7.20000000E-01  7.20000000E-01  7.20000000E-01  8.50000000E-01  7.20000000E-01
  7.20000000E-01  8.50000000E-01  8.50000000E-01  7.20000000E-01  8.50000000E-01
  8.50000000E-01  7.20000000E-01  8.50000000E-01  8.50000000E-01  7.20000000E-01
  8.50000000E-01  8.50000000E-01  7.20000000E-01  7.20000000E-01  8.50000000E-01
  8.50000000E-01  7.20000000E-01  7.20000000E-01  7.20000000E-01  8.50000000E-01
  8.50000000E-01  7.20000000E-01  8.50000000E-01  7.20000000E-01  8.50000000E-01
  7.20000000E-01  8.50000000E-01  8.50000000E-01  7.20000000E-01  8.50000000E-01
  8.50000000E-01  7.20000000E-01  8.50000000E-01  8.50000000E-01  8.50000000E-01
  8.50000000E-01  8.50000000E-01  7.20000000E-01  7.20000000E-01  8.50000000E-01
  8.50000000E-01  8.50000000E-01  7.20000000E-01  8.50000000E-01  8.50000000E-01
  8.50000000E-01  8.50000000E-01  9.60000000E-01  7.20000000E-01  7.20000000E-01
  7.20000000E-01  7.20000000E-01  7.20000000E-01  9.60000000E-01  7.20000000E-01
  7.20000000E-01  8.50000000E-01  7.20000000E-01  7.20000000E-01  7.20000000E-01
  7.20000000E-01  7.20000000E-01  8.50000000E-01  7.20000000E-01  7.20000000E-01
  8.50000000E-01  8.50000000E-01  7.20000000E-01  8.50000000E-01  8.50000000E-01
  7.20000000E-01  8.50000000E-01  8.50000000E-01  7.20000000E-01  8.50000000E-01
  8.50000000E-01  7.20000000E-01  7.20000000E-01  8.50000000E-01  8.50000000E-01
  7.20000000E-01  7.20000000E-01  7.20000000E-01  8.50000000E-01  8.50000000E-01
  7.20000000E-01  8.50000000E-01  7.20000000E-01  8.50000000E-01  7.20000000E-01
  8.50000000E-01  8.50000000E-01  7.20000000E-01  8.50000000E-01  8.50000000E-01
  7.20000000E-01  8.50000000E-01  8.50000000E-01  8.50000000E-01  8.50000000E-01
  8.50000000E-01  7.20000000E-01  7.20000000E-01  8.50000000E-01  8.50000000E-01
  8.50000000E-01  7.20000000E-01  8.50000000E-01  8.50000000E-01  8.50000000E-01
  8.50000000E-01  9.60000000E-01  7.20000000E-01  7.20000000E-01  7.20000000E-01
  7.20000000E-01  7.20000000E-01  9.60000000E-01  7.20000000E-01  7.20000000E-01
  8.50000000E-01  7.20000000E-01  7.20000000E-01  7.20000000E-01  7.20000000E-01
  7.20000000E-01  8.50000000E-01  7.20000000E-01  7.20000000E-01  8.50000000E-01
  8.50000000E-01  7.20000000E-01  8.50000000E-01  8.50000000E-01  7.20000000E-01
  8.50000000E-01  8.50000000E-01  7.20000000E-01  8.50000000E-01  8.50000000E-01
  7.20000000E-01  7.20000000E-01  8.50000000E-01  8.50000000E-01  7.20000000E-01
  7.20000000E-01  7.20000000E-01  8.50000000E-01  8.50000000E-01  7.20000000E-01
  8.50000000E-01  7.20000000E-01  8.50000000E-01  7.20000000E-01  8.50000000E-01
  8.50000000E-01  7.20000000E-01  8.50000000E-01  8.50000000E-01  7.20000000E-01
  8.50000000E-01  8.50000000E-01  8.50000000E-01  8.50000000E-01  8.50000000E-01
  7.20000000E-01  7.20000000E-01  8.50000000E-01  8.50000000E-01  8.50000000E-01
  7.20000000E-01  8.50000000E-01  8.50000000E-01  8.50000000E-01  8.50000000E-01
  9.60000000E-01  7.20000000E-01  7.20000000E-01  7.20000000E-01  7.20000000E-01
  7.20000000E-01  9.60000000E-01  7.20000000E-01  7.20000000E-01  8.50000000E-01
  7.20000000E-01  7.20000000E-01  7.20000000E-01  7.20000000E-01  7.20000000E-01
  8.50000000E-01  7.20000000E-01  7.20000000E-01  8.50000000E-01  8.50000000E-01
  7.20000000E-01  8.50000000E-01  8.50000000E-01  7.20000000E-01  8.50000000E-01
  8.50000000E-01  7.20000000E-01  8.50000000E-01  8.50000000E-01  7.20000000E-01
  7.20000000E-01  8.50000000E-01  8.50000000E-01  7.20000000E-01  7.20000000E-01
  7.20000000E-01  8.50000000E-01  8.50000000E-01  7.20000000E-01  8.50000000E-01
  7.20000000E-01  8.50000000E-01  7.20000000E-01  8.50000000E-01  8.50000000E-01
  7.20000000E-01  8.50000000E-01  8.50000000E-01  7.20000000E-01  8.50000000E-01
  8.50000000E-01  8.50000000E-01  8.50000000E-01  8.50000000E-01  7.20000000E-01
  7.20000000E-01  8.50000000E-01  8.50000000E-01  8.50000000E-01  7.20000000E-01
  8.50000000E-01  8.50000000E-01  8.50000000E-01  8.50000000E-01  9.60000000E-01
  7.20000000E-01  7.20000000E-01  7.20000000E-01  7.20000000E-01  7.20000000E-01
  9.60000000E-01  7.20000000E-01  7.20000000E-01  8.50000000E-01  7.20000000E-01
  7.20000000E-01  7.20000000E-01  7.20000000E-01  7.20000000E-01  8.50000000E-01
  7.20000000E-01  7.20000000E-01  8.50000000E-01  8.50000000E-01  7.20000000E-01
  8.50000000E-01  8.50000000E-01  7.20000000E-01  8.50000000E-01  8.50000000E-01
  7.20000000E-01  8.50000000E-01  8.50000000E-01  7.20000000E-01  7.20000000E-01
  8.50000000E-01  8.50000000E-01  7.20000000E-01  7.20000000E-01  7.20000000E-01
  8.50000000E-01  8.50000000E-01  7.20000000E-01  8.50000000E-01  7.20000000E-01
  8.50000000E-01  7.20000000E-01  8.50000000E-01  8.50000000E-01  7.20000000E-01
  8.50000000E-01  8.50000000E-01  7.20000000E-01  8.50000000E-01  8.50000000E-01
  8.50000000E-01  8.50000000E-01  8.50000000E-01  7.20000000E-01  7.20000000E-01
  8.50000000E-01  8.50000000E-01  8.50000000E-01  7.20000000E-01  8.50000000E-01
  8.50000000E-01  8.50000000E-01  8.50000000E-01  9.60000000E-01  7.20000000E-01
  7.20000000E-01  7.20000000E-01  7.20000000E-01  7.20000000E-01  9.60000000E-01
  7.20000000E-01  7.20000000E-01  8.50000000E-01  7.20000000E-01  7.20000000E-01
  7.20000000E-01  7.20000000E-01  7.20000000E-01  8.50000000E-01  7.20000000E-01
  7.20000000E-01  8.50000000E-01  8.50000000E-01  7.20000000E-01  8.50000000E-01
  8.50000000E-01  7.20000000E-01  8.50000000E-01  8.50000000E-01  7.20000000E-01
  8.50000000E-01  8.50000000E-01  7.20000000E-01  7.20000000E-01  8.50000000E-01
  8.50000000E-01  7.20000000E-01  7.20000000E-01  7.20000000E-01  8.50000000E-01
  8.50000000E-01  7.20000000E-01  8.50000000E-01  7.20000000E-01  8.50000000E-01
  7.20000000E-01  8.50000000E-01  8.50000000E-01  7.20000000E-01  8.50000000E-01
  8.50000000E-01  7.20000000E-01  8.50000000E-01  8.50000000E-01  8.50000000E-01
  8.50000000E-01  8.50000000E-01  7.20000000E-01  7.20000000E-01  8.50000000E-01
  8.50000000E-01  8.50000000E-01  7.20000000E-01  8.50000000E-01  8.50000000E-01
  8.50000000E-01  8.50000000E-01  9.60000000E-01  7.20000000E-01  7.20000000E-01
  7.20000000E-01  7.20000000E-01  7.20000000E-01  9.60000000E-01  7.20000000E-01
  7.20000000E-01  8.50000000E-01  7.20000000E-01  7.20000000E-01  7.20000000E-01
  7.20000000E-01  7.20000000E-01  8.50000000E-01  7.20000000E-01  7.20000000E-01
  8.50000000E-01  8.50000000E-01  7.20000000E-01  8.50000000E-01  8.50000000E-01
  7.20000000E-01  8.50000000E-01  8.50000000E-01  7.20000000E-01  8.50000000E-01
  8.50000000E-01  7.20000000E-01  7.20000000E-01  8.50000000E-01  8.50000000E-01
  7.20000000E-01  7.20000000E-01  7.20000000E-01  8.50000000E-01  8.50000000E-01
  7.20000000E-01  8.50000000E-01  7.20000000E-01  8.50000000E-01  7.20000000E-01
  8.50000000E-01  8.50000000E-01  7.20000000E-01  8.50000000E-01  8.50000000E-01
  7.20000000E-01  8.50000000E-01  8.50000000E-01  8.50000000E-01  8.50000000E-01
  8.50000000E-01  7.20000000E-01  7.20000000E-01  8.50000000E-01  8.50000000E-01
  8.50000000E-01  7.20000000E-01  8.50000000E-01  8.50000000E-01  8.50000000E-01
  8.50000000E-01  9.60000000E-01  7.20000000E-01  7.20000000E-01  7.20000000E-01
  7.20000000E-01  7.20000000E-01  9.60000000E-01  7.20000000E-01  7.20000000E-01
  8.50000000E-01  7.20000000E-01  7.20000000E-01  7.20000000E-01  7.20000000E-01
  7.20000000E-01  8.50000000E-01  7.20000000E-01  7.20000000E-01  8.50000000E-01
  8.50000000E-01  7.20000000E-01  8.50000000E-01  8.50000000E-01  7.20000000E-01
  8.50000000E-01  8.50000000E-01  7.20000000E-01  8.50000000E-01  8.50000000E-01
  7.20000000E-01  7.20000000E-01  8.50000000E-01  8.50000000E-01  7.20000000E-01
  7.20000000E-01  7.20000000E-01  8.50000000E-01  8.50000000E-01  7.20000000E-01
  8.50000000E-01  7.20000000E-01  8.50000000E-01  7.20000000E-01  8.50000000E-01
  8.50000000E-01  7.20000000E-01  8.50000000E-01  8.50000000E-01  7.20000000E-01
  8.50000000E-01  8.50000000E-01  8.50000000E-01  8.50000000E-01  8.50000000E-01
  7.20000000E-01  7.20000000E-01  8.50000000E-01  8.50000000E-01  8.50000000E-01
  7.20000000E-01  8.50000000E-01  8.50000000E-01  8.50000000E-01  8.50000000E-01
  9.60000000E-01  7.20000000E-01  7.20000000E-01  7.20000000E-01  7.20000000E-01
  7.20000000E-01  9.60000000E-01  7.20000000E-01  7.20000000E-01  8.50000000E-01
  7.20000000E-01  7.20000000E-01  7.20000000E-01  7.20000000E-01  7.20000000E-01
  8.50000000E-01  7.20000000E-01  7.20000000E-01  8.50000000E-01  8.50000000E-01
  7.20000000E-01  8.50000000E-01  8.50000000E-01  7.20000000E-01  8.50000000E-01
  8.50000000E-01  7.20000000E-01  8.50000000E-01  8.50000000E-01  7.20000000E-01
  7.20000000E-01  8.50000000E-01  8.50000000E-01  7.20000000E-01  7.20000000E-01
  7.20000000E-01  8.50000000E-01  8.50000000E-01  7.20000000E-01  8.50000000E-01
  7.20000000E-01  8.50000000E-01  7.20000000E-01  8.50000000E-01  8.50000000E-01
  7.20000000E-01  8.50000000E-01  8.50000000E-01  7.20000000E-01  8.50000000E-01
  8.50000000E-01  8.50000000E-01  8.50000000E-01  8.50000000E-01  7.20000000E-01
  7.20000000E-01  8.50000000E-01  8.50000000E-01  8.50000000E-01  7.20000000E-01
  8.50000000E-01  8.50000000E-01  8.50000000E-01  8.50000000E-01  9.60000000E-01
  7.20000000E-01  7.20000000E-01  7.20000000E-01  7.20000000E-01  7.20000000E-01
  9.60000000E-01  7.20000000E-01  7.20000000E-01  8.50000000E-01  7.20000000E-01
  7.20000000E-01  7.20000000E-01  7.20000000E-01  7.20000000E-01  8.50000000E-01
  7.20000000E-01  7.20000000E-01  8.50000000E-01  8.50000000E-01  7.20000000E-01
  8.50000000E-01  8.50000000E-01  7.20000000E-01  8.50000000E-01  8.50000000E-01
  7.20000000E-01  8.50000000E-01  8.50000000E-01  7.20000000E-01  7.20000000E-01
  8.50000000E-01  8.50000000E-01  7.20000000E-01  7.20000000E-01  7.20000000E-01
  8.50000000E-01  8.50000000E-01  7.20000000E-01  8.50000000E-01  7.20000000E-01
  8.50000000E-01  7.20000000E-01  8.50000000E-01  8.50000000E-01  7.20000000E-01
  8.50000000E-01  8.50000000E-01  7.20000000E-01  8.50000000E-01  8.50000000E-01
  8.50000000E-01  8.50000000E-01  8.50000000E-01  7.20000000E-01  7.20000000E-01
  8.50000000E-01  8.50000000E-01  8.50000000E-01  7.20000000E-01  8.50000000E-01
  8.50000000E-01  8.50000000E-01  8.50000000E-01  9.60000000E-01  7.20000000E-01
  7.20000000E-01  7.20000000E-01  7.20000000E-01  7.20000000E-01  9.60000000E-01
  7.20000000E-01  7.20000000E-01  8.50000000E-01  7.20000000E-01  7.20000000E-01
  7.20000000E-01  7.20000000E-01  7.20000000E-01  8.50000000E-01  7.20000000E-01
  7.20000000E-01  8.50000000E-01  8.50000000E-01  7.20000000E-01  8.50000000E-01
  8.50000000E-01  7.20000000E-01  8.50000000E-01  8.50000000E-01  7.20000000E-01
  8.50000000E-01  8.50000000E-01  7.20000000E-01  7.20000000E-01  8.50000000E-01
  8.50000000E-01  7.20000000E-01  7.20000000E-01  7.20000000E-01  8.50000000E-01
  8.50000000E-01  7.20000000E-01  8.50000000E-01  7.20000000E-01  8.50000000E-01
  7.20000000E-01  8.50000000E-01  8.50000000E-01  7.20000000E-01  8.50000000E-01
  8.50000000E-01  7.20000000E-01  8.50000000E-01  8.50000000E-01  8.50000000E-01
  8.50000000E-01  8.50000000E-01  7.20000000E-01  7.20000000E-01  8.50000000E-01
  8.50000000E-01  8.50000000E-01  7.20000000E-01  8.50000000E-01  8.50000000E-01
  8.50000000E-01  8.50000000E-01  9.60000000E-01  7.20000000E-01  7.20000000E-01
  7.20000000E-01  7.20000000E-01  7.20000000E-01  9.60000000E-01  7.20000000E-01
  7.20000000E-01  8.50000000E-01  7.20000000E-01  7.20000000E-01  7.20000000E-01
  7.20000000E-01  7.20000000E-01  8.50000000E-01  7.20000000E-01  7.20000000E-01
  8.50000000E-01  8.50000000E-01  7.20000000E-01  8.50000000E-01  8.50000000E-01
  7.20000000E-01  8.50000000E-01  8.50000000E-01  7.20000000E-01  8.50000000E-01
  8.50000000E-01  7.20000000E-01  7.20000000E-01  8.50000000E-01  8.50000000E-01
  7.20000000E-01  7.20000000E-01  7.20000000E-01  8.50000000E-01  8.50000000E-01
  7.20000000E-01  8.50000000E-01  7.20000000E-01  8.50000000E-01  7.20000000E-01
  8.50000000E-01  8.50000000E-01  7.20000000E-01  8.50000000E-01  8.50000000E-01
  7.20000000E-01  8.50000000E-01  8.50000000E-01  8.50000000E-01  8.50000000E-01
  8.50000000E-01  7.20000000E-01  7.20000000E-01  8.50000000E-01  8.50000000E-01
  8.50000000E-01  7.20000000E-01  8.50000000E-01  8.50000000E-01  8.50000000E-01
  8.50000000E-01  9.60000000E-01  7.20000000E-01  7.20000000E-01  7.20000000E-01
  7.20000000E-01  7.20000000E-01  9.60000000E-01  7.20000000E-01  7.20000000E-01
  8.50000000E-01  7.20000000E-01  7.20000000E-01  7.20000000E-01  7.20000000E-01
  7.20000000E-01  8.50000000E-01  7.20000000E-01  7.20000000E-01  8.50000000E-01
  8.50000000E-01  7.20000000E-01  8.50000000E-01  8.50000000E-01  7.20000000E-01
  8.50000000E-01  8.50000000E-01  7.20000000E-01  8.50000000E-01  8.50000000E-01
  7.20000000E-01  7.20000000E-01  8.50000000E-01  8.50000000E-01  7.20000000E-01
  7.20000000E-01  7.20000000E-01  8.50000000E-01  8.50000000E-01  7.20000000E-01
  8.50000000E-01  7.20000000E-01  8.50000000E-01  7.20000000E-01  8.50000000E-01
  8.50000000E-01  7.20000000E-01  8.50000000E-01  8.50000000E-01  7.20000000E-01
  8.50000000E-01  8.50000000E-01  8.50000000E-01  8.50000000E-01  8.50000000E-01
  7.20000000E-01  7.20000000E-01  8.50000000E-01  8.50000000E-01  8.50000000E-01
  7.20000000E-01  8.50000000E-01  8.50000000E-01  8.50000000E-01  8.50000000E-01
  9.60000000E-01  7.20000000E-01  7.20000000E-01  7.20000000E-01  7.20000000E-01
  7.20000000E-01  9.60000000E-01  7.20000000E-01  7.20000000E-01  8.50000000E-01
  7.20000000E-01  7.20000000E-01  7.20000000E-01  7.20000000E-01  7.20000000E-01
  8.50000000E-01  7.20000000E-01  7.20000000E-01  8.50000000E-01  8.50000000E-01
  7.20000000E-01  8.50000000E-01  8.50000000E-01  7.20000000E-01  8.50000000E-01
  8.50000000E-01  7.20000000E-01  8.50000000E-01  8.50000000E-01  7.20000000E-01
  7.20000000E-01  8.50000000E-01  8.50000000E-01  7.20000000E-01  7.20000000E-01
  7.20000000E-01  8.50000000E-01  8.50000000E-01  7.20000000E-01  8.50000000E-01
  7.20000000E-01  8.50000000E-01  7.20000000E-01  8.50000000E-01  8.50000000E-01
  7.20000000E-01  8.50000000E-01  8.50000000E-01  7.20000000E-01  8.50000000E-01
  8.50000000E-01  8.50000000E-01  8.50000000E-01  8.50000000E-01  7.20000000E-01
  7.20000000E-01  8.50000000E-01  8.50000000E-01  8.50000000E-01  7.20000000E-01
  8.50000000E-01  8.50000000E-01  8.50000000E-01  8.50000000E-01  9.60000000E-01
  7.20000000E-01  7.20000000E-01  7.20000000E-01  7.20000000E-01  7.20000000E-01
  9.60000000E-01  7.20000000E-01  7.20000000E-01  8.50000000E-01  7.20000000E-01
  7.20000000E-01  7.20000000E-01  7.20000000E-01  7.20000000E-01  8.50000000E-01
  7.20000000E-01  7.20000000E-01  8.50000000E-01  8.50000000E-01  7.20000000E-01
  8.50000000E-01  8.50000000E-01  7.20000000E-01  8.50000000E-01  8.50000000E-01
  7.20000000E-01  8.50000000E-01  8.50000000E-01  7.20000000E-01  7.20000000E-01
  8.50000000E-01  8.50000000E-01  7.20000000E-01  7.20000000E-01  7.20000000E-01
  8.50000000E-01  8.50000000E-01  7.20000000E-01  8.50000000E-01  7.20000000E-01
  8.50000000E-01  7.20000000E-01  8.50000000E-01  8.50000000E-01  7.20000000E-01
  8.50000000E-01  8.50000000E-01  7.20000000E-01  8.50000000E-01  8.50000000E-01
  8.50000000E-01  8.50000000E-01  8.50000000E-01  7.20000000E-01  7.20000000E-01
  8.50000000E-01  8.50000000E-01  8.50000000E-01  7.20000000E-01  8.50000000E-01
  8.50000000E-01  8.50000000E-01  8.50000000E-01  9.60000000E-01  7.20000000E-01
  7.20000000E-01  7.20000000E-01  7.20000000E-01  7.20000000E-01  9.60000000E-01
  7.20000000E-01  7.20000000E-01  8.50000000E-01  7.20000000E-01  7.20000000E-01
  7.20000000E-01  7.20000000E-01  7.20000000E-01  8.50000000E-01  7.20000000E-01
  7.20000000E-01  8.50000000E-01  8.50000000E-01  7.20000000E-01  8.50000000E-01
  8.50000000E-01  7.20000000E-01  8.50000000E-01  8.50000000E-01  7.20000000E-01
  8.50000000E-01  8.50000000E-01  7.20000000E-01  7.20000000E-01  8.50000000E-01
  8.50000000E-01  7.20000000E-01  7.20000000E-01  7.20000000E-01  8.50000000E-01
  8.50000000E-01  7.20000000E-01  8.50000000E-01  7.20000000E-01  8.50000000E-01
  7.20000000E-01  8.50000000E-01  8.50000000E-01  7.20000000E-01  8.50000000E-01
  8.50000000E-01  7.20000000E-01  8.50000000E-01  8.50000000E-01  8.50000000E-01
  8.50000000E-01  8.50000000E-01  7.20000000E-01  7.20000000E-01  8.50000000E-01
  8.50000000E-01  8.50000000E-01  7.20000000E-01  8.50000000E-01  8.50000000E-01
  8.50000000E-01  8.50000000E-01  9.60000000E-01  7.20000000E-01  7.20000000E-01
  7.20000000E-01  7.20000000E-01  7.20000000E-01  9.60000000E-01  7.20000000E-01
  7.20000000E-01  8.50000000E-01  7.20000000E-01  7.20000000E-01  7.20000000E-01
  7.20000000E-01  7.20000000E-01  8.50000000E-01  7.20000000E-01  7.20000000E-01
  8.50000000E-01  8.50000000E-01  7.20000000E-01  8.50000000E-01  8.50000000E-01
  7.20000000E-01  8.50000000E-01  8.50000000E-01  7.20000000E-01  8.50000000E-01
  8.50000000E-01  7.20000000E-01  7.20000000E-01  8.50000000E-01  8.50000000E-01
  7.20000000E-01  7.20000000E-01  7.20000000E-01  8.50000000E-01  8.50000000E-01
  7.20000000E-01  8.50000000E-01  7.20000000E-01  8.50000000E-01  7.20000000E-01
  8.50000000E-01  8.50000000E-01  7.20000000E-01  8.50000000E-01  8.50000000E-01
  7.20000000E-01  8.50000000E-01  8.50000000E-01  8.50000000E-01  8.50000000E-01
  8.50000000E-01  7.20000000E-01  7.20000000E-01  8.50000000E-01  8.50000000E-01
  8.50000000E-01  7.20000000E-01  8.50000000E-01  8.50000000E-01  8.50000000E-01
  8.50000000E-01  9.60000000E-01  7.20000000E-01  7.20000000E-01  7.20000000E-01
  7.20000000E-01  7.20000000E-01  9.60000000E-01  7.20000000E-01  7.20000000E-01
  8.50000000E-01  7.20000000E-01  7.20000000E-01  7.20000000E-01  7.20000000E-01
  7.20000000E-01  8.50000000E-01  7.20000000E-01  7.20000000E-01  8.50000000E-01
  8.50000000E-01  7.20000000E-01  8.50000000E-01  8.50000000E-01  7.20000000E-01
  8.50000000E-01  8.50000000E-01  7.20000000E-01  8.50000000E-01  8.50000000E-01
  7.20000000E-01  7.20000000E-01  8.50000000E-01  8.50000000E-01  7.20000000E-01
  7.20000000E-01  7.20000000E-01  8.50000000E-01  8.50000000E-01  7.20000000E-01
  8.50000000E-01  7.20000000E-01  8.50000000E-01  7.20000000E-01  8.50000000E-01
  8.50000000E-01  7.20000000E-01  8.50000000E-01  8.50000000E-01  7.20000000E-01
  8.50000000E-01  8.50000000E-01  8.50000000E-01  8.50000000E-01  8.50000000E-01
  7.20000000E-01  7.20000000E-01  8.50000000E-01  8.50000000E-01  8.50000000E-01
  7.20000000E-01  8.50000000E-01  8.50000000E-01  8.50000000E-01  8.50000000E-01
  9.60000000E-01  7.20000000E-01  7.20000000E-01  7.20000000E-01  7.20000000E-01
  7.20000000E-01  9.60000000E-01  7.20000000E-01  7.20000000E-01  8.50000000E-01
  7.20000000E-01  7.20000000E-01  7.20000000E-01  7.20000000E-01  7.20000000E-01
  8.50000000E-01  7.20000000E-01  7.20000000E-01  8.50000000E-01  8.50000000E-01
  7.20000000E-01  8.50000000E-01  8.50000000E-01  7.20000000E-01  8.50000000E-01
  8.50000000E-01  7.20000000E-01  8.50000000E-01  8.50000000E-01  7.20000000E-01
  7.20000000E-01  8.50000000E-01  8.50000000E-01  7.20000000E-01  7.20000000E-01
  7.20000000E-01  8.50000000E-01  8.50000000E-01  7.20000000E-01  8.50000000E-01
  7.20000000E-01  8.50000000E-01  7.20000000E-01  8.50000000E-01  8.50000000E-01
  7.20000000E-01  8.50000000E-01  8.50000000E-01  7.20000000E-01  8.50000000E-01
  8.50000000E-01  8.50000000E-01  8.50000000E-01  8.50000000E-01  7.20000000E-01
  7.20000000E-01  8.50000000E-01  8.50000000E-01  8.50000000E-01  7.20000000E-01
  8.50000000E-01  8.50000000E-01  8.50000000E-01  8.50000000E-01  9.60000000E-01
  7.20000000E-01  7.20000000E-01  7.20000000E-01  7.20000000E-01  7.20000000E-01
  9.60000000E-01  7.20000000E-01  7.20000000E-01  8.50000000E-01  7.20000000E-01
  7.20000000E-01  7.20000000E-01  7.20000000E-01  7.20000000E-01  8.50000000E-01
  7.20000000E-01  7.20000000E-01  8.50000000E-01  8.50000000E-01  7.20000000E-01
  8.50000000E-01  8.50000000E-01  7.20000000E-01  8.50000000E-01  8.50000000E-01
  7.20000000E-01  8.50000000E-01  8.50000000E-01  7.20000000E-01  7.20000000E-01
  8.50000000E-01  8.50000000E-01  7.20000000E-01  7.20000000E-01  7.20000000E-01
  8.50000000E-01  8.50000000E-01  7.20000000E-01  8.50000000E-01  7.20000000E-01
  8.50000000E-01  7.20000000E-01  8.50000000E-01  8.50000000E-01  7.20000000E-01
  8.50000000E-01  8.50000000E-01  7.20000000E-01  8.50000000E-01  8.50000000E-01
  8.50000000E-01  8.50000000E-01  8.50000000E-01  7.20000000E-01  7.20000000E-01
  8.50000000E-01  8.50000000E-01  8.50000000E-01  7.20000000E-01  8.50000000E-01
  8.50000000E-01  8.50000000E-01  8.50000000E-01  9.60000000E-01  7.20000000E-01
  7.20000000E-01  7.20000000E-01  7.20000000E-01  7.20000000E-01  9.60000000E-01
  7.20000000E-01  7.20000000E-01  8.50000000E-01  7.20000000E-01  7.20000000E-01
  7.20000000E-01  7.20000000E-01  7.20000000E-01  8.50000000E-01  7.20000000E-01
  7.20000000E-01  8.50000000E-01  8.50000000E-01  7.20000000E-01  8.50000000E-01
  8.50000000E-01  7.20000000E-01  8.50000000E-01  8.50000000E-01  7.20000000E-01
  8.50000000E-01  8.50000000E-01  7.20000000E-01  7.20000000E-01  8.50000000E-01
  8.50000000E-01  7.20000000E-01  7.20000000E-01  7.20000000E-01  8.50000000E-01
  8.50000000E-01  7.20000000E-01  8.50000000E-01  7.20000000E-01  8.50000000E-01
  7.20000000E-01  8.50000000E-01  8.50000000E-01  7.20000000E-01  8.50000000E-01
  8.50000000E-01  7.20000000E-01  8.50000000E-01  8.50000000E-01  8.50000000E-01
  8.50000000E-01  8.50000000E-01  7.20000000E-01  7.20000000E-01  8.50000000E-01
  8.50000000E-01  8.50000000E-01  7.20000000E-01  8.50000000E-01  8.50000000E-01
  8.50000000E-01  8.50000000E-01  9.60000000E-01  7.20000000E-01  7.20000000E-01
  7.20000000E-01  7.20000000E-01  7.20000000E-01  9.60000000E-01  7.20000000E-01
  7.20000000E-01  8.50000000E-01  7.20000000E-01  7.20000000E-01  7.20000000E-01
  7.20000000E-01  7.20000000E-01  8.50000000E-01  7.20000000E-01  7.20000000E-01
  8.50000000E-01  8.50000000E-01  7.20000000E-01  8.50000000E-01  8.50000000E-01
  7.20000000E-01  8.50000000E-01  8.50000000E-01  7.20000000E-01  8.50000000E-01
  8.50000000E-01  7.20000000E-01  7.20000000E-01  8.50000000E-01  8.50000000E-01
  7.20000000E-01  7.20000000E-01  7.20000000E-01  8.50000000E-01  8.50000000E-01
  7.20000000E-01  8.50000000E-01  7.20000000E-01  8.50000000E-01  7.20000000E-01
  8.50000000E-01  8.50000000E-01  7.20000000E-01  8.50000000E-01  8.50000000E-01
  7.20000000E-01  8.50000000E-01  8.50000000E-01  8.50000000E-01  8.50000000E-01
  8.50000000E-01  7.20000000E-01  7.20000000E-01  8.50000000E-01  8.50000000E-01
  8.50000000E-01  7.20000000E-01  8.50000000E-01  8.50000000E-01  8.50000000E-01
  8.50000000E-01  9.60000000E-01  7.20000000E-01  7.20000000E-01  7.20000000E-01
  7.20000000E-01  7.20000000E-01  9.60000000E-01  7.20000000E-01  7.20000000E-01
  8.50000000E-01  7.20000000E-01  7.20000000E-01  7.20000000E-01  7.20000000E-01
  7.20000000E-01  8.50000000E-01  7.20000000E-01  7.20000000E-01  8.50000000E-01
  8.50000000E-01  7.20000000E-01  8.50000000E-01  8.50000000E-01  7.20000000E-01
  8.50000000E-01  8.50000000E-01  7.20000000E-01  8.50000000E-01  8.50000000E-01
  7.20000000E-01  7.20000000E-01  8.50000000E-01  8.50000000E-01  7.20000000E-01
  7.20000000E-01  7.20000000E-01  8.50000000E-01  8.50000000E-01  7.20000000E-01
  8.50000000E-01  7.20000000E-01  8.50000000E-01  7.20000000E-01  8.50000000E-01
  8.50000000E-01  7.20000000E-01  8.50000000E-01  8.50000000E-01  7.20000000E-01
  8.50000000E-01  8.50000000E-01  8.50000000E-01  8.50000000E-01  8.50000000E-01
  7.20000000E-01  7.20000000E-01  8.50000000E-01  8.50000000E-01  8.50000000E-01
  7.20000000E-01  8.50000000E-01  8.50000000E-01  8.50000000E-01  8.50000000E-01
  9.60000000E-01  7.20000000E-01  7.20000000E-01  7.20000000E-01  7.20000000E-01
  7.20000000E-01  9.60000000E-01  7.20000000E-01  7.20000000E-01  8.50000000E-01
  7.20000000E-01  7.20000000E-01  7.20000000E-01  7.20000000E-01  7.20000000E-01
  8.50000000E-01  7.20000000E-01  7.20000000E-01  8.50000000E-01  8.50000000E-01
  7.20000000E-01  8.50000000E-01  8.50000000E-01  7.20000000E-01  8.50000000E-01
  8.50000000E-01  7.20000000E-01  8.50000000E-01  8.50000000E-01  7.20000000E-01
  7.20000000E-01  8.50000000E-01  8.50000000E-01  7.20000000E-01  7.20000000E-01
  7.20000000E-01  8.50000000E-01  8.50000000E-01  7.20000000E-01  8.50000000E-01
  7.20000000E-01  8.50000000E-01  7.20000000E-01  8.50000000E-01  8.50000000E-01
  7.20000000E-01  8.50000000E-01  8.50000000E-01  7.20000000E-01  8.50000000E-01
  8.50000000E-01  8.50000000E-01  8.50000000E-01  8.50000000E-01  7.20000000E-01
  7.20000000E-01  8.50000000E-01  8.50000000E-01  8.50000000E-01  7.20000000E-01
  8.50000000E-01  8.50000000E-01  8.50000000E-01  8.50000000E-01  9.60000000E-01
  7.20000000E-01  7.20000000E-01  7.20000000E-01  7.20000000E-01  7.20000000E-01
  9.60000000E-01  7.20000000E-01  7.20000000E-01  8.50000000E-01  7.20000000E-01
  7.20000000E-01  7.20000000E-01  7.20000000E-01  7.20000000E-01  8.50000000E-01
  7.20000000E-01  7.20000000E-01  8.50000000E-01  8.50000000E-01  7.20000000E-01
  8.50000000E-01  8.50000000E-01  7.20000000E-01  8.50000000E-01  8.50000000E-01
  7.20000000E-01  8.50000000E-01  8.50000000E-01  7.20000000E-01  7.20000000E-01
  8.50000000E-01  8.50000000E-01  7.20000000E-01  7.20000000E-01  7.20000000E-01
  8.50000000E-01  8.50000000E-01  7.20000000E-01  8.50000000E-01  7.20000000E-01
  8.50000000E-01  7.20000000E-01  8.50000000E-01  8.50000000E-01  7.20000000E-01
  8.50000000E-01  8.50000000E-01  7.20000000E-01  8.50000000E-01  8.50000000E-01
  8.50000000E-01  8.50000000E-01  8.50000000E-01  7.20000000E-01  7.20000000E-01
  8.50000000E-01  8.50000000E-01  8.50000000E-01  7.20000000E-01  8.50000000E-01
  8.50000000E-01  8.50000000E-01  8.50000000E-01  9.60000000E-01  7.20000000E-01
  7.20000000E-01  7.20000000E-01  7.20000000E-01  7.20000000E-01  9.60000000E-01
  7.20000000E-01  7.20000000E-01  8.50000000E-01  7.20000000E-01  7.20000000E-01
  7.20000000E-01  7.20000000E-01  7.20000000E-01  8.50000000E-01  7.20000000E-01
  7.20000000E-01  8.50000000E-01  8.50000000E-01  7.20000000E-01  8.50000000E-01
  8.50000000E-01  7.20000000E-01  8.50000000E-01  8.50000000E-01  7.20000000E-01
  8.50000000E-01  8.50000000E-01  7.20000000E-01  7.20000000E-01  8.50000000E-01
  8.50000000E-01  7.20000000E-01  7.20000000E-01  7.20000000E-01  8.50000000E-01
  8.50000000E-01  7.20000000E-01  8.50000000E-01  7.20000000E-01  8.50000000E-01
  7.20000000E-01  8.50000000E-01  8.50000000E-01  7.20000000E-01  8.50000000E-01
  8.50000000E-01  7.20000000E-01  8.50000000E-01  8.50000000E-01  8.50000000E-01
  8.50000000E-01  8.50000000E-01  7.20000000E-01  7.20000000E-01  8.50000000E-01
  8.50000000E-01  8.50000000E-01  7.20000000E-01  8.50000000E-01  8.50000000E-01
  8.50000000E-01  8.50000000E-01  9.60000000E-01  7.20000000E-01  7.20000000E-01
  7.20000000E-01  7.20000000E-01  7.20000000E-01  9.60000000E-01  7.20000000E-01
  7.20000000E-01  8.50000000E-01  7.20000000E-01  7.20000000E-01  7.20000000E-01
  7.20000000E-01  7.20000000E-01  8.50000000E-01  7.20000000E-01  7.20000000E-01
  8.50000000E-01  8.50000000E-01  7.20000000E-01  8.50000000E-01  8.50000000E-01
  7.20000000E-01  8.50000000E-01  8.50000000E-01  7.20000000E-01  8.50000000E-01
  8.50000000E-01  7.20000000E-01  7.20000000E-01  8.50000000E-01  8.50000000E-01
  7.20000000E-01  7.20000000E-01  7.20000000E-01  8.50000000E-01  8.50000000E-01
  7.20000000E-01  8.50000000E-01  7.20000000E-01  8.50000000E-01  7.20000000E-01
  8.50000000E-01  8.50000000E-01  7.20000000E-01  8.50000000E-01  8.50000000E-01
  7.20000000E-01  8.50000000E-01  8.50000000E-01  8.50000000E-01  8.50000000E-01
  8.50000000E-01  7.20000000E-01  7.20000000E-01  8.50000000E-01  8.50000000E-01
  8.50000000E-01  7.20000000E-01  8.50000000E-01  8.50000000E-01  8.50000000E-01
  8.50000000E-01  9.60000000E-01  7.20000000E-01  7.20000000E-01  7.20000000E-01
  7.20000000E-01  7.20000000E-01  9.60000000E-01  7.20000000E-01  7.20000000E-01
  8.50000000E-01  7.20000000E-01  7.20000000E-01  7.20000000E-01  7.20000000E-01
  7.20000000E-01  8.50000000E-01  7.20000000E-01  7.20000000E-01  8.50000000E-01
  8.50000000E-01  7.20000000E-01  8.50000000E-01  8.50000000E-01  7.20000000E-01
  8.50000000E-01  8.50000000E-01  7.20000000E-01  8.50000000E-01  8.50000000E-01
  7.20000000E-01  7.20000000E-01  8.50000000E-01  8.50000000E-01  7.20000000E-01
  7.20000000E-01  7.20000000E-01  8.50000000E-01  8.50000000E-01  7.20000000E-01
  8.50000000E-01  7.20000000E-01  8.50000000E-01  7.20000000E-01  8.50000000E-01
  8.50000000E-01  7.20000000E-01  8.50000000E-01  8.50000000E-01  7.20000000E-01
  8.50000000E-01  8.50000000E-01  8.50000000E-01  8.50000000E-01  8.50000000E-01
  7.20000000E-01  7.20000000E-01  8.50000000E-01  8.50000000E-01  8.50000000E-01
  7.20000000E-01  8.50000000E-01  8.50000000E-01  8.50000000E-01  8.50000000E-01
  9.60000000E-01  7.20000000E-01  7.20000000E-01  7.20000000E-01  7.20000000E-01
  7.20000000E-01  9.60000000E-01  7.20000000E-01  7.20000000E-01  8.50000000E-01
  7.20000000E-01  7.20000000E-01  7.20000000E-01  7.20000000E-01  7.20000000E-01
  8.50000000E-01  7.20000000E-01  7.20000000E-01  8.50000000E-01  8.50000000E-01
  7.20000000E-01  8.50000000E-01  8.50000000E-01  7.20000000E-01  8.50000000E-01
  8.50000000E-01  7.20000000E-01  8.50000000E-01  8.50000000E-01  7.20000000E-01
  7.20000000E-01  8.50000000E-01  8.50000000E-01  7.20000000E-01  7.20000000E-01
  7.20000000E-01  8.50000000E-01  8.50000000E-01  7.20000000E-01  8.50000000E-01
  7.20000000E-01  8.50000000E-01  7.20000000E-01  8.50000000E-01  8.50000000E-01
  7.20000000E-01  8.50000000E-01  8.50000000E-01  7.20000000E-01  8.50000000E-01
  8.50000000E-01  8.50000000E-01  8.50000000E-01  8.50000000E-01  7.20000000E-01
  7.20000000E-01  8.50000000E-01  8.50000000E-01  8.50000000E-01  7.20000000E-01
  8.50000000E-01  8.50000000E-01  8.50000000E-01  8.50000000E-01  9.60000000E-01
  7.20000000E-01  7.20000000E-01  7.20000000E-01  7.20000000E-01  7.20000000E-01
  9.60000000E-01  7.20000000E-01  7.20000000E-01  8.50000000E-01  7.20000000E-01
  7.20000000E-01  7.20000000E-01  7.20000000E-01  7.20000000E-01  8.50000000E-01
  7.20000000E-01  7.20000000E-01  8.50000000E-01  8.50000000E-01  7.20000000E-01
  8.50000000E-01  8.50000000E-01  7.20000000E-01  8.50000000E-01  8.50000000E-01
  7.20000000E-01  8.50000000E-01  8.50000000E-01  7.20000000E-01  7.20000000E-01
  8.50000000E-01  8.50000000E-01  7.20000000E-01  7.20000000E-01  7.20000000E-01
  8.50000000E-01  8.50000000E-01  7.20000000E-01  8.50000000E-01  7.20000000E-01
  8.50000000E-01  7.20000000E-01  8.50000000E-01  8.50000000E-01  7.20000000E-01
  8.50000000E-01  8.50000000E-01  7.20000000E-01  8.50000000E-01  8.50000000E-01
  8.50000000E-01  8.50000000E-01  8.50000000E-01  7.20000000E-01  7.20000000E-01
  8.50000000E-01  8.50000000E-01  8.50000000E-01  7.20000000E-01  8.50000000E-01
  8.50000000E-01  8.50000000E-01  8.50000000E-01  9.60000000E-01  7.20000000E-01
  7.20000000E-01  7.20000000E-01  7.20000000E-01  7.20000000E-01  9.60000000E-01
  7.20000000E-01  7.20000000E-01  8.50000000E-01  7.20000000E-01  7.20000000E-01
  7.20000000E-01  7.20000000E-01  7.20000000E-01  8.50000000E-01  7.20000000E-01
  7.20000000E-01  8.50000000E-01  8.50000000E-01  7.20000000E-01  8.50000000E-01
  8.50000000E-01  7.20000000E-01  8.50000000E-01  8.50000000E-01  7.20000000E-01
  8.50000000E-01  8.50000000E-01  7.20000000E-01  7.20000000E-01  8.50000000E-01
  8.50000000E-01  7.20000000E-01  7.20000000E-01  7.20000000E-01  8.50000000E-01
  8.50000000E-01  7.20000000E-01  8.50000000E-01  7.20000000E-01  8.50000000E-01
  7.20000000E-01  8.50000000E-01  8.50000000E-01  7.20000000E-01  8.50000000E-01
  8.50000000E-01  7.20000000E-01  8.50000000E-01  8.50000000E-01  8.50000000E-01
  8.50000000E-01  8.50000000E-01  7.20000000E-01  7.20000000E-01  8.50000000E-01
  8.50000000E-01  8.50000000E-01  7.20000000E-01  8.50000000E-01  8.50000000E-01
  8.50000000E-01  8.50000000E-01  9.60000000E-01  7.20000000E-01  7.20000000E-01
  7.20000000E-01  7.20000000E-01  7.20000000E-01  9.60000000E-01  7.20000000E-01
  7.20000000E-01  8.50000000E-01  7.20000000E-01  7.20000000E-01  7.20000000E-01
  7.20000000E-01  7.20000000E-01  8.50000000E-01  7.20000000E-01  7.20000000E-01
  8.50000000E-01  8.50000000E-01  7.20000000E-01  8.50000000E-01  8.50000000E-01
  7.20000000E-01  8.50000000E-01  8.50000000E-01  7.20000000E-01  8.50000000E-01
  8.50000000E-01  7.20000000E-01  7.20000000E-01  8.50000000E-01  8.50000000E-01
  7.20000000E-01  7.20000000E-01  7.20000000E-01  8.50000000E-01  8.50000000E-01
  7.20000000E-01  8.50000000E-01  7.20000000E-01  8.50000000E-01  7.20000000E-01
  8.50000000E-01  8.50000000E-01  7.20000000E-01  8.50000000E-01  8.50000000E-01
  7.20000000E-01  8.50000000E-01  8.50000000E-01  8.50000000E-01  8.50000000E-01
  8.50000000E-01  7.20000000E-01  7.20000000E-01  8.50000000E-01  8.50000000E-01
  8.50000000E-01  7.20000000E-01  8.50000000E-01  8.50000000E-01  8.50000000E-01
  8.50000000E-01  9.60000000E-01  7.20000000E-01  7.20000000E-01  7.20000000E-01
  7.20000000E-01  7.20000000E-01  9.60000000E-01  7.20000000E-01  7.20000000E-01
  8.50000000E-01  7.20000000E-01  7.20000000E-01  7.20000000E-01  7.20000000E-01
  7.20000000E-01  8.50000000E-01  7.20000000E-01  7.20000000E-01  8.50000000E-01
  8.50000000E-01  7.20000000E-01  8.50000000E-01  8.50000000E-01  7.20000000E-01
  8.50000000E-01  8.50000000E-01  7.20000000E-01  8.50000000E-01  8.50000000E-01
  7.20000000E-01  7.20000000E-01  8.50000000E-01  8.50000000E-01  7.20000000E-01
  7.20000000E-01  7.20000000E-01  8.50000000E-01  8.50000000E-01  7.20000000E-01
  8.50000000E-01  7.20000000E-01  8.50000000E-01  7.20000000E-01  8.50000000E-01
  8.50000000E-01  7.20000000E-01  8.50000000E-01  8.50000000E-01  7.20000000E-01
  8.50000000E-01  8.50000000E-01  8.50000000E-01  8.50000000E-01  8.50000000E-01
  7.20000000E-01  7.20000000E-01  8.50000000E-01  8.50000000E-01  8.50000000E-01
  7.20000000E-01  8.50000000E-01  8.50000000E-01  8.50000000E-01  8.50000000E-01
  9.60000000E-01  7.20000000E-01  7.20000000E-01  7.20000000E-01  7.20000000E-01
  7.20000000E-01  9.60000000E-01  7.20000000E-01  7.20000000E-01  8.50000000E-01
  7.20000000E-01  7.20000000E-01  7.20000000E-01  7.20000000E-01  7.20000000E-01
  8.50000000E-01  7.20000000E-01  7.20000000E-01  8.50000000E-01  8.50000000E-01
  7.20000000E-01  8.50000000E-01  8.50000000E-01  7.20000000E-01  8.50000000E-01
  8.50000000E-01  7.20000000E-01  8.50000000E-01  8.50000000E-01  7.20000000E-01
  7.20000000E-01  8.50000000E-01  8.50000000E-01  7.20000000E-01  7.20000000E-01
  7.20000000E-01  8.50000000E-01  8.50000000E-01  7.20000000E-01  8.50000000E-01
  7.20000000E-01  8.50000000E-01  7.20000000E-01  8.50000000E-01  8.50000000E-01
  7.20000000E-01  8.50000000E-01  8.50000000E-01  7.20000000E-01  8.50000000E-01
  8.50000000E-01  8.50000000E-01  8.50000000E-01  8.50000000E-01  7.20000000E-01
  7.20000000E-01  8.50000000E-01  8.50000000E-01  8.50000000E-01  7.20000000E-01
  8.50000000E-01  8.50000000E-01  8.50000000E-01  8.50000000E-01  9.60000000E-01
  7.20000000E-01  7.20000000E-01  7.20000000E-01  7.20000000E-01  7.20000000E-01
  9.60000000E-01  7.20000000E-01  7.20000000E-01  8.50000000E-01  7.20000000E-01
  7.20000000E-01  7.20000000E-01  7.20000000E-01  7.20000000E-01  8.50000000E-01
  7.20000000E-01  7.20000000E-01  8.50000000E-01  8.50000000E-01  7.20000000E-01
  8.50000000E-01  8.50000000E-01  7.20000000E-01  8.50000000E-01  8.50000000E-01
  7.20000000E-01  8.50000000E-01  8.50000000E-01  7.20000000E-01  7.20000000E-01
  8.50000000E-01  8.50000000E-01  7.20000000E-01  7.20000000E-01  7.20000000E-01
  8.50000000E-01  8.50000000E-01  7.20000000E-01  8.50000000E-01  7.20000000E-01
  8.50000000E-01  7.20000000E-01  8.50000000E-01  8.50000000E-01  7.20000000E-01
  8.50000000E-01  8.50000000E-01  7.20000000E-01  8.50000000E-01  8.50000000E-01
  8.50000000E-01  8.50000000E-01  8.50000000E-01  7.20000000E-01  7.20000000E-01
  8.50000000E-01  8.50000000E-01  8.50000000E-01  7.20000000E-01  8.50000000E-01
  8.50000000E-01  8.50000000E-01  8.50000000E-01  9.60000000E-01  7.20000000E-01
  7.20000000E-01  7.20000000E-01  7.20000000E-01  7.20000000E-01  9.60000000E-01
  7.20000000E-01  7.20000000E-01  8.50000000E-01  7.20000000E-01  7.20000000E-01
  7.20000000E-01  7.20000000E-01  7.20000000E-01  8.50000000E-01  7.20000000E-01
  7.20000000E-01  8.50000000E-01  8.50000000E-01  7.20000000E-01  8.50000000E-01
  8.50000000E-01  7.20000000E-01  8.50000000E-01  8.50000000E-01  7.20000000E-01
  8.50000000E-01  8.50000000E-01  7.20000000E-01  7.20000000E-01  8.50000000E-01
  8.50000000E-01  7.20000000E-01  7.20000000E-01  7.20000000E-01  8.50000000E-01
  8.50000000E-01  7.20000000E-01  8.50000000E-01  7.20000000E-01  8.50000000E-01
  7.20000000E-01  8.50000000E-01  8.50000000E-01  7.20000000E-01  8.50000000E-01
  8.50000000E-01  7.20000000E-01  8.50000000E-01  8.50000000E-01  8.50000000E-01
  8.50000000E-01  8.50000000E-01  7.20000000E-01  7.20000000E-01  8.50000000E-01
  8.50000000E-01  8.50000000E-01  7.20000000E-01  8.50000000E-01  8.50000000E-01
  8.50000000E-01  8.50000000E-01  9.60000000E-01  7.20000000E-01  7.20000000E-01
  7.20000000E-01  7.20000000E-01  7.20000000E-01  9.60000000E-01  7.20000000E-01
  7.20000000E-01  8.50000000E-01  7.20000000E-01  7.20000000E-01  7.20000000E-01
  7.20000000E-01  7.20000000E-01  8.50000000E-01  7.20000000E-01  7.20000000E-01
  8.50000000E-01  8.50000000E-01  7.20000000E-01  8.50000000E-01  8.50000000E-01
  7.20000000E-01  8.50000000E-01  8.50000000E-01  7.20000000E-01  8.50000000E-01
  8.50000000E-01  7.20000000E-01  7.20000000E-01  8.50000000E-01  8.50000000E-01
  7.20000000E-01  7.20000000E-01  7.20000000E-01  8.50000000E-01  8.50000000E-01
  7.20000000E-01  8.50000000E-01  7.20000000E-01  8.50000000E-01  7.20000000E-01
  8.50000000E-01  8.50000000E-01  7.20000000E-01  8.50000000E-01  8.50000000E-01
  7.20000000E-01  8.50000000E-01  8.50000000E-01  8.50000000E-01  8.50000000E-01
  8.50000000E-01  7.20000000E-01  7.20000000E-01  8.50000000E-01  8.50000000E-01
  8.50000000E-01  7.20000000E-01  8.50000000E-01  8.50000000E-01  8.50000000E-01
  8.50000000E-01  9.60000000E-01  7.20000000E-01  7.20000000E-01  7.20000000E-01
  7.20000000E-01  7.20000000E-01  9.60000000E-01  7.20000000E-01  7.20000000E-01
  8.50000000E-01  7.20000000E-01  7.20000000E-01  7.20000000E-01  7.20000000E-01
  7.20000000E-01  8.50000000E-01  7.20000000E-01  7.20000000E-01  8.50000000E-01
  8.50000000E-01  7.20000000E-01  8.50000000E-01  8.50000000E-01  7.20000000E-01
  8.50000000E-01  8.50000000E-01  7.20000000E-01  8.50000000E-01  8.50000000E-01
  7.20000000E-01  7.20000000E-01  8.50000000E-01  8.50000000E-01  7.20000000E-01
  7.20000000E-01  7.20000000E-01  8.50000000E-01  8.50000000E-01  7.20000000E-01
  8.50000000E-01  7.20000000E-01  8.50000000E-01  7.20000000E-01  8.50000000E-01
  8.50000000E-01  7.20000000E-01  8.50000000E-01  8.50000000E-01  7.20000000E-01
  8.50000000E-01  8.50000000E-01  8.50000000E-01  8.50000000E-01  8.50000000E-01
  7.20000000E-01  7.20000000E-01  8.50000000E-01  8.50000000E-01  8.50000000E-01
  7.20000000E-01  8.50000000E-01  8.50000000E-01  8.50000000E-01  8.50000000E-01
  9.60000000E-01  7.20000000E-01  7.20000000E-01  7.20000000E-01  7.20000000E-01
  7.20000000E-01  9.60000000E-01  7.20000000E-01  7.20000000E-01  8.50000000E-01
  7.20000000E-01  7.20000000E-01  7.20000000E-01  7.20000000E-01  7.20000000E-01
  8.50000000E-01  7.20000000E-01  7.20000000E-01  8.50000000E-01  8.50000000E-01
  7.20000000E-01  8.50000000E-01  8.50000000E-01  7.20000000E-01  8.50000000E-01
  8.50000000E-01  7.20000000E-01  8.50000000E-01  8.50000000E-01  7.20000000E-01
  7.20000000E-01  8.50000000E-01  8.50000000E-01  7.20000000E-01  7.20000000E-01
  7.20000000E-01  8.50000000E-01  8.50000000E-01  7.20000000E-01  8.50000000E-01
  7.20000000E-01  8.50000000E-01  7.20000000E-01  8.50000000E-01  8.50000000E-01
  7.20000000E-01  8.50000000E-01  8.50000000E-01  7.20000000E-01  8.50000000E-01
  8.50000000E-01  8.50000000E-01  8.50000000E-01  8.50000000E-01  7.20000000E-01
  7.20000000E-01  8.50000000E-01  8.50000000E-01  8.50000000E-01  7.20000000E-01
  8.50000000E-01  8.50000000E-01  8.50000000E-01  8.50000000E-01  9.60000000E-01
  7.20000000E-01  7.20000000E-01  7.20000000E-01  7.20000000E-01  7.20000000E-01
  9.60000000E-01  7.20000000E-01  7.20000000E-01  8.50000000E-01  7.20000000E-01
  7.20000000E-01  7.20000000E-01  7.20000000E-01  7.20000000E-01  8.50000000E-01
  7.20000000E-01  7.20000000E-01  8.50000000E-01  8.50000000E-01  7.20000000E-01
  8.50000000E-01  8.50000000E-01  7.20000000E-01  8.50000000E-01  8.50000000E-01
  7.20000000E-01  8.50000000E-01  8.50000000E-01  7.20000000E-01  7.20000000E-01
  8.50000000E-01  8.50000000E-01  7.20000000E-01  7.20000000E-01  7.20000000E-01
  8.50000000E-01  8.50000000E-01  7.20000000E-01  8.50000000E-01  7.20000000E-01
  8.50000000E-01  7.20000000E-01  8.50000000E-01  8.50000000E-01  7.20000000E-01
  8.50000000E-01  8.50000000E-01  7.20000000E-01  8.50000000E-01  8.50000000E-01
  8.50000000E-01  8.50000000E-01  8.50000000E-01  7.20000000E-01  7.20000000E-01
  8.50000000E-01  8.50000000E-01  8.50000000E-01  7.20000000E-01  8.50000000E-01
  8.50000000E-01  8.50000000E-01  8.50000000E-01  9.60000000E-01  7.20000000E-01
  7.20000000E-01  7.20000000E-01  7.20000000E-01  7.20000000E-01  9.60000000E-01
  7.20000000E-01  7.20000000E-01  8.50000000E-01  7.20000000E-01  7.20000000E-01
  7.20000000E-01  7.20000000E-01  7.20000000E-01  8.50000000E-01  7.20000000E-01
  7.20000000E-01  8.50000000E-01  8.50000000E-01  7.20000000E-01  8.50000000E-01
  8.50000000E-01  7.20000000E-01  8.50000000E-01  8.50000000E-01  7.20000000E-01
  8.50000000E-01  8.50000000E-01  7.20000000E-01  7.20000000E-01  8.50000000E-01
  8.50000000E-01  7.20000000E-01  7.20000000E-01  7.20000000E-01  8.50000000E-01
  8.50000000E-01  7.20000000E-01  8.50000000E-01  7.20000000E-01  8.50000000E-01
  7.20000000E-01  8.50000000E-01  8.50000000E-01  7.20000000E-01  8.50000000E-01
  8.50000000E-01  7.20000000E-01  8.50000000E-01  8.50000000E-01  8.50000000E-01
  8.50000000E-01  8.50000000E-01  7.20000000E-01  7.20000000E-01  8.50000000E-01
  8.50000000E-01  8.50000000E-01  7.20000000E-01  8.50000000E-01  8.50000000E-01
  8.50000000E-01  8.50000000E-01  9.60000000E-01  7.20000000E-01  7.20000000E-01
  7.20000000E-01  7.20000000E-01  7.20000000E-01  9.60000000E-01  7.20000000E-01
  7.20000000E-01  8.50000000E-01  7.20000000E-01  7.20000000E-01  7.20000000E-01
  7.20000000E-01  7.20000000E-01  8.50000000E-01  7.20000000E-01  7.20000000E-01
  8.50000000E-01  8.50000000E-01  7.20000000E-01  8.50000000E-01  8.50000000E-01
  7.20000000E-01  8.50000000E-01  8.50000000E-01  7.20000000E-01  8.50000000E-01
  8.50000000E-01  7.20000000E-01  7.20000000E-01  8.50000000E-01  8.50000000E-01
  7.20000000E-01  7.20000000E-01  7.20000000E-01  8.50000000E-01  8.50000000E-01
  7.20000000E-01  8.50000000E-01  7.20000000E-01  8.50000000E-01  7.20000000E-01
  8.50000000E-01  8.50000000E-01  7.20000000E-01  8.50000000E-01  8.50000000E-01
  7.20000000E-01  8.50000000E-01  8.50000000E-01  8.50000000E-01  8.50000000E-01
  8.50000000E-01  7.20000000E-01  7.20000000E-01  8.50000000E-01  8.50000000E-01
  8.50000000E-01  7.20000000E-01  8.50000000E-01  8.50000000E-01  8.50000000E-01
  8.50000000E-01  9.60000000E-01  7.20000000E-01  7.20000000E-01  7.20000000E-01
  7.20000000E-01  7.20000000E-01  9.60000000E-01  7.20000000E-01  7.20000000E-01
  8.50000000E-01  7.20000000E-01  7.20000000E-01  7.20000000E-01  7.20000000E-01
  7.20000000E-01  8.50000000E-01  7.20000000E-01  7.20000000E-01  8.50000000E-01
  8.50000000E-01  7.20000000E-01  8.50000000E-01  8.50000000E-01  7.20000000E-01
  8.50000000E-01  8.50000000E-01  7.20000000E-01  8.50000000E-01  8.50000000E-01
  7.20000000E-01  7.20000000E-01  8.50000000E-01  8.50000000E-01  7.20000000E-01
  7.20000000E-01  7.20000000E-01  8.50000000E-01  8.50000000E-01  7.20000000E-01
  8.50000000E-01  7.20000000E-01  8.50000000E-01  7.20000000E-01  8.50000000E-01
  8.50000000E-01  7.20000000E-01  8.50000000E-01  8.50000000E-01  7.20000000E-01
  8.50000000E-01  8.50000000E-01  8.50000000E-01  8.50000000E-01  8.50000000E-01
  7.20000000E-01  7.20000000E-01  8.50000000E-01  8.50000000E-01  8.50000000E-01
  7.20000000E-01  8.50000000E-01  8.50000000E-01  8.50000000E-01  8.50000000E-01
  9.60000000E-01  7.20000000E-01  7.20000000E-01  7.20000000E-01  7.20000000E-01
  7.20000000E-01  9.60000000E-01  7.20000000E-01  7.20000000E-01  8.50000000E-01
  7.20000000E-01  7.20000000E-01  7.20000000E-01  7.20000000E-01  7.20000000E-01
  8.50000000E-01  7.20000000E-01  7.20000000E-01  8.50000000E-01  8.50000000E-01
  7.20000000E-01  8.50000000E-01  8.50000000E-01  7.20000000E-01  8.50000000E-01
  8.50000000E-01  7.20000000E-01  8.50000000E-01  8.50000000E-01  7.20000000E-01
  7.20000000E-01  8.50000000E-01  8.50000000E-01  7.20000000E-01  7.20000000E-01
  7.20000000E-01  8.50000000E-01  8.50000000E-01  7.20000000E-01  8.50000000E-01
  7.20000000E-01  8.50000000E-01  7.20000000E-01  8.50000000E-01  8.50000000E-01
  7.20000000E-01  8.50000000E-01  8.50000000E-01  7.20000000E-01  8.50000000E-01
  8.50000000E-01  8.50000000E-01  8.50000000E-01  8.50000000E-01  7.20000000E-01
  7.20000000E-01  8.50000000E-01  8.50000000E-01  8.50000000E-01  7.20000000E-01
  8.50000000E-01  8.50000000E-01  8.50000000E-01  8.50000000E-01  9.60000000E-01
  7.20000000E-01  7.20000000E-01  7.20000000E-01  7.20000000E-01  7.20000000E-01
  9.60000000E-01  7.20000000E-01  7.20000000E-01  8.50000000E-01  7.20000000E-01
  7.20000000E-01  7.20000000E-01  7.20000000E-01  7.20000000E-01  8.50000000E-01
  7.20000000E-01  7.20000000E-01  8.50000000E-01  8.50000000E-01  7.20000000E-01
  8.50000000E-01  8.50000000E-01  7.20000000E-01  8.50000000E-01  8.50000000E-01
  7.20000000E-01  8.50000000E-01  8.50000000E-01  7.20000000E-01  7.20000000E-01
  8.50000000E-01  8.50000000E-01  7.20000000E-01  7.20000000E-01  7.20000000E-01
  8.50000000E-01  8.50000000E-01  7.20000000E-01  8.50000000E-01  7.20000000E-01
  8.50000000E-01  7.20000000E-01  8.50000000E-01  8.50000000E-01  7.20000000E-01
  8.50000000E-01  8.50000000E-01  7.20000000E-01  8.50000000E-01  8.50000000E-01
  8.50000000E-01  8.50000000E-01  8.50000000E-01  7.20000000E-01  7.20000000E-01
  8.50000000E-01  8.50000000E-01  8.50000000E-01  7.20000000E-01  8.50000000E-01
  8.50000000E-01  8.50000000E-01  8.50000000E-01  9.60000000E-01  7.20000000E-01
  7.20000000E-01  7.20000000E-01  7.20000000E-01  7.20000000E-01  9.60000000E-01
  7.20000000E-01  7.20000000E-01  8.50000000E-01  7.20000000E-01  7.20000000E-01
  7.20000000E-01  7.20000000E-01  7.20000000E-01  8.50000000E-01  7.20000000E-01
  7.20000000E-01  8.50000000E-01  8.50000000E-01  7.20000000E-01  8.50000000E-01
  8.50000000E-01  7.20000000E-01  8.50000000E-01  8.50000000E-01  7.20000000E-01
  8.50000000E-01  8.50000000E-01  7.20000000E-01  7.20000000E-01  8.50000000E-01
  8.50000000E-01  7.20000000E-01  7.20000000E-01  7.20000000E-01  8.50000000E-01
  8.50000000E-01  7.20000000E-01  8.50000000E-01  7.20000000E-01  8.50000000E-01
  7.20000000E-01  8.50000000E-01  8.50000000E-01  7.20000000E-01  8.50000000E-01
  8.50000000E-01  7.20000000E-01  8.50000000E-01  8.50000000E-01  8.50000000E-01
  8.50000000E-01  8.50000000E-01  7.20000000E-01  7.20000000E-01  8.50000000E-01
  8.50000000E-01  8.50000000E-01  7.20000000E-01  8.50000000E-01  8.50000000E-01
  8.50000000E-01  8.50000000E-01  9.60000000E-01  7.20000000E-01  7.20000000E-01
  7.20000000E-01  7.20000000E-01  7.20000000E-01  9.60000000E-01  7.20000000E-01
  7.20000000E-01  8.50000000E-01  7.20000000E-01  7.20000000E-01  7.20000000E-01
  7.20000000E-01  7.20000000E-01  8.50000000E-01  7.20000000E-01  7.20000000E-01
  8.50000000E-01  8.50000000E-01  7.20000000E-01  8.50000000E-01  8.50000000E-01
  7.20000000E-01  8.50000000E-01  8.50000000E-01  7.20000000E-01  8.50000000E-01
  8.50000000E-01  7.20000000E-01  7.20000000E-01  8.50000000E-01  8.50000000E-01
  7.20000000E-01  7.20000000E-01  7.20000000E-01  8.50000000E-01  8.50000000E-01
  7.20000000E-01  8.50000000E-01  7.20000000E-01  8.50000000E-01  7.20000000E-01
  8.50000000E-01  8.50000000E-01  7.20000000E-01  8.50000000E-01  8.50000000E-01
  7.20000000E-01  8.50000000E-01  8.50000000E-01  8.50000000E-01  8.50000000E-01
  8.50000000E-01  7.20000000E-01  7.20000000E-01  8.50000000E-01  8.50000000E-01
  8.50000000E-01  7.20000000E-01  8.50000000E-01  8.50000000E-01  8.50000000E-01
  8.50000000E-01  9.60000000E-01  7.20000000E-01  7.20000000E-01  7.20000000E-01
  7.20000000E-01  7.20000000E-01  9.60000000E-01  7.20000000E-01  7.20000000E-01
  8.50000000E-01  7.20000000E-01  7.20000000E-01  7.20000000E-01  7.20000000E-01
  7.20000000E-01  8.50000000E-01  7.20000000E-01  7.20000000E-01  8.50000000E-01
  8.50000000E-01  7.20000000E-01  8.50000000E-01  8.50000000E-01  7.20000000E-01
  8.50000000E-01  8.50000000E-01  7.20000000E-01  8.50000000E-01  8.50000000E-01
  7.20000000E-01  7.20000000E-01  8.50000000E-01  8.50000000E-01  7.20000000E-01
  7.20000000E-01  7.20000000E-01  8.50000000E-01  8.50000000E-01  7.20000000E-01
  8.50000000E-01  7.20000000E-01  8.50000000E-01  7.20000000E-01  8.50000000E-01
  8.50000000E-01  7.20000000E-01  8.50000000E-01  8.50000000E-01  7.20000000E-01
  8.50000000E-01  8.50000000E-01  8.50000000E-01  8.50000000E-01  8.50000000E-01
  7.20000000E-01  7.20000000E-01  8.50000000E-01  8.50000000E-01  8.50000000E-01
  7.20000000E-01  8.50000000E-01  8.50000000E-01  8.50000000E-01  8.50000000E-01
  9.60000000E-01  7.20000000E-01  7.20000000E-01  7.20000000E-01  7.20000000E-01
  7.20000000E-01  9.60000000E-01  7.20000000E-01  7.20000000E-01  8.50000000E-01
  7.20000000E-01  7.20000000E-01  7.20000000E-01  7.20000000E-01  7.20000000E-01
  8.50000000E-01  7.20000000E-01  7.20000000E-01  8.50000000E-01  8.50000000E-01
  7.20000000E-01  8.50000000E-01  8.50000000E-01  7.20000000E-01  8.50000000E-01
  8.50000000E-01  7.20000000E-01  8.50000000E-01  8.50000000E-01  7.20000000E-01
  7.20000000E-01  8.50000000E-01  8.50000000E-01  7.20000000E-01  7.20000000E-01
  7.20000000E-01  8.50000000E-01  8.50000000E-01  7.20000000E-01  8.50000000E-01
  7.20000000E-01  8.50000000E-01  7.20000000E-01  8.50000000E-01  8.50000000E-01
  7.20000000E-01  8.50000000E-01  8.50000000E-01  7.20000000E-01  8.50000000E-01
  8.50000000E-01  8.50000000E-01  8.50000000E-01  8.50000000E-01  7.20000000E-01
  7.20000000E-01  8.50000000E-01  8.50000000E-01  8.50000000E-01  7.20000000E-01
  8.50000000E-01  8.50000000E-01  8.50000000E-01  8.50000000E-01  9.60000000E-01
  7.20000000E-01  7.20000000E-01  7.20000000E-01  7.20000000E-01  7.20000000E-01
  9.60000000E-01  7.20000000E-01  7.20000000E-01  8.50000000E-01  7.20000000E-01
  7.20000000E-01  7.20000000E-01  7.20000000E-01  7.20000000E-01  8.50000000E-01
  7.20000000E-01  7.20000000E-01  8.50000000E-01  8.50000000E-01  7.20000000E-01
  8.50000000E-01  8.50000000E-01  7.20000000E-01  8.50000000E-01  8.50000000E-01
  7.20000000E-01  8.50000000E-01  8.50000000E-01  7.20000000E-01  7.20000000E-01
  8.50000000E-01  8.50000000E-01  7.20000000E-01  7.20000000E-01  7.20000000E-01
  8.50000000E-01  8.50000000E-01  7.20000000E-01  8.50000000E-01  7.20000000E-01
  8.50000000E-01  7.20000000E-01  8.50000000E-01  8.50000000E-01  7.20000000E-01
  8.50000000E-01  8.50000000E-01  7.20000000E-01  8.50000000E-01  8.50000000E-01
  8.50000000E-01  8.50000000E-01  8.50000000E-01  7.20000000E-01  7.20000000E-01
  8.50000000E-01  8.50000000E-01  8.50000000E-01  7.20000000E-01  8.50000000E-01
  8.50000000E-01  8.50000000E-01  8.50000000E-01  9.60000000E-01  7.20000000E-01
  7.20000000E-01  7.20000000E-01  7.20000000E-01  7.20000000E-01  9.60000000E-01
  7.20000000E-01  7.20000000E-01  8.50000000E-01  7.20000000E-01  7.20000000E-01
  7.20000000E-01  7.20000000E-01  7.20000000E-01  8.50000000E-01  7.20000000E-01
  7.20000000E-01  8.50000000E-01  8.50000000E-01  7.20000000E-01  8.50000000E-01
  8.50000000E-01  7.20000000E-01  8.50000000E-01  8.50000000E-01  7.20000000E-01
  8.50000000E-01  8.50000000E-01  7.20000000E-01  7.20000000E-01  8.50000000E-01
  8.50000000E-01  7.20000000E-01  7.20000000E-01  7.20000000E-01  8.50000000E-01
  8.50000000E-01  7.20000000E-01  8.50000000E-01  7.20000000E-01  8.50000000E-01
  7.20000000E-01  8.50000000E-01  8.50000000E-01  7.20000000E-01  8.50000000E-01
  8.50000000E-01  7.20000000E-01  8.50000000E-01  8.50000000E-01  8.50000000E-01
  8.50000000E-01  8.50000000E-01  7.20000000E-01  7.20000000E-01  8.50000000E-01
  8.50000000E-01  8.50000000E-01  7.20000000E-01  8.50000000E-01  8.50000000E-01
  8.50000000E-01  8.50000000E-01  9.60000000E-01  7.20000000E-01  7.20000000E-01
  7.20000000E-01  7.20000000E-01  7.20000000E-01  9.60000000E-01  7.20000000E-01
  7.20000000E-01  8.50000000E-01  7.20000000E-01  7.20000000E-01  7.20000000E-01
  7.20000000E-01  7.20000000E-01  8.50000000E-01  7.20000000E-01  7.20000000E-01
  8.50000000E-01  8.50000000E-01  7.20000000E-01  8.50000000E-01  8.50000000E-01
  7.20000000E-01  8.50000000E-01  8.50000000E-01  7.20000000E-01  8.50000000E-01
  8.50000000E-01  7.20000000E-01  7.20000000E-01  8.50000000E-01  8.50000000E-01
  7.20000000E-01  7.20000000E-01  7.20000000E-01  8.50000000E-01  8.50000000E-01
  7.20000000E-01  8.50000000E-01  7.20000000E-01  8.50000000E-01  7.20000000E-01
  8.50000000E-01  8.50000000E-01  7.20000000E-01  8.50000000E-01  8.50000000E-01
  7.20000000E-01  8.50000000E-01  8.50000000E-01  8.50000000E-01  8.50000000E-01
  8.50000000E-01  7.20000000E-01  7.20000000E-01  8.50000000E-01  8.50000000E-01
  8.50000000E-01  7.20000000E-01  8.50000000E-01  8.50000000E-01  8.50000000E-01
  8.50000000E-01  9.60000000E-01  7.20000000E-01  7.20000000E-01  7.20000000E-01
  7.20000000E-01  7.20000000E-01  9.60000000E-01  7.20000000E-01  7.20000000E-01
  8.50000000E-01  7.20000000E-01  7.20000000E-01  7.20000000E-01  7.20000000E-01
  7.20000000E-01  8.50000000E-01  7.20000000E-01  7.20000000E-01  8.50000000E-01
  8.50000000E-01  7.20000000E-01  8.50000000E-01  8.50000000E-01  7.20000000E-01
  8.50000000E-01  8.50000000E-01  7.20000000E-01  8.50000000E-01  8.50000000E-01
  7.20000000E-01  7.20000000E-01  8.50000000E-01  8.50000000E-01  7.20000000E-01
  7.20000000E-01  7.20000000E-01  8.50000000E-01  8.50000000E-01  7.20000000E-01
  8.50000000E-01  7.20000000E-01  8.50000000E-01  7.20000000E-01  8.50000000E-01
  8.50000000E-01  7.20000000E-01  8.50000000E-01  8.50000000E-01  7.20000000E-01
  8.50000000E-01  8.50000000E-01  8.50000000E-01  8.50000000E-01  8.50000000E-01
  7.20000000E-01  7.20000000E-01  8.50000000E-01  8.50000000E-01  8.50000000E-01
  7.20000000E-01  8.50000000E-01  8.50000000E-01  8.50000000E-01  8.50000000E-01
  9.60000000E-01  7.20000000E-01  7.20000000E-01  7.20000000E-01  7.20000000E-01
  7.20000000E-01  9.60000000E-01  7.20000000E-01  7.20000000E-01  8.50000000E-01
  7.20000000E-01  7.20000000E-01  7.20000000E-01  7.20000000E-01  7.20000000E-01
  8.50000000E-01  7.20000000E-01  7.20000000E-01  8.50000000E-01  8.50000000E-01
  7.20000000E-01  8.50000000E-01  8.50000000E-01  7.20000000E-01  8.50000000E-01
  8.50000000E-01  7.20000000E-01  8.50000000E-01  8.50000000E-01  7.20000000E-01
  7.20000000E-01  8.50000000E-01  8.50000000E-01  7.20000000E-01  7.20000000E-01
  7.20000000E-01  8.50000000E-01  8.50000000E-01  7.20000000E-01  8.50000000E-01
  7.20000000E-01  8.50000000E-01  7.20000000E-01  8.50000000E-01  8.50000000E-01
  7.20000000E-01  8.50000000E-01  8.50000000E-01  7.20000000E-01  8.50000000E-01
  8.50000000E-01  8.50000000E-01  8.50000000E-01  8.50000000E-01  7.20000000E-01
  7.20000000E-01  8.50000000E-01  8.50000000E-01  8.50000000E-01  7.20000000E-01
  8.50000000E-01  8.50000000E-01  8.50000000E-01  8.50000000E-01  9.60000000E-01
  7.20000000E-01  7.20000000E-01  7.20000000E-01  7.20000000E-01  7.20000000E-01
  9.60000000E-01  7.20000000E-01  7.20000000E-01  8.50000000E-01  7.20000000E-01
  7.20000000E-01  7.20000000E-01  7.20000000E-01  7.20000000E-01  8.50000000E-01
  7.20000000E-01  7.20000000E-01  8.50000000E-01  8.50000000E-01  7.20000000E-01
  8.50000000E-01  8.50000000E-01  7.20000000E-01  8.50000000E-01  8.50000000E-01
  7.20000000E-01  8.50000000E-01  8.50000000E-01  7.20000000E-01  7.20000000E-01
  8.50000000E-01  8.50000000E-01  7.20000000E-01  7.20000000E-01  7.20000000E-01
  8.50000000E-01  8.50000000E-01  7.20000000E-01  8.50000000E-01  7.20000000E-01
  8.50000000E-01  7.20000000E-01  8.50000000E-01  8.50000000E-01  7.20000000E-01
  8.50000000E-01  8.50000000E-01  7.20000000E-01  8.50000000E-01  8.50000000E-01
  8.50000000E-01  8.50000000E-01  8.50000000E-01  7.20000000E-01  7.20000000E-01
  8.50000000E-01  8.50000000E-01  8.50000000E-01  7.20000000E-01  8.50000000E-01
  8.50000000E-01  8.50000000E-01  8.50000000E-01  9.60000000E-01  7.20000000E-01
  7.20000000E-01  7.20000000E-01  7.20000000E-01  7.20000000E-01  9.60000000E-01
  7.20000000E-01  7.20000000E-01  8.50000000E-01  7.20000000E-01  7.20000000E-01
  7.20000000E-01  7.20000000E-01  7.20000000E-01  8.50000000E-01  7.20000000E-01
  7.20000000E-01  8.50000000E-01  8.50000000E-01  7.20000000E-01  8.50000000E-01
  8.50000000E-01  7.20000000E-01  8.50000000E-01  8.50000000E-01  7.20000000E-01
  8.50000000E-01  8.50000000E-01  7.20000000E-01  7.20000000E-01  8.50000000E-01
  8.50000000E-01  7.20000000E-01  7.20000000E-01  7.20000000E-01  8.50000000E-01
  8.50000000E-01  7.20000000E-01  8.50000000E-01  7.20000000E-01  8.50000000E-01
  7.20000000E-01  8.50000000E-01  8.50000000E-01  7.20000000E-01  8.50000000E-01
  8.50000000E-01  7.20000000E-01  8.50000000E-01  8.50000000E-01  8.50000000E-01
  8.50000000E-01  8.50000000E-01  7.20000000E-01  7.20000000E-01  8.50000000E-01
  8.50000000E-01  8.50000000E-01  7.20000000E-01  8.50000000E-01  8.50000000E-01
  8.50000000E-01  8.50000000E-01  9.60000000E-01  7.20000000E-01  7.20000000E-01
  7.20000000E-01  7.20000000E-01  7.20000000E-01  9.60000000E-01  7.20000000E-01
  7.20000000E-01  8.50000000E-01  7.20000000E-01  7.20000000E-01  7.20000000E-01
  7.20000000E-01  7.20000000E-01  8.50000000E-01  7.20000000E-01  7.20000000E-01
  8.50000000E-01  8.50000000E-01  7.20000000E-01  8.50000000E-01  8.50000000E-01
  7.20000000E-01  8.50000000E-01  8.50000000E-01  7.20000000E-01  8.50000000E-01
  8.50000000E-01  7.20000000E-01  7.20000000E-01  8.50000000E-01  8.50000000E-01
  7.20000000E-01  7.20000000E-01  7.20000000E-01  8.50000000E-01  8.50000000E-01
  7.20000000E-01  8.50000000E-01  7.20000000E-01  8.50000000E-01  7.20000000E-01
  8.50000000E-01  8.50000000E-01  7.20000000E-01  8.50000000E-01  8.50000000E-01
  7.20000000E-01  8.50000000E-01  8.50000000E-01  8.50000000E-01  8.50000000E-01
  8.50000000E-01  7.20000000E-01  7.20000000E-01  8.50000000E-01  8.50000000E-01
  8.50000000E-01  7.20000000E-01  8.50000000E-01  8.50000000E-01  8.50000000E-01
  8.50000000E-01  9.60000000E-01  7.20000000E-01  7.20000000E-01  7.20000000E-01
  7.20000000E-01  7.20000000E-01  9.60000000E-01  7.20000000E-01  7.20000000E-01
  8.50000000E-01  7.20000000E-01  7.20000000E-01  7.20000000E-01  7.20000000E-01
  7.20000000E-01  8.50000000E-01  7.20000000E-01  7.20000000E-01  8.50000000E-01
  8.50000000E-01  7.20000000E-01  8.50000000E-01  8.50000000E-01  7.20000000E-01
  8.50000000E-01  8.50000000E-01  7.20000000E-01  8.50000000E-01  8.50000000E-01
  7.20000000E-01  7.20000000E-01  8.50000000E-01  8.50000000E-01  7.20000000E-01
  7.20000000E-01  7.20000000E-01  8.50000000E-01  8.50000000E-01  7.20000000E-01
  8.50000000E-01  7.20000000E-01  8.50000000E-01  7.20000000E-01  8.50000000E-01
  8.50000000E-01  7.20000000E-01  8.50000000E-01  8.50000000E-01  7.20000000E-01
  8.50000000E-01  8.50000000E-01  8.50000000E-01  8.50000000E-01  8.50000000E-01
  7.20000000E-01  7.20000000E-01  8.50000000E-01  8.50000000E-01  8.50000000E-01
  7.20000000E-01  8.50000000E-01  8.50000000E-01  8.50000000E-01  8.50000000E-01
  9.60000000E-01  7.20000000E-01  7.20000000E-01  7.20000000E-01  7.20000000E-01
  7.20000000E-01  9.60000000E-01  7.20000000E-01  7.20000000E-01  8.50000000E-01
  7.20000000E-01  7.20000000E-01  7.20000000E-01  7.20000000E-01  7.20000000E-01
  8.50000000E-01  7.20000000E-01  7.20000000E-01  8.50000000E-01  8.50000000E-01
  7.20000000E-01  8.50000000E-01  8.50000000E-01  7.20000000E-01  8.50000000E-01
  8.50000000E-01  7.20000000E-01  8.50000000E-01  8.50000000E-01  7.20000000E-01
  7.20000000E-01  8.50000000E-01  8.50000000E-01  7.20000000E-01  7.20000000E-01
  7.20000000E-01  8.50000000E-01  8.50000000E-01  7.20000000E-01  8.50000000E-01
  7.20000000E-01  8.50000000E-01  7.20000000E-01  8.50000000E-01  8.50000000E-01
  7.20000000E-01  8.50000000E-01  8.50000000E-01  7.20000000E-01  8.50000000E-01
  8.50000000E-01  8.50000000E-01  8.50000000E-01  8.50000000E-01  7.20000000E-01
  7.20000000E-01  8.50000000E-01  8.50000000E-01  8.50000000E-01  7.20000000E-01
  8.50000000E-01  8.50000000E-01  8.50000000E-01  8.50000000E-01  9.60000000E-01
  7.20000000E-01  7.20000000E-01  7.20000000E-01  7.20000000E-01  7.20000000E-01
  9.60000000E-01  7.20000000E-01  7.20000000E-01  8.50000000E-01  7.20000000E-01
  7.20000000E-01  7.20000000E-01  7.20000000E-01  7.20000000E-01  8.50000000E-01
  7.20000000E-01  7.20000000E-01  8.50000000E-01  8.50000000E-01  7.20000000E-01
  8.50000000E-01  8.50000000E-01  7.20000000E-01  8.50000000E-01  8.50000000E-01
  7.20000000E-01  8.50000000E-01  8.50000000E-01  7.20000000E-01  7.20000000E-01
  8.50000000E-01  8.50000000E-01  7.20000000E-01  7.20000000E-01  7.20000000E-01
  8.50000000E-01  8.50000000E-01  7.20000000E-01  8.50000000E-01  7.20000000E-01
  8.50000000E-01  7.20000000E-01  8.50000000E-01  8.50000000E-01  7.20000000E-01
  8.50000000E-01  8.50000000E-01  7.20000000E-01  8.50000000E-01  8.50000000E-01
  8.50000000E-01  8.50000000E-01  8.50000000E-01  7.20000000E-01  7.20000000E-01
  8.50000000E-01  8.50000000E-01  8.50000000E-01  7.20000000E-01  8.50000000E-01
  8.50000000E-01  8.50000000E-01  8.50000000E-01  9.60000000E-01  7.20000000E-01
  7.20000000E-01  7.20000000E-01  7.20000000E-01  7.20000000E-01  9.60000000E-01
  7.20000000E-01  7.20000000E-01  8.50000000E-01  7.20000000E-01  7.20000000E-01
  7.20000000E-01  7.20000000E-01  7.20000000E-01  8.50000000E-01  7.20000000E-01
  7.20000000E-01  8.50000000E-01  8.50000000E-01  7.20000000E-01  8.50000000E-01
  8.50000000E-01  7.20000000E-01  8.50000000E-01  8.50000000E-01  7.20000000E-01
  8.50000000E-01  8.50000000E-01  7.20000000E-01  7.20000000E-01  8.50000000E-01
  8.50000000E-01  7.20000000E-01  7.20000000E-01  7.20000000E-01  8.50000000E-01
  8.50000000E-01  7.20000000E-01  8.50000000E-01  7.20000000E-01  8.50000000E-01
  7.20000000E-01  8.50000000E-01  8.50000000E-01  7.20000000E-01  8.50000000E-01
  8.50000000E-01  7.20000000E-01  8.50000000E-01  8.50000000E-01  8.50000000E-01
  8.50000000E-01  8.50000000E-01  7.20000000E-01  7.20000000E-01  8.50000000E-01
  8.50000000E-01  8.50000000E-01  7.20000000E-01  8.50000000E-01  8.50000000E-01
  8.50000000E-01  8.50000000E-01  9.60000000E-01  7.20000000E-01  7.20000000E-01
  7.20000000E-01  7.20000000E-01  7.20000000E-01  9.60000000E-01  7.20000000E-01
  7.20000000E-01  8.50000000E-01  7.20000000E-01  7.20000000E-01  7.20000000E-01
  7.20000000E-01  7.20000000E-01  8.50000000E-01  7.20000000E-01  7.20000000E-01
  8.50000000E-01  8.50000000E-01  7.20000000E-01  8.50000000E-01  8.50000000E-01
  7.20000000E-01  8.50000000E-01  8.50000000E-01  7.20000000E-01  8.50000000E-01
  8.50000000E-01  7.20000000E-01  7.20000000E-01  8.50000000E-01  8.50000000E-01
  7.20000000E-01  7.20000000E-01  7.20000000E-01  8.50000000E-01  8.50000000E-01
  7.20000000E-01  8.50000000E-01  7.20000000E-01  8.50000000E-01  7.20000000E-01
  8.50000000E-01  8.50000000E-01  7.20000000E-01  8.50000000E-01  8.50000000E-01
  7.20000000E-01  8.50000000E-01  8.50000000E-01  8.50000000E-01  8.50000000E-01
  8.50000000E-01  7.20000000E-01  7.20000000E-01  8.50000000E-01  8.50000000E-01
  8.50000000E-01  7.20000000E-01  8.50000000E-01  8.50000000E-01  8.50000000E-01
  8.50000000E-01  9.60000000E-01  7.20000000E-01  7.20000000E-01  7.20000000E-01
  7.20000000E-01  7.20000000E-01  9.60000000E-01  7.20000000E-01  7.20000000E-01
  8.50000000E-01  7.20000000E-01  7.20000000E-01  7.20000000E-01  7.20000000E-01
  7.20000000E-01  8.50000000E-01  7.20000000E-01  7.20000000E-01  8.50000000E-01
  8.50000000E-01  7.20000000E-01  8.50000000E-01  8.50000000E-01  7.20000000E-01
  8.50000000E-01  8.50000000E-01  7.20000000E-01  8.50000000E-01  8.50000000E-01
  7.20000000E-01  7.20000000E-01  8.50000000E-01  8.50000000E-01  7.20000000E-01
  7.20000000E-01  7.20000000E-01  8.50000000E-01  8.50000000E-01  7.20000000E-01
  8.50000000E-01  7.20000000E-01  8.50000000E-01  7.20000000E-01  8.50000000E-01
  8.50000000E-01  7.20000000E-01  8.50000000E-01  8.50000000E-01  7.20000000E-01
  8.50000000E-01  8.50000000E-01  8.50000000E-01  8.50000000E-01  8.50000000E-01
  7.20000000E-01  7.20000000E-01  8.50000000E-01  8.50000000E-01  8.50000000E-01
  7.20000000E-01  8.50000000E-01  8.50000000E-01  8.50000000E-01  8.50000000E-01
  9.60000000E-01  7.20000000E-01  7.20000000E-01  7.20000000E-01  7.20000000E-01
  7.20000000E-01  9.60000000E-01  7.20000000E-01  7.20000000E-01  8.50000000E-01
  7.20000000E-01  7.20000000E-01  7.20000000E-01  7.20000000E-01  7.20000000E-01
  8.50000000E-01  7.20000000E-01  7.20000000E-01  8.50000000E-01  8.50000000E-01
  7.20000000E-01  8.50000000E-01  8.50000000E-01  7.20000000E-01  8.50000000E-01
  8.50000000E-01  7.20000000E-01  8.50000000E-01  8.50000000E-01  7.20000000E-01
  7.20000000E-01  8.50000000E-01  8.50000000E-01  7.20000000E-01  7.20000000E-01
  7.20000000E-01  8.50000000E-01  8.50000000E-01  7.20000000E-01  8.50000000E-01
  7.20000000E-01  8.50000000E-01  7.20000000E-01  8.50000000E-01  8.50000000E-01
  7.20000000E-01  8.50000000E-01  8.50000000E-01  7.20000000E-01  8.50000000E-01
  8.50000000E-01  8.50000000E-01  8.50000000E-01  8.50000000E-01  7.20000000E-01
  7.20000000E-01  8.50000000E-01  8.50000000E-01  8.50000000E-01  7.20000000E-01
  8.50000000E-01  8.50000000E-01  8.50000000E-01  8.50000000E-01  9.60000000E-01
  7.20000000E-01  7.20000000E-01  7.20000000E-01  7.20000000E-01  7.20000000E-01
  9.60000000E-01  7.20000000E-01  7.20000000E-01  8.50000000E-01  7.20000000E-01
  7.20000000E-01  7.20000000E-01  7.20000000E-01  7.20000000E-01  8.50000000E-01
  7.20000000E-01  7.20000000E-01  8.50000000E-01  8.50000000E-01  7.20000000E-01
  8.50000000E-01  8.50000000E-01  7.20000000E-01  8.50000000E-01  8.50000000E-01
  7.20000000E-01  8.50000000E-01  8.50000000E-01  7.20000000E-01  7.20000000E-01
  8.50000000E-01  8.50000000E-01  7.20000000E-01  7.20000000E-01  7.20000000E-01
  8.50000000E-01  8.50000000E-01  7.20000000E-01  8.50000000E-01  7.20000000E-01
  8.50000000E-01  7.20000000E-01  8.50000000E-01  8.50000000E-01  7.20000000E-01
  8.50000000E-01  8.50000000E-01  7.20000000E-01  8.50000000E-01  8.50000000E-01
  8.50000000E-01  8.50000000E-01  8.50000000E-01  7.20000000E-01  7.20000000E-01
  8.50000000E-01  8.50000000E-01  8.50000000E-01  7.20000000E-01  8.50000000E-01
  8.50000000E-01  8.50000000E-01  8.50000000E-01  9.60000000E-01  7.20000000E-01
  7.20000000E-01  7.20000000E-01  7.20000000E-01  7.20000000E-01  9.60000000E-01
  7.20000000E-01  7.20000000E-01  8.50000000E-01  7.20000000E-01  7.20000000E-01
  7.20000000E-01  7.20000000E-01  7.20000000E-01  8.50000000E-01  7.20000000E-01
  7.20000000E-01  8.50000000E-01  8.50000000E-01  7.20000000E-01  8.50000000E-01
  8.50000000E-01  7.20000000E-01  8.50000000E-01  8.50000000E-01  7.20000000E-01
  8.50000000E-01  8.50000000E-01  7.20000000E-01  7.20000000E-01  8.50000000E-01
  8.50000000E-01  7.20000000E-01  7.20000000E-01  7.20000000E-01  8.50000000E-01
  8.50000000E-01  7.20000000E-01  8.50000000E-01  7.20000000E-01  8.50000000E-01
  7.20000000E-01  8.50000000E-01  8.50000000E-01  7.20000000E-01  8.50000000E-01
  8.50000000E-01  7.20000000E-01  8.50000000E-01  8.50000000E-01  8.50000000E-01
  8.50000000E-01  8.50000000E-01  7.20000000E-01  7.20000000E-01  8.50000000E-01
  8.50000000E-01  8.50000000E-01  7.20000000E-01  8.50000000E-01  8.50000000E-01
  8.50000000E-01  8.50000000E-01  9.60000000E-01  7.20000000E-01  7.20000000E-01
  7.20000000E-01  7.20000000E-01  7.20000000E-01  9.60000000E-01  7.20000000E-01
  7.20000000E-01  8.50000000E-01  7.20000000E-01  7.20000000E-01  7.20000000E-01
  7.20000000E-01  7.20000000E-01  8.50000000E-01  7.20000000E-01  7.20000000E-01
  8.50000000E-01  8.50000000E-01  7.20000000E-01  8.50000000E-01  8.50000000E-01
  7.20000000E-01  8.50000000E-01  8.50000000E-01  7.20000000E-01  8.50000000E-01
  8.50000000E-01  7.20000000E-01  7.20000000E-01  8.50000000E-01  8.50000000E-01
  7.20000000E-01  7.20000000E-01  7.20000000E-01  8.50000000E-01  8.50000000E-01
  7.20000000E-01  8.50000000E-01  7.20000000E-01  8.50000000E-01  7.20000000E-01
  8.50000000E-01  8.50000000E-01  7.20000000E-01  8.50000000E-01  8.50000000E-01
  7.20000000E-01  8.50000000E-01  8.50000000E-01  8.50000000E-01  8.50000000E-01
  8.50000000E-01  7.20000000E-01  7.20000000E-01  8.50000000E-01  8.50000000E-01
  8.50000000E-01  7.20000000E-01  8.50000000E-01  8.50000000E-01  8.50000000E-01
  8.50000000E-01  9.60000000E-01  7.20000000E-01  7.20000000E-01  7.20000000E-01
  7.20000000E-01  7.20000000E-01  9.60000000E-01  7.20000000E-01  7.20000000E-01
  8.50000000E-01  7.20000000E-01  7.20000000E-01  7.20000000E-01  7.20000000E-01
  7.20000000E-01  8.50000000E-01  7.20000000E-01  7.20000000E-01  8.50000000E-01
  8.50000000E-01  7.20000000E-01  8.50000000E-01  8.50000000E-01  7.20000000E-01
  8.50000000E-01  8.50000000E-01  7.20000000E-01  8.50000000E-01  8.50000000E-01
  7.20000000E-01  7.20000000E-01  8.50000000E-01  8.50000000E-01  7.20000000E-01
  7.20000000E-01  7.20000000E-01  8.50000000E-01  8.50000000E-01  7.20000000E-01
  8.50000000E-01  7.20000000E-01  8.50000000E-01  7.20000000E-01  8.50000000E-01
  8.50000000E-01  7.20000000E-01  8.50000000E-01  8.50000000E-01  7.20000000E-01
  8.50000000E-01  8.50000000E-01  8.50000000E-01  8.50000000E-01  8.50000000E-01
  7.20000000E-01  7.20000000E-01  8.50000000E-01  8.50000000E-01  8.50000000E-01
  7.20000000E-01  8.50000000E-01  8.50000000E-01  8.50000000E-01  8.50000000E-01
  9.60000000E-01  7.20000000E-01  7.20000000E-01  7.20000000E-01  7.20000000E-01
  7.20000000E-01  9.60000000E-01  7.20000000E-01  7.20000000E-01  8.50000000E-01
  7.20000000E-01  7.20000000E-01  7.20000000E-01  7.20000000E-01  7.20000000E-01
  8.50000000E-01  7.20000000E-01  7.20000000E-01  8.50000000E-01  8.50000000E-01
  7.20000000E-01  8.50000000E-01  8.50000000E-01  7.20000000E-01  8.50000000E-01
  8.50000000E-01  7.20000000E-01  8.50000000E-01  8.50000000E-01  7.20000000E-01
  7.20000000E-01  8.50000000E-01  8.50000000E-01  7.20000000E-01  7.20000000E-01
  7.20000000E-01  8.50000000E-01  8.50000000E-01  7.20000000E-01  8.50000000E-01
  7.20000000E-01  8.50000000E-01  7.20000000E-01  8.50000000E-01  8.50000000E-01
  7.20000000E-01  8.50000000E-01  8.50000000E-01  7.20000000E-01  8.50000000E-01
  8.50000000E-01  8.50000000E-01  8.50000000E-01  8.50000000E-01  7.20000000E-01
  7.20000000E-01  8.50000000E-01  8.50000000E-01  8.50000000E-01  7.20000000E-01
  8.50000000E-01  8.50000000E-01  8.50000000E-01  8.50000000E-01  9.60000000E-01
  7.20000000E-01  7.20000000E-01  7.20000000E-01  7.20000000E-01  7.20000000E-01
  9.60000000E-01  7.20000000E-01  7.20000000E-01  8.50000000E-01  7.20000000E-01
  7.20000000E-01  7.20000000E-01  7.20000000E-01  7.20000000E-01  8.50000000E-01
  7.20000000E-01  7.20000000E-01  8.50000000E-01  8.50000000E-01  7.20000000E-01
  8.50000000E-01  8.50000000E-01  7.20000000E-01  8.50000000E-01  8.50000000E-01
  7.20000000E-01  8.50000000E-01  8.50000000E-01  7.20000000E-01  7.20000000E-01
  8.50000000E-01  8.50000000E-01  7.20000000E-01  7.20000000E-01  7.20000000E-01
  8.50000000E-01  8.50000000E-01  7.20000000E-01  8.50000000E-01  7.20000000E-01
  8.50000000E-01  7.20000000E-01  8.50000000E-01  8.50000000E-01  7.20000000E-01
  8.50000000E-01  8.50000000E-01  7.20000000E-01  8.50000000E-01  8.50000000E-01
  8.50000000E-01  8.50000000E-01  8.50000000E-01  7.20000000E-01  7.20000000E-01
  8.50000000E-01  8.50000000E-01  8.50000000E-01  7.20000000E-01  8.50000000E-01
  8.50000000E-01  8.50000000E-01  8.50000000E-01  9.60000000E-01  7.20000000E-01
  7.20000000E-01  7.20000000E-01  7.20000000E-01  7.20000000E-01  9.60000000E-01
  7.20000000E-01  7.20000000E-01  8.50000000E-01  7.20000000E-01  7.20000000E-01
  7.20000000E-01  7.20000000E-01  7.20000000E-01  8.50000000E-01  7.20000000E-01
  7.20000000E-01  8.50000000E-01  8.50000000E-01  7.20000000E-01  8.50000000E-01
  8.50000000E-01  7.20000000E-01  8.50000000E-01  8.50000000E-01  7.20000000E-01
  8.50000000E-01  8.50000000E-01  7.20000000E-01  7.20000000E-01  8.50000000E-01
  8.50000000E-01  7.20000000E-01  7.20000000E-01  7.20000000E-01  8.50000000E-01
  8.50000000E-01  7.20000000E-01  8.50000000E-01  7.20000000E-01  8.50000000E-01
  7.20000000E-01  8.50000000E-01  8.50000000E-01  7.20000000E-01  8.50000000E-01
  8.50000000E-01  7.20000000E-01  8.50000000E-01  8.50000000E-01  8.50000000E-01
  8.50000000E-01  8.50000000E-01  7.20000000E-01  7.20000000E-01  8.50000000E-01
  8.50000000E-01  8.50000000E-01  7.20000000E-01  8.50000000E-01  8.50000000E-01
  8.50000000E-01  8.50000000E-01  9.60000000E-01  7.20000000E-01  7.20000000E-01
  7.20000000E-01  7.20000000E-01  7.20000000E-01  9.60000000E-01  7.20000000E-01
  7.20000000E-01  8.50000000E-01  7.20000000E-01  7.20000000E-01  7.20000000E-01
  7.20000000E-01  7.20000000E-01  8.50000000E-01  7.20000000E-01  7.20000000E-01
  8.50000000E-01  8.50000000E-01  7.20000000E-01  8.50000000E-01  8.50000000E-01
  7.20000000E-01  8.50000000E-01  8.50000000E-01  7.20000000E-01  8.50000000E-01
  8.50000000E-01  7.20000000E-01  7.20000000E-01  8.50000000E-01  8.50000000E-01
  7.20000000E-01  7.20000000E-01  7.20000000E-01  8.50000000E-01  8.50000000E-01
  7.20000000E-01  8.50000000E-01  7.20000000E-01  8.50000000E-01  7.20000000E-01
  8.50000000E-01  8.50000000E-01  7.20000000E-01  8.50000000E-01  8.50000000E-01
  7.20000000E-01  8.50000000E-01  8.50000000E-01  8.50000000E-01  8.50000000E-01
  8.50000000E-01  7.20000000E-01  7.20000000E-01  8.50000000E-01  8.50000000E-01
  8.50000000E-01  7.20000000E-01  8.50000000E-01  8.50000000E-01  8.50000000E-01
  8.50000000E-01  9.60000000E-01  7.20000000E-01  7.20000000E-01  7.20000000E-01
  7.20000000E-01  7.20000000E-01  9.60000000E-01  7.20000000E-01  7.20000000E-01
  8.50000000E-01  7.20000000E-01  7.20000000E-01  7.20000000E-01  7.20000000E-01
  7.20000000E-01  8.50000000E-01  7.20000000E-01  7.20000000E-01  8.50000000E-01
  8.50000000E-01  7.20000000E-01  8.50000000E-01  8.50000000E-01  7.20000000E-01
  8.50000000E-01  8.50000000E-01  7.20000000E-01  8.50000000E-01  8.50000000E-01
  7.20000000E-01  7.20000000E-01  8.50000000E-01  8.50000000E-01  7.20000000E-01
  7.20000000E-01  7.20000000E-01  8.50000000E-01  8.50000000E-01  7.20000000E-01
  8.50000000E-01  7.20000000E-01  8.50000000E-01  7.20000000E-01  8.50000000E-01
  8.50000000E-01  7.20000000E-01  8.50000000E-01  8.50000000E-01  7.20000000E-01
  8.50000000E-01  8.50000000E-01  8.50000000E-01  8.50000000E-01  8.50000000E-01
  7.20000000E-01  7.20000000E-01  8.50000000E-01  8.50000000E-01  8.50000000E-01
  7.20000000E-01  8.50000000E-01  8.50000000E-01  8.50000000E-01  8.50000000E-01
  9.60000000E-01  7.20000000E-01  7.20000000E-01  7.20000000E-01  7.20000000E-01
  7.20000000E-01  9.60000000E-01  7.20000000E-01  7.20000000E-01  8.50000000E-01
  7.20000000E-01  7.20000000E-01  7.20000000E-01  7.20000000E-01  7.20000000E-01
  8.50000000E-01  7.20000000E-01  7.20000000E-01  8.50000000E-01  8.50000000E-01
  7.20000000E-01  8.50000000E-01  8.50000000E-01  7.20000000E-01  8.50000000E-01
  8.50000000E-01  7.20000000E-01  8.50000000E-01  8.50000000E-01  7.20000000E-01
  7.20000000E-01  8.50000000E-01  8.50000000E-01  7.20000000E-01  7.20000000E-01
  7.20000000E-01  8.50000000E-01  8.50000000E-01  7.20000000E-01  8.50000000E-01
  7.20000000E-01  8.50000000E-01  7.20000000E-01  8.50000000E-01  8.50000000E-01
  7.20000000E-01  8.50000000E-01  8.50000000E-01  7.20000000E-01  8.50000000E-01
  8.50000000E-01  8.50000000E-01  8.50000000E-01  8.50000000E-01  7.20000000E-01
  7.20000000E-01  8.50000000E-01  8.50000000E-01  8.50000000E-01  7.20000000E-01
  8.50000000E-01  8.50000000E-01  8.50000000E-01  8.50000000E-01  9.60000000E-01
  7.20000000E-01  7.20000000E-01  7.20000000E-01  7.20000000E-01  7.20000000E-01
  9.60000000E-01  7.20000000E-01  7.20000000E-01  8.50000000E-01  7.20000000E-01
  7.20000000E-01  7.20000000E-01  7.20000000E-01  7.20000000E-01  8.50000000E-01
  7.20000000E-01  7.20000000E-01  8.50000000E-01  8.50000000E-01  7.20000000E-01
  8.50000000E-01  8.50000000E-01  7.20000000E-01  8.50000000E-01  8.50000000E-01
  7.20000000E-01  8.50000000E-01  8.50000000E-01  7.20000000E-01  7.20000000E-01
  8.50000000E-01  8.50000000E-01  7.20000000E-01  7.20000000E-01  7.20000000E-01
  8.50000000E-01  8.50000000E-01  7.20000000E-01  8.50000000E-01  7.20000000E-01
  8.50000000E-01  7.20000000E-01  8.50000000E-01  8.50000000E-01  7.20000000E-01
  8.50000000E-01  8.50000000E-01  7.20000000E-01  8.50000000E-01  8.50000000E-01
  8.50000000E-01  8.50000000E-01  8.50000000E-01  7.20000000E-01  7.20000000E-01
  8.50000000E-01  8.50000000E-01  8.50000000E-01  7.20000000E-01  8.50000000E-01
  8.50000000E-01  8.50000000E-01  8.50000000E-01  9.60000000E-01  7.20000000E-01
  7.20000000E-01  7.20000000E-01  7.20000000E-01  7.20000000E-01  9.60000000E-01
  7.20000000E-01  7.20000000E-01  8.50000000E-01  7.20000000E-01  7.20000000E-01
  7.20000000E-01  7.20000000E-01  7.20000000E-01  8.50000000E-01  7.20000000E-01
  7.20000000E-01  8.50000000E-01  8.50000000E-01  7.20000000E-01  8.50000000E-01
  8.50000000E-01  7.20000000E-01  8.50000000E-01  8.50000000E-01  7.20000000E-01
  8.50000000E-01  8.50000000E-01  7.20000000E-01  7.20000000E-01  8.50000000E-01
  8.50000000E-01  7.20000000E-01  7.20000000E-01  7.20000000E-01  8.50000000E-01
  8.50000000E-01  7.20000000E-01  8.50000000E-01  7.20000000E-01  8.50000000E-01
  7.20000000E-01  8.50000000E-01  8.50000000E-01  7.20000000E-01  8.50000000E-01
  8.50000000E-01  7.20000000E-01  8.50000000E-01  8.50000000E-01  8.50000000E-01
  8.50000000E-01  8.50000000E-01  7.20000000E-01  7.20000000E-01  8.50000000E-01
  8.50000000E-01  8.50000000E-01  7.20000000E-01  8.50000000E-01  8.50000000E-01
  8.50000000E-01  8.50000000E-01  9.60000000E-01  7.20000000E-01  7.20000000E-01
  7.20000000E-01  7.20000000E-01  7.20000000E-01  9.60000000E-01  7.20000000E-01
  7.20000000E-01  8.50000000E-01  7.20000000E-01  7.20000000E-01  7.20000000E-01
  7.20000000E-01  7.20000000E-01  8.50000000E-01  7.20000000E-01  7.20000000E-01
  8.50000000E-01  8.50000000E-01  7.20000000E-01  8.50000000E-01  8.50000000E-01
  7.20000000E-01  8.50000000E-01  8.50000000E-01  7.20000000E-01  8.50000000E-01
  8.50000000E-01  7.20000000E-01  7.20000000E-01  8.50000000E-01  8.50000000E-01
  7.20000000E-01  7.20000000E-01  7.20000000E-01  8.50000000E-01  8.50000000E-01
  7.20000000E-01  8.50000000E-01  7.20000000E-01  8.50000000E-01  7.20000000E-01
  8.50000000E-01  8.50000000E-01  7.20000000E-01  8.50000000E-01  8.50000000E-01
  7.20000000E-01  8.50000000E-01  8.50000000E-01  8.50000000E-01  8.50000000E-01
  8.50000000E-01  7.20000000E-01  7.20000000E-01  8.50000000E-01  8.50000000E-01
  8.50000000E-01  7.20000000E-01  8.50000000E-01  8.50000000E-01  8.50000000E-01
  8.50000000E-01  9.60000000E-01  7.20000000E-01  7.20000000E-01  7.20000000E-01
  7.20000000E-01  7.20000000E-01  9.60000000E-01  7.20000000E-01  7.20000000E-01
  8.50000000E-01  7.20000000E-01  7.20000000E-01  7.20000000E-01  7.20000000E-01
  7.20000000E-01  8.50000000E-01  7.20000000E-01  7.20000000E-01  8.50000000E-01
  8.50000000E-01  7.20000000E-01  8.50000000E-01  8.50000000E-01  7.20000000E-01
  8.50000000E-01  8.50000000E-01  7.20000000E-01  8.50000000E-01  8.50000000E-01
  7.20000000E-01  7.20000000E-01  8.50000000E-01  8.50000000E-01  7.20000000E-01
  7.20000000E-01  7.20000000E-01  8.50000000E-01  8.50000000E-01  7.20000000E-01
  8.50000000E-01  7.20000000E-01  8.50000000E-01  7.20000000E-01  8.50000000E-01
  8.50000000E-01  7.20000000E-01  8.50000000E-01  8.50000000E-01  7.20000000E-01
  8.50000000E-01  8.50000000E-01  8.50000000E-01  8.50000000E-01  8.50000000E-01
  7.20000000E-01  7.20000000E-01  8.50000000E-01  8.50000000E-01  8.50000000E-01
  7.20000000E-01  8.50000000E-01  8.50000000E-01  8.50000000E-01  8.50000000E-01
  9.60000000E-01  7.20000000E-01  7.20000000E-01  7.20000000E-01  7.20000000E-01
  7.20000000E-01  9.60000000E-01  7.20000000E-01  7.20000000E-01  8.50000000E-01
  7.20000000E-01  7.20000000E-01  7.20000000E-01  7.20000000E-01  7.20000000E-01
  8.50000000E-01  7.20000000E-01  7.20000000E-01  8.50000000E-01  8.50000000E-01
  7.20000000E-01  8.50000000E-01  8.50000000E-01  7.20000000E-01  8.50000000E-01
  8.50000000E-01  7.20000000E-01  8.50000000E-01  8.50000000E-01  7.20000000E-01
  7.20000000E-01  8.50000000E-01  8.50000000E-01  7.20000000E-01  7.20000000E-01
  7.20000000E-01  8.50000000E-01  8.50000000E-01  7.20000000E-01  8.50000000E-01
  7.20000000E-01  8.50000000E-01  7.20000000E-01  8.50000000E-01  8.50000000E-01
  7.20000000E-01  8.50000000E-01  8.50000000E-01  7.20000000E-01  8.50000000E-01
  8.50000000E-01  8.50000000E-01  8.50000000E-01  8.50000000E-01  7.20000000E-01
  7.20000000E-01  8.50000000E-01  8.50000000E-01  8.50000000E-01  7.20000000E-01
  8.50000000E-01  8.50000000E-01  8.50000000E-01  8.50000000E-01  9.60000000E-01
  7.20000000E-01  7.20000000E-01  7.20000000E-01  7.20000000E-01  7.20000000E-01
  9.60000000E-01  7.20000000E-01  7.20000000E-01  8.50000000E-01  7.20000000E-01
  7.20000000E-01  7.20000000E-01  7.20000000E-01  7.20000000E-01  8.50000000E-01
  7.20000000E-01  7.20000000E-01  8.50000000E-01  8.50000000E-01  7.20000000E-01
  8.50000000E-01  8.50000000E-01  7.20000000E-01  8.50000000E-01  8.50000000E-01
  7.20000000E-01  8.50000000E-01  8.50000000E-01  7.20000000E-01  7.20000000E-01
  8.50000000E-01  8.50000000E-01  7.20000000E-01  7.20000000E-01  7.20000000E-01
  8.50000000E-01  8.50000000E-01  7.20000000E-01  8.50000000E-01  7.20000000E-01
  8.50000000E-01  7.20000000E-01  8.50000000E-01  8.50000000E-01  7.20000000E-01
  8.50000000E-01  8.50000000E-01  7.20000000E-01  8.50000000E-01  8.50000000E-01
  8.50000000E-01  8.50000000E-01  8.50000000E-01  7.20000000E-01  7.20000000E-01
  8.50000000E-01  8.50000000E-01  8.50000000E-01  7.20000000E-01  8.50000000E-01
  8.50000000E-01  8.50000000E-01  8.50000000E-01  9.60000000E-01  7.20000000E-01
  7.20000000E-01  7.20000000E-01  7.20000000E-01  7.20000000E-01  9.60000000E-01
  7.20000000E-01  7.20000000E-01  8.50000000E-01  7.20000000E-01  7.20000000E-01
  7.20000000E-01  7.20000000E-01  7.20000000E-01  8.50000000E-01  7.20000000E-01
  7.20000000E-01  8.50000000E-01  8.50000000E-01  7.20000000E-01  8.50000000E-01
  8.50000000E-01  7.20000000E-01  8.50000000E-01  8.50000000E-01  7.20000000E-01
  8.50000000E-01  8.50000000E-01  7.20000000E-01  7.20000000E-01  8.50000000E-01
  8.50000000E-01  7.20000000E-01  7.20000000E-01  7.20000000E-01  8.50000000E-01
  8.50000000E-01  7.20000000E-01  8.50000000E-01  7.20000000E-01  8.50000000E-01
  7.20000000E-01  8.50000000E-01  8.50000000E-01  7.20000000E-01  8.50000000E-01
  8.50000000E-01  7.20000000E-01  8.50000000E-01  8.50000000E-01  8.50000000E-01
  8.50000000E-01  8.50000000E-01  7.20000000E-01  7.20000000E-01  8.50000000E-01
  8.50000000E-01  8.50000000E-01  7.20000000E-01  8.50000000E-01  8.50000000E-01
  8.50000000E-01  8.50000000E-01  9.60000000E-01  7.20000000E-01  7.20000000E-01
  7.20000000E-01  7.20000000E-01  7.20000000E-01  9.60000000E-01  7.20000000E-01
  7.20000000E-01  8.50000000E-01  7.20000000E-01  7.20000000E-01  7.20000000E-01
  7.20000000E-01  7.20000000E-01  8.50000000E-01  7.20000000E-01  7.20000000E-01
  8.50000000E-01  8.50000000E-01  7.20000000E-01  8.50000000E-01  8.50000000E-01
  7.20000000E-01  8.50000000E-01  8.50000000E-01  7.20000000E-01  8.50000000E-01
  8.50000000E-01  7.20000000E-01  7.20000000E-01  8.50000000E-01  8.50000000E-01
  7.20000000E-01  7.20000000E-01  7.20000000E-01  8.50000000E-01  8.50000000E-01
  7.20000000E-01  8.50000000E-01  7.20000000E-01  8.50000000E-01  7.20000000E-01
  8.50000000E-01  8.50000000E-01  7.20000000E-01  8.50000000E-01  8.50000000E-01
  7.20000000E-01  8.50000000E-01  8.50000000E-01  8.50000000E-01  8.50000000E-01
  8.50000000E-01  7.20000000E-01  7.20000000E-01  8.50000000E-01  8.50000000E-01
  8.50000000E-01  7.20000000E-01  8.50000000E-01  8.50000000E-01  8.50000000E-01
  8.50000000E-01  9.60000000E-01  7.20000000E-01  7.20000000E-01  7.20000000E-01
  7.20000000E-01  7.20000000E-01  9.60000000E-01  7.20000000E-01  7.20000000E-01
  8.50000000E-01  7.20000000E-01  7.20000000E-01  7.20000000E-01  7.20000000E-01
  7.20000000E-01  8.50000000E-01  7.20000000E-01  7.20000000E-01  8.50000000E-01
  8.50000000E-01  7.20000000E-01  8.50000000E-01  8.50000000E-01  7.20000000E-01
  8.50000000E-01  8.50000000E-01  7.20000000E-01  8.50000000E-01  8.50000000E-01
  7.20000000E-01  7.20000000E-01  8.50000000E-01  8.50000000E-01  7.20000000E-01
  7.20000000E-01  7.20000000E-01  8.50000000E-01  8.50000000E-01  7.20000000E-01
  8.50000000E-01  7.20000000E-01  8.50000000E-01  7.20000000E-01  8.50000000E-01
  8.50000000E-01  7.20000000E-01  8.50000000E-01  8.50000000E-01  7.20000000E-01
  8.50000000E-01  8.50000000E-01  8.50000000E-01  8.50000000E-01  8.50000000E-01
  7.20000000E-01  7.20000000E-01  8.50000000E-01  8.50000000E-01  8.50000000E-01
  7.20000000E-01  8.50000000E-01  8.50000000E-01  8.50000000E-01  8.50000000E-01
  9.60000000E-01  7.20000000E-01  7.20000000E-01  7.20000000E-01  7.20000000E-01
  7.20000000E-01  9.60000000E-01  7.20000000E-01  7.20000000E-01  8.50000000E-01
  7.20000000E-01  7.20000000E-01  7.20000000E-01  7.20000000E-01  7.20000000E-01
  8.50000000E-01  7.20000000E-01  7.20000000E-01  8.50000000E-01  8.50000000E-01
  7.20000000E-01  8.50000000E-01  8.50000000E-01  7.20000000E-01  8.50000000E-01
  8.50000000E-01  7.20000000E-01  8.50000000E-01  8.50000000E-01  7.20000000E-01
  7.20000000E-01  8.50000000E-01  8.50000000E-01  7.20000000E-01  7.20000000E-01
  7.20000000E-01  8.50000000E-01  8.50000000E-01  7.20000000E-01  8.50000000E-01
  7.20000000E-01  8.50000000E-01  7.20000000E-01  8.50000000E-01  8.50000000E-01
  7.20000000E-01  8.50000000E-01  8.50000000E-01  7.20000000E-01  8.50000000E-01
  8.50000000E-01  8.50000000E-01  8.50000000E-01  8.50000000E-01  7.20000000E-01
  7.20000000E-01  8.50000000E-01  8.50000000E-01  8.50000000E-01  7.20000000E-01
  8.50000000E-01  8.50000000E-01  8.50000000E-01  8.50000000E-01  9.60000000E-01
  7.20000000E-01  7.20000000E-01  7.20000000E-01  7.20000000E-01  7.20000000E-01
  9.60000000E-01  7.20000000E-01  7.20000000E-01  8.50000000E-01  7.20000000E-01
  7.20000000E-01  7.20000000E-01  7.20000000E-01  7.20000000E-01  8.50000000E-01
  7.20000000E-01  7.20000000E-01  8.50000000E-01  8.50000000E-01  7.20000000E-01
  8.50000000E-01  8.50000000E-01  7.20000000E-01  8.50000000E-01  8.50000000E-01
  7.20000000E-01  8.50000000E-01  8.50000000E-01  7.20000000E-01  7.20000000E-01
  8.50000000E-01  8.50000000E-01  7.20000000E-01  7.20000000E-01  7.20000000E-01
  8.50000000E-01  8.50000000E-01  7.20000000E-01  8.50000000E-01  7.20000000E-01
  8.50000000E-01  7.20000000E-01  8.50000000E-01  8.50000000E-01  7.20000000E-01
  8.50000000E-01  8.50000000E-01  7.20000000E-01  8.50000000E-01  8.50000000E-01
  8.50000000E-01  8.50000000E-01  8.50000000E-01  7.20000000E-01  7.20000000E-01
  8.50000000E-01  8.50000000E-01  8.50000000E-01  7.20000000E-01  8.50000000E-01
  8.50000000E-01  8.50000000E-01  8.50000000E-01  9.60000000E-01  7.20000000E-01
  7.20000000E-01  7.20000000E-01  7.20000000E-01  7.20000000E-01  9.60000000E-01
  7.20000000E-01  7.20000000E-01  8.50000000E-01  7.20000000E-01  7.20000000E-01
  7.20000000E-01  7.20000000E-01  7.20000000E-01  8.50000000E-01  7.20000000E-01
  7.20000000E-01  8.50000000E-01  8.50000000E-01  7.20000000E-01  8.50000000E-01
  8.50000000E-01  7.20000000E-01  8.50000000E-01  8.50000000E-01  7.20000000E-01
  8.50000000E-01  8.50000000E-01  7.20000000E-01  7.20000000E-01  8.50000000E-01
  8.50000000E-01  7.20000000E-01  7.20000000E-01  7.20000000E-01  8.50000000E-01
  8.50000000E-01  7.20000000E-01  8.50000000E-01  7.20000000E-01  8.50000000E-01
  7.20000000E-01  8.50000000E-01  8.50000000E-01  7.20000000E-01  8.50000000E-01
  8.50000000E-01  7.20000000E-01  8.50000000E-01  8.50000000E-01  8.50000000E-01
  8.50000000E-01  8.50000000E-01  7.20000000E-01  7.20000000E-01  8.50000000E-01
  8.50000000E-01  8.50000000E-01  7.20000000E-01  8.50000000E-01  8.50000000E-01
  8.50000000E-01  8.50000000E-01  9.60000000E-01  7.20000000E-01  7.20000000E-01
  7.20000000E-01  7.20000000E-01  7.20000000E-01  9.60000000E-01  7.20000000E-01
  7.20000000E-01  8.50000000E-01  7.20000000E-01  7.20000000E-01  7.20000000E-01
  7.20000000E-01  7.20000000E-01  8.50000000E-01  7.20000000E-01  7.20000000E-01
  8.50000000E-01  8.50000000E-01  7.20000000E-01  8.50000000E-01  8.50000000E-01
  7.20000000E-01  8.50000000E-01  8.50000000E-01  7.20000000E-01  8.50000000E-01
  8.50000000E-01  7.20000000E-01  7.20000000E-01  8.50000000E-01  8.50000000E-01
  7.20000000E-01  7.20000000E-01  7.20000000E-01  8.50000000E-01  8.50000000E-01
  7.20000000E-01  8.50000000E-01  7.20000000E-01  8.50000000E-01  7.20000000E-01
  8.50000000E-01  8.50000000E-01  7.20000000E-01  8.50000000E-01  8.50000000E-01
  7.20000000E-01  8.50000000E-01  8.50000000E-01  8.50000000E-01  8.50000000E-01
  8.50000000E-01  7.20000000E-01  7.20000000E-01  8.50000000E-01  8.50000000E-01
  8.50000000E-01  7.20000000E-01  8.50000000E-01  8.50000000E-01  8.50000000E-01
  8.50000000E-01  9.60000000E-01  7.20000000E-01  7.20000000E-01  7.20000000E-01
  7.20000000E-01  7.20000000E-01  9.60000000E-01  7.20000000E-01  7.20000000E-01
  8.50000000E-01  7.20000000E-01  7.20000000E-01  7.20000000E-01  7.20000000E-01
  7.20000000E-01  8.50000000E-01  7.20000000E-01  7.20000000E-01  8.50000000E-01
  8.50000000E-01  7.20000000E-01  8.50000000E-01  8.50000000E-01  7.20000000E-01
  8.50000000E-01  8.50000000E-01  7.20000000E-01  8.50000000E-01  8.50000000E-01
  7.20000000E-01  7.20000000E-01  8.50000000E-01  8.50000000E-01  7.20000000E-01
  7.20000000E-01  7.20000000E-01  8.50000000E-01  8.50000000E-01  7.20000000E-01
  8.50000000E-01  7.20000000E-01  8.50000000E-01  7.20000000E-01  8.50000000E-01
  8.50000000E-01  7.20000000E-01  8.50000000E-01  8.50000000E-01  7.20000000E-01
  8.50000000E-01  8.50000000E-01  8.50000000E-01  8.50000000E-01  8.50000000E-01
  7.20000000E-01  7.20000000E-01  8.50000000E-01  8.50000000E-01  8.50000000E-01
  7.20000000E-01  8.50000000E-01  8.50000000E-01  8.50000000E-01  8.50000000E-01
  9.60000000E-01  7.20000000E-01  7.20000000E-01  7.20000000E-01  7.20000000E-01
  7.20000000E-01  9.60000000E-01  7.20000000E-01  7.20000000E-01  8.50000000E-01
  7.20000000E-01  7.20000000E-01  7.20000000E-01  7.20000000E-01  7.20000000E-01
  8.50000000E-01  7.20000000E-01  7.20000000E-01  8.50000000E-01  8.50000000E-01
  7.20000000E-01  8.50000000E-01  8.50000000E-01  7.20000000E-01  8.50000000E-01
  8.50000000E-01  7.20000000E-01  8.50000000E-01  8.50000000E-01  7.20000000E-01
  7.20000000E-01  8.50000000E-01  8.50000000E-01  7.20000000E-01  7.20000000E-01
  7.20000000E-01  8.50000000E-01  8.50000000E-01  7.20000000E-01  8.50000000E-01
  7.20000000E-01  8.50000000E-01  7.20000000E-01  8.50000000E-01  8.50000000E-01
  7.20000000E-01  8.50000000E-01  8.50000000E-01  7.20000000E-01  8.50000000E-01
  8.50000000E-01  8.50000000E-01  8.50000000E-01  8.50000000E-01  7.20000000E-01
  7.20000000E-01  8.50000000E-01  8.50000000E-01  8.50000000E-01  7.20000000E-01
  8.50000000E-01  8.50000000E-01  8.50000000E-01  8.50000000E-01  9.60000000E-01
  7.20000000E-01  7.20000000E-01  7.20000000E-01  7.20000000E-01  7.20000000E-01
  9.60000000E-01  7.20000000E-01  7.20000000E-01  8.50000000E-01  7.20000000E-01
  7.20000000E-01  7.20000000E-01  7.20000000E-01  7.20000000E-01  8.50000000E-01
  7.20000000E-01  7.20000000E-01  8.50000000E-01  8.50000000E-01  7.20000000E-01
  8.50000000E-01  8.50000000E-01  7.20000000E-01  8.50000000E-01  8.50000000E-01
  7.20000000E-01  8.50000000E-01  8.50000000E-01  7.20000000E-01  7.20000000E-01
  8.50000000E-01  8.50000000E-01  7.20000000E-01  7.20000000E-01  7.20000000E-01
  8.50000000E-01  8.50000000E-01  7.20000000E-01  8.50000000E-01  7.20000000E-01
  8.50000000E-01  7.20000000E-01  8.50000000E-01  8.50000000E-01  7.20000000E-01
  8.50000000E-01  8.50000000E-01  7.20000000E-01  8.50000000E-01  8.50000000E-01
  8.50000000E-01  8.50000000E-01  8.50000000E-01  7.20000000E-01  7.20000000E-01
  8.50000000E-01  8.50000000E-01  8.50000000E-01  7.20000000E-01  8.50000000E-01
  8.50000000E-01  8.50000000E-01  8.50000000E-01  9.60000000E-01  7.20000000E-01
  7.20000000E-01  7.20000000E-01  7.20000000E-01  7.20000000E-01  9.60000000E-01
  7.20000000E-01  7.20000000E-01  8.50000000E-01  7.20000000E-01  7.20000000E-01
  7.20000000E-01  7.20000000E-01  7.20000000E-01  8.50000000E-01  7.20000000E-01
  7.20000000E-01  8.50000000E-01  8.50000000E-01  7.20000000E-01  8.50000000E-01
  8.50000000E-01  7.20000000E-01  8.50000000E-01  8.50000000E-01  7.20000000E-01
  8.50000000E-01  8.50000000E-01  7.20000000E-01  7.20000000E-01  8.50000000E-01
  8.50000000E-01  7.20000000E-01  7.20000000E-01  7.20000000E-01  8.50000000E-01
  8.50000000E-01  7.20000000E-01  8.50000000E-01  7.20000000E-01  8.50000000E-01
  7.20000000E-01  8.50000000E-01  8.50000000E-01  7.20000000E-01  8.50000000E-01
  8.50000000E-01  7.20000000E-01  8.50000000E-01  8.50000000E-01  8.50000000E-01
  8.50000000E-01  8.50000000E-01  7.20000000E-01  7.20000000E-01  8.50000000E-01
  8.50000000E-01  8.50000000E-01  7.20000000E-01  8.50000000E-01  8.50000000E-01
  8.50000000E-01  8.50000000E-01  9.60000000E-01  7.20000000E-01  7.20000000E-01
  7.20000000E-01  7.20000000E-01  7.20000000E-01  9.60000000E-01  7.20000000E-01
  7.20000000E-01  8.50000000E-01  7.20000000E-01  7.20000000E-01  7.20000000E-01
  7.20000000E-01  7.20000000E-01  8.50000000E-01  7.20000000E-01  7.20000000E-01
  8.50000000E-01  8.50000000E-01  7.20000000E-01  8.50000000E-01  8.50000000E-01
  7.20000000E-01  8.50000000E-01  8.50000000E-01  7.20000000E-01  8.50000000E-01
  8.50000000E-01  7.20000000E-01  7.20000000E-01  8.50000000E-01  8.50000000E-01
  7.20000000E-01  7.20000000E-01  7.20000000E-01  8.50000000E-01  8.50000000E-01
  7.20000000E-01  8.50000000E-01  7.20000000E-01  8.50000000E-01  7.20000000E-01
  8.50000000E-01  8.50000000E-01  7.20000000E-01  8.50000000E-01  8.50000000E-01
  7.20000000E-01  8.50000000E-01  8.50000000E-01  8.50000000E-01  8.50000000E-01
  8.50000000E-01  7.20000000E-01  7.20000000E-01  8.50000000E-01  8.50000000E-01
  8.50000000E-01  7.20000000E-01  8.50000000E-01  8.50000000E-01  8.50000000E-01
  8.50000000E-01  9.60000000E-01  7.20000000E-01  7.20000000E-01  7.20000000E-01
  7.20000000E-01  7.20000000E-01  9.60000000E-01  7.20000000E-01  7.20000000E-01
  8.50000000E-01  7.20000000E-01  7.20000000E-01  7.20000000E-01  7.20000000E-01
  7.20000000E-01  8.50000000E-01  7.20000000E-01  7.20000000E-01  8.50000000E-01
  8.50000000E-01  7.20000000E-01  8.50000000E-01  8.50000000E-01  7.20000000E-01
  8.50000000E-01  8.50000000E-01  7.20000000E-01  8.50000000E-01  8.50000000E-01
  7.20000000E-01  7.20000000E-01  8.50000000E-01  8.50000000E-01  7.20000000E-01
  7.20000000E-01  7.20000000E-01  8.50000000E-01  8.50000000E-01  7.20000000E-01
  8.50000000E-01  7.20000000E-01  8.50000000E-01  7.20000000E-01  8.50000000E-01
  8.50000000E-01  7.20000000E-01  8.50000000E-01  8.50000000E-01  7.20000000E-01
  8.50000000E-01  8.50000000E-01  8.50000000E-01  8.50000000E-01  8.50000000E-01
  7.20000000E-01  7.20000000E-01  8.50000000E-01  8.50000000E-01  8.50000000E-01
  7.20000000E-01  8.50000000E-01  8.50000000E-01  8.50000000E-01  8.50000000E-01
  9.60000000E-01  7.20000000E-01  7.20000000E-01  7.20000000E-01  7.20000000E-01
  7.20000000E-01  9.60000000E-01  7.20000000E-01  7.20000000E-01  8.50000000E-01
  7.20000000E-01  7.20000000E-01  7.20000000E-01  7.20000000E-01  7.20000000E-01
  8.50000000E-01  7.20000000E-01  7.20000000E-01  8.50000000E-01  8.50000000E-01
  7.20000000E-01  8.50000000E-01  8.50000000E-01  7.20000000E-01  8.50000000E-01
  8.50000000E-01  7.20000000E-01  8.50000000E-01  8.50000000E-01  7.20000000E-01
  7.20000000E-01  8.50000000E-01  8.50000000E-01  7.20000000E-01  7.20000000E-01
  7.20000000E-01  8.50000000E-01  8.50000000E-01  7.20000000E-01  8.50000000E-01
  7.20000000E-01  8.50000000E-01  7.20000000E-01  8.50000000E-01  8.50000000E-01
  7.20000000E-01  8.50000000E-01  8.50000000E-01  7.20000000E-01  8.50000000E-01
  8.50000000E-01  8.50000000E-01  8.50000000E-01  8.50000000E-01  7.20000000E-01
  7.20000000E-01  8.50000000E-01  8.50000000E-01  8.50000000E-01  7.20000000E-01
  8.50000000E-01  8.50000000E-01  8.50000000E-01  8.50000000E-01  9.60000000E-01
  7.20000000E-01  7.20000000E-01  7.20000000E-01  7.20000000E-01  7.20000000E-01
  9.60000000E-01  7.20000000E-01  7.20000000E-01  8.50000000E-01  7.20000000E-01
  7.20000000E-01  7.20000000E-01  7.20000000E-01  7.20000000E-01  8.50000000E-01
  7.20000000E-01  7.20000000E-01  8.50000000E-01  8.50000000E-01  7.20000000E-01
  8.50000000E-01  8.50000000E-01  7.20000000E-01  8.50000000E-01  8.50000000E-01
  7.20000000E-01  8.50000000E-01  8.50000000E-01  7.20000000E-01  7.20000000E-01
  8.50000000E-01  8.50000000E-01  7.20000000E-01  7.20000000E-01  7.20000000E-01
  8.50000000E-01  8.50000000E-01  7.20000000E-01  8.50000000E-01  7.20000000E-01
  8.50000000E-01  7.20000000E-01  8.50000000E-01  8.50000000E-01  7.20000000E-01
  8.50000000E-01  8.50000000E-01  7.20000000E-01  8.50000000E-01  8.50000000E-01
  8.50000000E-01  8.50000000E-01  8.50000000E-01  7.20000000E-01  7.20000000E-01
  8.50000000E-01  8.50000000E-01  8.50000000E-01  7.20000000E-01  8.50000000E-01
  8.50000000E-01  8.50000000E-01  8.50000000E-01  9.60000000E-01  7.20000000E-01
  7.20000000E-01  7.20000000E-01  7.20000000E-01  7.20000000E-01  9.60000000E-01
  7.20000000E-01  7.20000000E-01  8.50000000E-01  7.20000000E-01  7.20000000E-01
  7.20000000E-01  7.20000000E-01  7.20000000E-01  8.50000000E-01  7.20000000E-01
  7.20000000E-01  8.50000000E-01  8.50000000E-01  7.20000000E-01  8.50000000E-01
  8.50000000E-01  7.20000000E-01  8.50000000E-01  8.50000000E-01  7.20000000E-01
  8.50000000E-01  8.50000000E-01  7.20000000E-01  7.20000000E-01  8.50000000E-01
  8.50000000E-01  7.20000000E-01  7.20000000E-01  7.20000000E-01  8.50000000E-01
  8.50000000E-01  7.20000000E-01  8.50000000E-01  7.20000000E-01  8.50000000E-01
  7.20000000E-01  8.50000000E-01  8.50000000E-01  7.20000000E-01  8.50000000E-01
  8.50000000E-01  7.20000000E-01  8.50000000E-01  8.50000000E-01  8.50000000E-01
  8.50000000E-01  8.50000000E-01  7.20000000E-01  7.20000000E-01  8.50000000E-01
  8.50000000E-01  8.50000000E-01  7.20000000E-01  8.50000000E-01  8.50000000E-01
  8.50000000E-01  8.50000000E-01  9.60000000E-01  7.20000000E-01  7.20000000E-01
  7.20000000E-01  7.20000000E-01  7.20000000E-01  9.60000000E-01  7.20000000E-01
  7.20000000E-01  8.50000000E-01  7.20000000E-01  7.20000000E-01  7.20000000E-01
  7.20000000E-01  7.20000000E-01  8.50000000E-01  7.20000000E-01  7.20000000E-01
  8.50000000E-01  8.50000000E-01  7.20000000E-01  8.50000000E-01  8.50000000E-01
  7.20000000E-01  8.50000000E-01  8.50000000E-01  7.20000000E-01  8.50000000E-01
  8.50000000E-01  7.20000000E-01  7.20000000E-01  8.50000000E-01  8.50000000E-01
  7.20000000E-01  7.20000000E-01  7.20000000E-01  8.50000000E-01  8.50000000E-01
  7.20000000E-01  8.50000000E-01  7.20000000E-01  8.50000000E-01  7.20000000E-01
  8.50000000E-01  8.50000000E-01  7.20000000E-01  8.50000000E-01  8.50000000E-01
  7.20000000E-01  8.50000000E-01  8.50000000E-01  8.50000000E-01  8.50000000E-01
  8.50000000E-01  7.20000000E-01  7.20000000E-01  8.50000000E-01  8.50000000E-01
  8.50000000E-01  7.20000000E-01  8.50000000E-01  8.50000000E-01  8.50000000E-01
  8.50000000E-01  9.60000000E-01  7.20000000E-01  7.20000000E-01  7.20000000E-01
  7.20000000E-01  7.20000000E-01  9.60000000E-01  7.20000000E-01  7.20000000E-01
  8.50000000E-01  7.20000000E-01  7.20000000E-01  7.20000000E-01  7.20000000E-01
  7.20000000E-01  8.50000000E-01  7.20000000E-01  7.20000000E-01  8.50000000E-01
  8.50000000E-01  7.20000000E-01  8.50000000E-01  8.50000000E-01  7.20000000E-01
  8.50000000E-01  8.50000000E-01  7.20000000E-01  8.50000000E-01  8.50000000E-01
  7.20000000E-01  7.20000000E-01  8.50000000E-01  8.50000000E-01  7.20000000E-01
  7.20000000E-01  7.20000000E-01  8.50000000E-01  8.50000000E-01  7.20000000E-01
  8.50000000E-01  7.20000000E-01  8.50000000E-01  7.20000000E-01  8.50000000E-01
  8.50000000E-01  7.20000000E-01  8.50000000E-01  8.50000000E-01  7.20000000E-01
  8.50000000E-01  8.50000000E-01  8.50000000E-01  8.50000000E-01  8.50000000E-01
  7.20000000E-01  7.20000000E-01  8.50000000E-01  8.50000000E-01  8.50000000E-01
  7.20000000E-01  8.50000000E-01  8.50000000E-01  8.50000000E-01  8.50000000E-01
  9.60000000E-01  7.20000000E-01  7.20000000E-01  7.20000000E-01  7.20000000E-01
  7.20000000E-01  9.60000000E-01  7.20000000E-01  7.20000000E-01  8.50000000E-01
  7.20000000E-01  7.20000000E-01  7.20000000E-01  7.20000000E-01  7.20000000E-01
  8.50000000E-01  7.20000000E-01  7.20000000E-01  8.50000000E-01  8.50000000E-01
  7.20000000E-01  8.50000000E-01  8.50000000E-01  7.20000000E-01  8.50000000E-01
  8.50000000E-01  7.20000000E-01  8.50000000E-01  8.50000000E-01  7.20000000E-01
  7.20000000E-01  8.50000000E-01  8.50000000E-01  7.20000000E-01  7.20000000E-01
  7.20000000E-01  8.50000000E-01  8.50000000E-01  7.20000000E-01  8.50000000E-01
  7.20000000E-01  8.50000000E-01  7.20000000E-01  8.50000000E-01  8.50000000E-01
  7.20000000E-01  8.50000000E-01  8.50000000E-01  7.20000000E-01  8.50000000E-01
  8.50000000E-01  8.50000000E-01  8.50000000E-01  8.50000000E-01  7.20000000E-01
  7.20000000E-01  8.50000000E-01  8.50000000E-01  8.50000000E-01  7.20000000E-01
  8.50000000E-01  8.50000000E-01  8.50000000E-01  8.50000000E-01  9.60000000E-01
  7.20000000E-01  7.20000000E-01  7.20000000E-01  7.20000000E-01  7.20000000E-01
  9.60000000E-01  7.20000000E-01  7.20000000E-01  8.50000000E-01  7.20000000E-01
  7.20000000E-01  7.20000000E-01  7.20000000E-01  7.20000000E-01  8.50000000E-01
  7.20000000E-01  7.20000000E-01  8.50000000E-01  8.50000000E-01  7.20000000E-01
  8.50000000E-01  8.50000000E-01  7.20000000E-01  8.50000000E-01  8.50000000E-01
  7.20000000E-01  8.50000000E-01  8.50000000E-01  7.20000000E-01  7.20000000E-01
  8.50000000E-01  8.50000000E-01  7.20000000E-01  7.20000000E-01  7.20000000E-01
  8.50000000E-01  8.50000000E-01  7.20000000E-01  8.50000000E-01  7.20000000E-01
  8.50000000E-01  7.20000000E-01  8.50000000E-01  8.50000000E-01  7.20000000E-01
  8.50000000E-01  8.50000000E-01  7.20000000E-01  8.50000000E-01  8.50000000E-01
  8.50000000E-01  8.50000000E-01  8.50000000E-01  7.20000000E-01  7.20000000E-01
  8.50000000E-01  8.50000000E-01  8.50000000E-01  7.20000000E-01  8.50000000E-01
  8.50000000E-01  8.50000000E-01  8.50000000E-01  9.60000000E-01  7.20000000E-01
  7.20000000E-01  7.20000000E-01  7.20000000E-01  7.20000000E-01  9.60000000E-01
  7.20000000E-01  7.20000000E-01  8.50000000E-01  7.20000000E-01  7.20000000E-01
  7.20000000E-01  7.20000000E-01  7.20000000E-01  8.50000000E-01  7.20000000E-01
  7.20000000E-01  8.50000000E-01  8.50000000E-01  7.20000000E-01  8.50000000E-01
  8.50000000E-01  7.20000000E-01  8.50000000E-01  8.50000000E-01  7.20000000E-01
  8.50000000E-01  8.50000000E-01  7.20000000E-01  7.20000000E-01  8.50000000E-01
  8.50000000E-01  7.20000000E-01  7.20000000E-01  7.20000000E-01  8.50000000E-01
  8.50000000E-01  7.20000000E-01  8.50000000E-01  7.20000000E-01  8.50000000E-01
  7.20000000E-01  8.50000000E-01  8.50000000E-01  7.20000000E-01  8.50000000E-01
  8.50000000E-01  7.20000000E-01  8.50000000E-01  8.50000000E-01  8.50000000E-01
  8.50000000E-01  8.50000000E-01  7.20000000E-01  7.20000000E-01  8.50000000E-01
  8.50000000E-01  8.50000000E-01  7.20000000E-01  8.50000000E-01  8.50000000E-01
  8.50000000E-01  8.50000000E-01  9.60000000E-01  7.20000000E-01  7.20000000E-01
  7.20000000E-01  7.20000000E-01  7.20000000E-01  9.60000000E-01  7.20000000E-01
  7.20000000E-01  8.50000000E-01  7.20000000E-01  7.20000000E-01  7.20000000E-01
  7.20000000E-01  7.20000000E-01  8.50000000E-01  7.20000000E-01  7.20000000E-01
  8.50000000E-01  8.50000000E-01  7.20000000E-01  8.50000000E-01  8.50000000E-01
  7.20000000E-01  8.50000000E-01  8.50000000E-01  7.20000000E-01  8.50000000E-01
  8.50000000E-01  7.20000000E-01  7.20000000E-01  8.50000000E-01  8.50000000E-01
  7.20000000E-01  7.20000000E-01  7.20000000E-01  8.50000000E-01  8.50000000E-01
  7.20000000E-01  8.50000000E-01  7.20000000E-01  8.50000000E-01  7.20000000E-01
  8.50000000E-01  8.50000000E-01  7.20000000E-01  8.50000000E-01  8.50000000E-01
  7.20000000E-01  8.50000000E-01  8.50000000E-01  8.50000000E-01  8.50000000E-01
  8.50000000E-01  7.20000000E-01  7.20000000E-01  8.50000000E-01  8.50000000E-01
  8.50000000E-01  7.20000000E-01  8.50000000E-01  8.50000000E-01  8.50000000E-01
  8.50000000E-01  9.60000000E-01  7.20000000E-01  7.20000000E-01  7.20000000E-01
  7.20000000E-01  7.20000000E-01  9.60000000E-01  7.20000000E-01  7.20000000E-01
  8.50000000E-01  7.20000000E-01  7.20000000E-01  7.20000000E-01  7.20000000E-01
  7.20000000E-01  8.50000000E-01  7.20000000E-01  7.20000000E-01  8.50000000E-01
  8.50000000E-01  7.20000000E-01  8.50000000E-01  8.50000000E-01  7.20000000E-01
  8.50000000E-01  8.50000000E-01  7.20000000E-01  8.50000000E-01  8.50000000E-01
  7.20000000E-01  7.20000000E-01  8.50000000E-01  8.50000000E-01  7.20000000E-01
  7.20000000E-01  7.20000000E-01  8.50000000E-01  8.50000000E-01  7.20000000E-01
  8.50000000E-01  7.20000000E-01  8.50000000E-01  7.20000000E-01  8.50000000E-01
  8.50000000E-01  7.20000000E-01  8.50000000E-01  8.50000000E-01  7.20000000E-01
  8.50000000E-01  8.50000000E-01  8.50000000E-01  8.50000000E-01  8.50000000E-01
  7.20000000E-01  7.20000000E-01  8.50000000E-01  8.50000000E-01  8.50000000E-01
  7.20000000E-01  8.50000000E-01  8.50000000E-01  8.50000000E-01  8.50000000E-01
  9.60000000E-01  7.20000000E-01  7.20000000E-01  7.20000000E-01  7.20000000E-01
  7.20000000E-01  9.60000000E-01  7.20000000E-01  7.20000000E-01  8.50000000E-01
  7.20000000E-01  7.20000000E-01  7.20000000E-01  7.20000000E-01  7.20000000E-01
  8.50000000E-01  7.20000000E-01  7.20000000E-01  8.50000000E-01  8.50000000E-01
  7.20000000E-01  8.50000000E-01  8.50000000E-01  7.20000000E-01  8.50000000E-01
  8.50000000E-01  7.20000000E-01  8.50000000E-01  8.50000000E-01  7.20000000E-01
  7.20000000E-01  8.50000000E-01  8.50000000E-01  7.20000000E-01  7.20000000E-01
  7.20000000E-01  8.50000000E-01  8.50000000E-01  7.20000000E-01  8.50000000E-01
  7.20000000E-01  8.50000000E-01  7.20000000E-01  8.50000000E-01  8.50000000E-01
  7.20000000E-01  8.50000000E-01  8.50000000E-01  7.20000000E-01  8.50000000E-01
  8.50000000E-01  8.50000000E-01  8.50000000E-01  8.50000000E-01  7.20000000E-01
  7.20000000E-01  8.50000000E-01  8.50000000E-01  8.50000000E-01  7.20000000E-01
  8.50000000E-01  8.50000000E-01  8.50000000E-01  8.50000000E-01  9.60000000E-01
  7.20000000E-01  7.20000000E-01  7.20000000E-01  7.20000000E-01  7.20000000E-01
  9.60000000E-01  7.20000000E-01  7.20000000E-01  8.50000000E-01  7.20000000E-01
  7.20000000E-01  7.20000000E-01  7.20000000E-01  7.20000000E-01  8.50000000E-01
  7.20000000E-01  7.20000000E-01  8.50000000E-01  8.50000000E-01  7.20000000E-01
  8.50000000E-01  8.50000000E-01  7.20000000E-01  8.50000000E-01  8.50000000E-01
  7.20000000E-01  8.50000000E-01  8.50000000E-01  7.20000000E-01  7.20000000E-01
  8.50000000E-01  8.50000000E-01  7.20000000E-01  7.20000000E-01  7.20000000E-01
  8.50000000E-01  8.50000000E-01  7.20000000E-01  8.50000000E-01  7.20000000E-01
  8.50000000E-01  7.20000000E-01  8.50000000E-01  8.50000000E-01  7.20000000E-01
  8.50000000E-01  8.50000000E-01  7.20000000E-01  8.50000000E-01  8.50000000E-01
  8.50000000E-01  8.50000000E-01  8.50000000E-01  7.20000000E-01  7.20000000E-01
  8.50000000E-01  8.50000000E-01  8.50000000E-01  7.20000000E-01  8.50000000E-01
  8.50000000E-01  8.50000000E-01  8.50000000E-01  9.60000000E-01  7.20000000E-01
  7.20000000E-01  7.20000000E-01  7.20000000E-01  7.20000000E-01  9.60000000E-01
  7.20000000E-01  7.20000000E-01  8.50000000E-01  7.20000000E-01  7.20000000E-01
  7.20000000E-01  7.20000000E-01  7.20000000E-01  8.50000000E-01  7.20000000E-01
  7.20000000E-01  8.50000000E-01  8.50000000E-01  7.20000000E-01  8.50000000E-01
  8.50000000E-01  7.20000000E-01  8.50000000E-01  8.50000000E-01  7.20000000E-01
  8.50000000E-01  8.50000000E-01  7.20000000E-01  7.20000000E-01  8.50000000E-01
  8.50000000E-01  7.20000000E-01  7.20000000E-01  7.20000000E-01  8.50000000E-01
  8.50000000E-01  7.20000000E-01  8.50000000E-01  7.20000000E-01  8.50000000E-01
  7.20000000E-01  8.50000000E-01  8.50000000E-01  7.20000000E-01  8.50000000E-01
  8.50000000E-01  7.20000000E-01  8.50000000E-01  8.50000000E-01  8.50000000E-01
  8.50000000E-01  8.50000000E-01  7.20000000E-01  7.20000000E-01  8.50000000E-01
  8.50000000E-01  8.50000000E-01  7.20000000E-01  8.50000000E-01  8.50000000E-01
  8.50000000E-01  8.50000000E-01  9.60000000E-01  7.20000000E-01  7.20000000E-01
  7.20000000E-01  7.20000000E-01  7.20000000E-01  9.60000000E-01  7.20000000E-01
  7.20000000E-01  8.50000000E-01  7.20000000E-01  7.20000000E-01  7.20000000E-01
  7.20000000E-01  7.20000000E-01  8.50000000E-01  7.20000000E-01  7.20000000E-01
  8.50000000E-01  8.50000000E-01  7.20000000E-01  8.50000000E-01  8.50000000E-01
  7.20000000E-01  8.50000000E-01  8.50000000E-01  7.20000000E-01  8.50000000E-01
  8.50000000E-01  7.20000000E-01  7.20000000E-01  8.50000000E-01  8.50000000E-01
  7.20000000E-01  7.20000000E-01  7.20000000E-01  8.50000000E-01  8.50000000E-01
  7.20000000E-01  8.50000000E-01  7.20000000E-01  8.50000000E-01  7.20000000E-01
  8.50000000E-01  8.50000000E-01  7.20000000E-01  8.50000000E-01  8.50000000E-01
  7.20000000E-01  8.50000000E-01  8.50000000E-01  8.50000000E-01  8.50000000E-01
  8.50000000E-01  7.20000000E-01  7.20000000E-01  8.50000000E-01  8.50000000E-01
  8.50000000E-01  7.20000000E-01  8.50000000E-01  8.50000000E-01  8.50000000E-01
  8.50000000E-01  9.60000000E-01  7.20000000E-01  7.20000000E-01  7.20000000E-01
  7.20000000E-01  7.20000000E-01  9.60000000E-01  7.20000000E-01  7.20000000E-01
  8.50000000E-01  7.20000000E-01  7.20000000E-01  7.20000000E-01  7.20000000E-01
  7.20000000E-01  8.50000000E-01  7.20000000E-01  7.20000000E-01  8.50000000E-01
  8.50000000E-01  7.20000000E-01  8.50000000E-01  8.50000000E-01  7.20000000E-01
  8.50000000E-01  8.50000000E-01  7.20000000E-01  8.50000000E-01  8.50000000E-01
  7.20000000E-01  7.20000000E-01  8.50000000E-01  8.50000000E-01  7.20000000E-01
  7.20000000E-01  7.20000000E-01  8.50000000E-01  8.50000000E-01  7.20000000E-01
  8.50000000E-01  7.20000000E-01  8.50000000E-01  7.20000000E-01  8.50000000E-01
  8.50000000E-01  7.20000000E-01  8.50000000E-01  8.50000000E-01  7.20000000E-01
  8.50000000E-01  8.50000000E-01  8.50000000E-01  8.50000000E-01  8.50000000E-01
  7.20000000E-01  7.20000000E-01  8.50000000E-01  8.50000000E-01  8.50000000E-01
  7.20000000E-01  8.50000000E-01  8.50000000E-01  8.50000000E-01  8.50000000E-01
  9.60000000E-01  7.20000000E-01  7.20000000E-01  7.20000000E-01  7.20000000E-01
  7.20000000E-01  9.60000000E-01  7.20000000E-01  7.20000000E-01  8.50000000E-01
  7.20000000E-01  7.20000000E-01  7.20000000E-01  7.20000000E-01  7.20000000E-01
  8.50000000E-01  7.20000000E-01  7.20000000E-01  8.50000000E-01  8.50000000E-01
  7.20000000E-01  8.50000000E-01  8.50000000E-01  7.20000000E-01  8.50000000E-01
  8.50000000E-01  7.20000000E-01  8.50000000E-01  8.50000000E-01  7.20000000E-01
  7.20000000E-01  8.50000000E-01  8.50000000E-01  7.20000000E-01  7.20000000E-01
  7.20000000E-01  8.50000000E-01  8.50000000E-01  7.20000000E-01  8.50000000E-01
  7.20000000E-01  8.50000000E-01  7.20000000E-01  8.50000000E-01  8.50000000E-01
  7.20000000E-01  8.50000000E-01  8.50000000E-01  7.20000000E-01  8.50000000E-01
  8.50000000E-01  8.50000000E-01  8.50000000E-01  8.50000000E-01  7.20000000E-01
  7.20000000E-01  8.50000000E-01  8.50000000E-01  8.50000000E-01  7.20000000E-01
  8.50000000E-01  8.50000000E-01  8.50000000E-01  8.50000000E-01  9.60000000E-01
  7.20000000E-01  7.20000000E-01  7.20000000E-01  7.20000000E-01  7.20000000E-01
  9.60000000E-01  7.20000000E-01  7.20000000E-01  8.50000000E-01  7.20000000E-01
  7.20000000E-01  7.20000000E-01  7.20000000E-01  7.20000000E-01  8.50000000E-01
  7.20000000E-01  7.20000000E-01  8.50000000E-01  8.50000000E-01  7.20000000E-01
  8.50000000E-01  8.50000000E-01  7.20000000E-01  8.50000000E-01  8.50000000E-01
  7.20000000E-01  8.50000000E-01  8.50000000E-01  7.20000000E-01  7.20000000E-01
  8.50000000E-01  8.50000000E-01  7.20000000E-01  7.20000000E-01  7.20000000E-01
  8.50000000E-01  8.50000000E-01  7.20000000E-01  8.50000000E-01  7.20000000E-01
  8.50000000E-01  7.20000000E-01  8.50000000E-01  8.50000000E-01  7.20000000E-01
  8.50000000E-01  8.50000000E-01  7.20000000E-01  8.50000000E-01  8.50000000E-01
  8.50000000E-01  8.50000000E-01  8.50000000E-01  7.20000000E-01  7.20000000E-01
  8.50000000E-01  8.50000000E-01  8.50000000E-01  7.20000000E-01  8.50000000E-01
  8.50000000E-01  8.50000000E-01  8.50000000E-01  9.60000000E-01  7.20000000E-01
  7.20000000E-01  7.20000000E-01  7.20000000E-01  7.20000000E-01  9.60000000E-01
  7.20000000E-01  7.20000000E-01  8.50000000E-01  7.20000000E-01  7.20000000E-01
  7.20000000E-01  7.20000000E-01  7.20000000E-01  8.50000000E-01  7.20000000E-01
  7.20000000E-01  8.50000000E-01  8.50000000E-01  7.20000000E-01  8.50000000E-01
  8.50000000E-01  7.20000000E-01  8.50000000E-01  8.50000000E-01  7.20000000E-01
  8.50000000E-01  8.50000000E-01  7.20000000E-01  7.20000000E-01  8.50000000E-01
  8.50000000E-01  7.20000000E-01  7.20000000E-01  7.20000000E-01  8.50000000E-01
  8.50000000E-01  7.20000000E-01  8.50000000E-01  7.20000000E-01  8.50000000E-01
  7.20000000E-01  8.50000000E-01  8.50000000E-01  7.20000000E-01  8.50000000E-01
  8.50000000E-01  7.20000000E-01  8.50000000E-01  8.50000000E-01  8.50000000E-01
  8.50000000E-01  8.50000000E-01  7.20000000E-01  7.20000000E-01  8.50000000E-01
  8.50000000E-01  8.50000000E-01  7.20000000E-01  8.50000000E-01  8.50000000E-01
  8.50000000E-01  8.50000000E-01  9.60000000E-01  7.20000000E-01  7.20000000E-01
  7.20000000E-01  7.20000000E-01  7.20000000E-01  9.60000000E-01  7.20000000E-01
  7.20000000E-01  8.50000000E-01  7.20000000E-01  7.20000000E-01  7.20000000E-01
  7.20000000E-01  7.20000000E-01  8.50000000E-01  7.20000000E-01  7.20000000E-01
  8.50000000E-01  8.50000000E-01  7.20000000E-01  8.50000000E-01  8.50000000E-01
  7.20000000E-01  8.50000000E-01  8.50000000E-01  7.20000000E-01  8.50000000E-01
  8.50000000E-01  7.20000000E-01  7.20000000E-01  8.50000000E-01  8.50000000E-01
  7.20000000E-01  7.20000000E-01  7.20000000E-01  8.50000000E-01  8.50000000E-01
  7.20000000E-01  8.50000000E-01  7.20000000E-01  8.50000000E-01  7.20000000E-01
  8.50000000E-01  8.50000000E-01  7.20000000E-01  8.50000000E-01  8.50000000E-01
  7.20000000E-01  8.50000000E-01  8.50000000E-01  8.50000000E-01  8.50000000E-01
  8.50000000E-01  7.20000000E-01  7.20000000E-01  8.50000000E-01  8.50000000E-01
  8.50000000E-01  7.20000000E-01  8.50000000E-01  8.50000000E-01  8.50000000E-01
  8.50000000E-01  9.60000000E-01  7.20000000E-01  7.20000000E-01  7.20000000E-01
  7.20000000E-01  7.20000000E-01  9.60000000E-01  7.20000000E-01  7.20000000E-01
  8.50000000E-01  7.20000000E-01  7.20000000E-01  7.20000000E-01  7.20000000E-01
  7.20000000E-01  8.50000000E-01  7.20000000E-01  7.20000000E-01  8.50000000E-01
  8.50000000E-01  7.20000000E-01  8.50000000E-01  8.50000000E-01  7.20000000E-01
  8.50000000E-01  8.50000000E-01  7.20000000E-01  8.50000000E-01  8.50000000E-01
  7.20000000E-01  7.20000000E-01  8.50000000E-01  8.50000000E-01  7.20000000E-01
  7.20000000E-01  7.20000000E-01  8.50000000E-01  8.50000000E-01  7.20000000E-01
  8.50000000E-01  7.20000000E-01  8.50000000E-01  7.20000000E-01  8.50000000E-01
  8.50000000E-01  7.20000000E-01  8.50000000E-01  8.50000000E-01  7.20000000E-01
  8.50000000E-01  8.50000000E-01  8.50000000E-01  8.50000000E-01  8.50000000E-01
  7.20000000E-01  7.20000000E-01  8.50000000E-01  8.50000000E-01  8.50000000E-01
  7.20000000E-01  8.50000000E-01  8.50000000E-01  8.50000000E-01  8.50000000E-01
  9.60000000E-01  7.20000000E-01  7.20000000E-01  7.20000000E-01  7.20000000E-01
  7.20000000E-01  9.60000000E-01  7.20000000E-01  7.20000000E-01  8.50000000E-01
  7.20000000E-01  7.20000000E-01  7.20000000E-01  7.20000000E-01  7.20000000E-01
  8.50000000E-01  7.20000000E-01  7.20000000E-01  8.50000000E-01  8.50000000E-01
  7.20000000E-01  8.50000000E-01  8.50000000E-01  7.20000000E-01  8.50000000E-01
  8.50000000E-01  7.20000000E-01  8.50000000E-01  8.50000000E-01  7.20000000E-01
  7.20000000E-01  8.50000000E-01  8.50000000E-01  7.20000000E-01  7.20000000E-01
  7.20000000E-01  8.50000000E-01  8.50000000E-01  7.20000000E-01  8.50000000E-01
  7.20000000E-01  8.50000000E-01  7.20000000E-01  8.50000000E-01  8.50000000E-01
  7.20000000E-01  8.50000000E-01  8.50000000E-01  7.20000000E-01  8.50000000E-01
  8.50000000E-01  8.50000000E-01  8.50000000E-01  8.50000000E-01  7.20000000E-01
  7.20000000E-01  8.50000000E-01  8.50000000E-01  8.50000000E-01  7.20000000E-01
  8.50000000E-01  8.50000000E-01  8.50000000E-01  8.50000000E-01  9.60000000E-01
  7.20000000E-01  7.20000000E-01  7.20000000E-01  7.20000000E-01  7.20000000E-01
  9.60000000E-01  7.20000000E-01  7.20000000E-01  8.50000000E-01  7.20000000E-01
  7.20000000E-01  7.20000000E-01  7.20000000E-01  7.20000000E-01  8.50000000E-01
  7.20000000E-01  7.20000000E-01  8.50000000E-01  8.50000000E-01  7.20000000E-01
  8.50000000E-01  8.50000000E-01  7.20000000E-01  8.50000000E-01  8.50000000E-01
  7.20000000E-01  8.50000000E-01  8.50000000E-01  7.20000000E-01  7.20000000E-01
  8.50000000E-01  8.50000000E-01  7.20000000E-01  7.20000000E-01  7.20000000E-01
  8.50000000E-01  8.50000000E-01  7.20000000E-01  8.50000000E-01  7.20000000E-01
  8.50000000E-01  7.20000000E-01  8.50000000E-01  8.50000000E-01  7.20000000E-01
  8.50000000E-01  8.50000000E-01  7.20000000E-01  8.50000000E-01  8.50000000E-01
  8.50000000E-01  8.50000000E-01  8.50000000E-01  7.20000000E-01  7.20000000E-01
  8.50000000E-01  8.50000000E-01  8.50000000E-01  7.20000000E-01  8.50000000E-01
  8.50000000E-01  8.50000000E-01  8.50000000E-01  9.60000000E-01  7.20000000E-01
  7.20000000E-01  7.20000000E-01  7.20000000E-01  7.20000000E-01  9.60000000E-01
  7.20000000E-01  7.20000000E-01  8.50000000E-01  7.20000000E-01  7.20000000E-01
  7.20000000E-01  7.20000000E-01  7.20000000E-01  8.50000000E-01  7.20000000E-01
  7.20000000E-01  8.50000000E-01  8.50000000E-01  7.20000000E-01  8.50000000E-01
  8.50000000E-01  7.20000000E-01  8.50000000E-01  8.50000000E-01  7.20000000E-01
  8.50000000E-01  8.50000000E-01  7.20000000E-01  7.20000000E-01  8.50000000E-01
  8.50000000E-01  7.20000000E-01  7.20000000E-01  7.20000000E-01  8.50000000E-01
  8.50000000E-01  7.20000000E-01  8.50000000E-01  7.20000000E-01  8.50000000E-01
  7.20000000E-01  8.50000000E-01  8.50000000E-01  7.20000000E-01  8.50000000E-01
  8.50000000E-01  7.20000000E-01  8.50000000E-01  8.50000000E-01  8.50000000E-01
  8.50000000E-01  8.50000000E-01  7.20000000E-01  7.20000000E-01  8.50000000E-01
  8.50000000E-01  8.50000000E-01  7.20000000E-01  8.50000000E-01  8.50000000E-01
  8.50000000E-01  8.50000000E-01  9.60000000E-01  7.20000000E-01  7.20000000E-01
  7.20000000E-01  7.20000000E-01  7.20000000E-01  9.60000000E-01  7.20000000E-01
  7.20000000E-01  8.50000000E-01  7.20000000E-01  7.20000000E-01  7.20000000E-01
  7.20000000E-01  7.20000000E-01  8.50000000E-01  7.20000000E-01  7.20000000E-01
  8.50000000E-01  8.50000000E-01  7.20000000E-01  8.50000000E-01  8.50000000E-01
  7.20000000E-01  8.50000000E-01  8.50000000E-01  7.20000000E-01  8.50000000E-01
  8.50000000E-01  7.20000000E-01  7.20000000E-01  8.50000000E-01  8.50000000E-01
  7.20000000E-01  7.20000000E-01  7.20000000E-01  8.50000000E-01  8.50000000E-01
  7.20000000E-01  8.50000000E-01  7.20000000E-01  8.50000000E-01  7.20000000E-01
  8.50000000E-01  8.50000000E-01  7.20000000E-01  8.50000000E-01  8.50000000E-01
  7.20000000E-01  8.50000000E-01  8.50000000E-01  8.50000000E-01  8.50000000E-01
  8.50000000E-01  7.20000000E-01  7.20000000E-01  8.50000000E-01  8.50000000E-01
  8.50000000E-01  7.20000000E-01  8.50000000E-01  8.50000000E-01  8.50000000E-01
  8.50000000E-01  9.60000000E-01  7.20000000E-01  7.20000000E-01  7.20000000E-01
  7.20000000E-01  7.20000000E-01  9.60000000E-01  7.20000000E-01  7.20000000E-01
  8.50000000E-01  7.20000000E-01  7.20000000E-01  7.20000000E-01  7.20000000E-01
  7.20000000E-01  8.50000000E-01  7.20000000E-01  7.20000000E-01  8.50000000E-01
  8.50000000E-01  7.20000000E-01  8.50000000E-01  8.50000000E-01  7.20000000E-01
  8.50000000E-01  8.50000000E-01  7.20000000E-01  8.50000000E-01  8.50000000E-01
  7.20000000E-01  7.20000000E-01  8.50000000E-01  8.50000000E-01  7.20000000E-01
  7.20000000E-01  7.20000000E-01  8.50000000E-01  8.50000000E-01  7.20000000E-01
  8.50000000E-01  7.20000000E-01  8.50000000E-01  7.20000000E-01  8.50000000E-01
  8.50000000E-01  7.20000000E-01  8.50000000E-01  8.50000000E-01  7.20000000E-01
  8.50000000E-01  8.50000000E-01  8.50000000E-01  8.50000000E-01  8.50000000E-01
  7.20000000E-01  7.20000000E-01  8.50000000E-01  8.50000000E-01  8.50000000E-01
  7.20000000E-01  8.50000000E-01  8.50000000E-01  8.50000000E-01  8.50000000E-01
  9.60000000E-01  7.20000000E-01  7.20000000E-01  7.20000000E-01  7.20000000E-01
  7.20000000E-01  9.60000000E-01  7.20000000E-01  7.20000000E-01  8.50000000E-01
  7.20000000E-01  7.20000000E-01  7.20000000E-01  7.20000000E-01  7.20000000E-01
  8.50000000E-01  7.20000000E-01  7.20000000E-01  8.50000000E-01  8.50000000E-01
  7.20000000E-01  8.50000000E-01  8.50000000E-01  7.20000000E-01  8.50000000E-01
  8.50000000E-01  7.20000000E-01  8.50000000E-01  8.50000000E-01  7.20000000E-01
  7.20000000E-01  8.50000000E-01  8.50000000E-01  7.20000000E-01  7.20000000E-01
  7.20000000E-01  8.50000000E-01  8.50000000E-01  7.20000000E-01  8.50000000E-01
  7.20000000E-01  8.50000000E-01  7.20000000E-01  8.50000000E-01  8.50000000E-01
  7.20000000E-01  8.50000000E-01  8.50000000E-01  7.20000000E-01  8.50000000E-01
  8.50000000E-01  8.50000000E-01  8.50000000E-01  8.50000000E-01  7.20000000E-01
  7.20000000E-01  8.50000000E-01  8.50000000E-01  8.50000000E-01  7.20000000E-01
  8.50000000E-01  8.50000000E-01  8.50000000E-01  8.50000000E-01  9.60000000E-01
  7.20000000E-01  7.20000000E-01  7.20000000E-01  7.20000000E-01  7.20000000E-01
  9.60000000E-01  7.20000000E-01  7.20000000E-01  8.50000000E-01  7.20000000E-01
  7.20000000E-01  7.20000000E-01  7.20000000E-01  7.20000000E-01  8.50000000E-01
  7.20000000E-01  7.20000000E-01  8.50000000E-01  8.50000000E-01  7.20000000E-01
  8.50000000E-01  8.50000000E-01  7.20000000E-01  8.50000000E-01  8.50000000E-01
  7.20000000E-01  8.50000000E-01  8.50000000E-01  7.20000000E-01  7.20000000E-01
  8.50000000E-01  8.50000000E-01  7.20000000E-01  7.20000000E-01  7.20000000E-01
  8.50000000E-01  8.50000000E-01  7.20000000E-01  8.50000000E-01  7.20000000E-01
  8.50000000E-01  7.20000000E-01  8.50000000E-01  8.50000000E-01  7.20000000E-01
  8.50000000E-01  8.50000000E-01  7.20000000E-01  8.50000000E-01  8.50000000E-01
  8.50000000E-01  8.50000000E-01  8.50000000E-01  7.20000000E-01  7.20000000E-01
  8.50000000E-01  8.50000000E-01  8.50000000E-01  7.20000000E-01  8.50000000E-01
  8.50000000E-01  8.50000000E-01  8.50000000E-01  9.60000000E-01  7.20000000E-01
  7.20000000E-01  7.20000000E-01  7.20000000E-01  7.20000000E-01  9.60000000E-01
  7.20000000E-01  7.20000000E-01  8.50000000E-01  7.20000000E-01  7.20000000E-01
  7.20000000E-01  7.20000000E-01  7.20000000E-01  8.50000000E-01  7.20000000E-01
  7.20000000E-01  8.50000000E-01  8.50000000E-01  7.20000000E-01  8.50000000E-01
  8.50000000E-01  7.20000000E-01  8.50000000E-01  8.50000000E-01  7.20000000E-01
  8.50000000E-01  8.50000000E-01  7.20000000E-01  7.20000000E-01  8.50000000E-01
  8.50000000E-01  7.20000000E-01  7.20000000E-01  7.20000000E-01  8.50000000E-01
  8.50000000E-01  7.20000000E-01  8.50000000E-01  7.20000000E-01  8.50000000E-01
  7.20000000E-01  8.50000000E-01  8.50000000E-01  7.20000000E-01  8.50000000E-01
  8.50000000E-01  7.20000000E-01  8.50000000E-01  8.50000000E-01  8.50000000E-01
  8.50000000E-01  8.50000000E-01  7.20000000E-01  7.20000000E-01  8.50000000E-01
  8.50000000E-01  8.50000000E-01  7.20000000E-01  8.50000000E-01  8.50000000E-01
  8.50000000E-01  8.50000000E-01
%FLAG IPOL                                                                      
%FORMAT(1I8)                                                                    
       0
