default_name
  3442
  33.9580000  33.2540000  34.9640000  29.4300000  31.9970000  35.1130000
  38.5490000  34.6190000  34.8010000  33.0970000  35.9700000  34.6790000
  37.1780000  34.9490000  34.7720000  34.8620000  34.2810000  34.8510000
  32.2230000  35.0170000  34.7840000  34.4530000  35.6110000  34.7120000
  39.5560000  35.6560000  34.6870000  38.9690000  33.2410000  34.9590000
  36.2160000  33.9470000  34.8820000  30.7740000  35.3310000  34.7560000
  32.6120000  33.5860000  34.9340000  36.7840000  36.2790000  34.6330000
  29.8240000  34.3120000  34.8670000  35.4270000  36.6090000  34.6030000
  31.6910000  32.6240000  35.0390000  30.2440000  32.9070000  35.0140000
  39.9080000  36.1940000  36.0590000  39.0890000  32.5730000  33.6030000
  30.3480000  36.6590000  34.6180000  28.4570000  34.6170000  34.8400000
  28.9850000  36.9600000  34.5920000  28.0410000  35.9410000  34.7030000
  40.4690000  35.2200000  34.2600000  39.2970000  36.4530000  33.9830000
  39.9640000  33.2210000  35.4240000  38.3480000  32.6640000  35.6520000
  36.4590000  32.8940000  34.9740000  37.4780000  37.1090000  34.5600000
  35.1340000  37.6510000  34.4980000  31.9850000  31.5850000  35.1470000
  40.2620000  35.3970000  36.7220000  39.0490000  36.6700000  36.5420000
  40.7050000  36.9410000  35.9790000  38.1260000  32.5300000  33.0840000
  39.7910000  33.1090000  32.9560000  39.4540000  31.5470000  33.7180000
  31.0570000  37.4770000  34.5300000  27.7030000  33.8400000  34.9250000
  28.6600000  37.9910000  34.4850000  26.9820000  36.1780000  34.6820000
  50.5490000  48.7060000  40.2700000  49.9880000  47.8790000  39.5540000
  48.5030000  47.6500000  39.6270000  50.7520000  47.0470000  38.5590000
  48.0490000  47.8740000  38.6580000  48.3050000  46.6120000  39.9050000
  48.0650000  48.3070000  40.3820000  51.8150000  47.3040000  38.6040000
  50.3820000  47.2490000  37.5510000  50.6350000  45.9880000  38.7990000
  17.4000000  26.0900000  26.9410000  18.4420000  25.4850000  27.1900000
  19.7880000  26.1390000  27.0420000  18.4310000  24.0560000  27.6600000
  20.2970000  26.1520000  28.0090000  20.3840000  25.5890000  26.3100000
  19.6640000  27.1680000  26.6940000  17.4000000  23.6970000  27.7250000
  18.8900000  23.9930000  28.6500000  18.9780000  23.4320000  26.9500000
  31.4410000  36.2740000  29.2740000  32.3730000  36.4000000  30.0670000
  33.7580000  36.7630000  29.6060000  32.1820000  36.2010000  31.5460000
  34.0600000  37.7090000  30.0630000  34.4560000  35.9700000  29.8830000
  33.7670000  36.8780000  28.5190000  31.1400000  35.9400000  31.7520000
  32.4260000  37.1250000  32.0750000  32.8240000  35.3880000  31.8930000
  38.5680000  18.4290000  42.6640000  37.3540000  18.4830000  42.8530000
  36.3710000  18.2580000  41.7370000  36.7800000  18.7750000  44.2130000
  35.7410000  17.3970000  41.9730000  35.7550000  19.1500000  41.6060000
  36.9080000  18.0590000  40.8060000  37.5910000  18.9210000  44.9320000
  36.1650000  17.9330000  44.5390000  36.1790000  19.6860000  44.1690000
  44.6480000  49.2360000  45.5710000  43.8470000  50.1130000  45.8910000
  43.6890000  50.5550000  47.3200000  42.9800000  50.7990000  44.8700000
  43.9330000  51.6170000  47.4040000  42.6620000  50.3770000  47.6470000
  44.3670000  49.9850000  47.9600000  43.1860000  50.3910000  43.8770000
  43.1980000  51.8700000  44.8650000  41.9280000  50.6300000  45.1100000
  45.7600000  24.9860000  45.8570000  45.6670000  25.8300000  46.7480000
  44.4210000  25.9660000  47.5790000  46.7950000  26.7750000  47.0600000
  44.6600000  25.7880000  48.6300000  44.0030000  26.9670000  47.4520000
  43.6790000  25.2310000  47.2560000  47.6370000  26.5780000  46.3900000
  47.1220000  26.6260000  48.0920000  46.4620000  27.8050000  46.9150000
  32.0010000  42.3350000  42.4170000  33.1380000  42.4600000  42.8680000
  33.9690000  41.2670000  43.2570000  33.7680000  43.8130000  43.0560000
  34.8810000  41.2440000  42.6550000  34.2190000  41.3250000  44.3180000
  33.4040000  40.3490000  43.0770000  33.0680000  44.5930000  42.7420000
  34.6720000  43.8840000  42.4470000  34.0110000  43.9620000  44.1110000
  25.0050000  47.8350000  33.7560000  25.3170000  48.5370000  32.7950000
  26.3590000  48.0970000  31.8030000  24.6730000  49.8740000  32.5520000
  25.9110000  48.0230000  30.8090000  27.1810000  48.8160000  31.7920000
  26.7510000  47.1170000  32.0880000  23.9400000  50.0790000  33.3370000
  24.1620000  49.8650000  31.5860000  25.4350000  50.6570000  32.5680000
  35.1340000  21.0020000  42.6180000  33.9960000  20.5710000  42.7990000
  33.4140000  20.4350000  44.1800000  33.1170000  20.1590000  41.6500000
  32.5210000  21.0590000  44.2640000  33.1630000  19.3890000  44.3690000
  34.1460000  20.7620000  44.9230000  33.6510000  20.3020000  40.7060000
  32.2130000  20.7720000  41.6420000  32.8550000  19.1030000  41.7490000
  45.1450000  28.9070000  49.4490000  45.1950000  30.0970000  49.7570000
  44.2450000  30.6930000  50.7600000  46.2120000  31.0260000  49.1530000
  44.8090000  31.0910000  51.6070000  43.6650000  31.4880000  50.2860000
  43.5590000  29.9230000  51.1220000  46.8370000  30.4780000  48.4430000
  46.8480000  31.4360000  49.9410000  45.7020000  31.8340000  48.6220000
  29.2160000  17.3920000  48.1900000  29.8590000  18.4410000  48.1930000
  31.3620000  18.4460000  48.1290000  29.1790000  19.7820000  48.2580000
  31.6880000  18.9760000  47.2300000  31.7650000  18.9320000  49.0200000
  31.7330000  17.4190000  48.0870000  28.0960000  19.6450000  48.3040000
  29.4260000  20.3610000  47.3650000  29.5050000  20.3150000  49.1550000
  37.9550000  28.7680000  20.0620000  37.9450000  28.7850000  18.8320000
  38.8190000  27.8650000  18.0240000  37.0570000  29.7240000  18.0630000
  38.1940000  27.2210000  17.4000000  39.4930000  28.4550000  17.4000000
  39.4140000  27.2380000  18.6930000  36.4770000  30.3370000  18.7590000
  36.3670000  29.1480000  17.4400000  37.6690000  30.3810000  17.4400000
  40.0740000  42.3490000  45.6570000  40.2040000  41.4410000  44.8390000
  40.3780000  40.0100000  45.2690000  40.1930000  41.7050000  43.3580000
  39.5560000  39.4060000  44.8760000  41.3330000  39.6300000  44.9000000
  40.3710000  39.9490000  46.3600000  40.0620000  42.7760000  43.1750000
  39.3640000  41.1640000  42.8950000  41.1420000  41.3860000  42.9210000
  35.9580000  21.6970000  45.7130000  35.6350000  22.8830000  45.7590000
  34.2290000  23.3050000  46.0920000  36.6250000  23.9820000  45.4880000
  34.2350000  23.9150000  46.9990000  33.8110000  23.8730000  45.2580000
  33.6090000  22.4210000  46.2640000  37.6030000  23.5500000  45.2580000
  36.7190000  24.6170000  46.3730000  36.2920000  24.5740000  44.6330000
  24.1040000  46.6500000  43.4510000  24.4150000  45.5390000  43.0260000
  24.9190000  45.3430000  41.6220000  24.3130000  44.3080000  43.8860000
  25.9300000  44.9290000  41.6500000  24.2500000  44.6690000  41.0830000
  24.9450000  46.3040000  41.1020000  23.9360000  44.5800000  44.8750000
  25.3020000  43.8560000  43.9970000  23.6220000  43.5970000  43.4280000
  30.8450000  43.0250000  36.2320000  29.7300000  43.3550000  36.6330000
  29.5480000  44.4630000  37.6350000  28.4810000  42.6740000  36.1440000
  28.9420000  45.2590000  37.1960000  29.0630000  44.0700000  38.5310000
  30.5220000  44.8740000  37.9120000  28.7450000  41.8920000  35.4270000
  27.8350000  43.4040000  35.6500000  27.9580000  42.2170000  36.9870000
  44.8690000  19.5610000  48.1280000  45.1360000  19.9870000  47.0050000
  44.3360000  21.0920000  46.3700000  46.2790000  19.4310000  46.2010000
  44.9860000  21.9460000  46.1690000  43.8880000  20.7320000  45.4410000
  43.5380000  21.4070000  47.0480000  46.7770000  18.6390000  46.7660000
  47.0010000  20.2250000  45.9940000  45.9010000  19.0120000  45.2660000
  27.4910000  24.3810000  38.8800000  28.6150000  24.0410000  38.5150000
  29.1090000  22.6310000  38.6910000  29.5620000  25.0140000  37.8670000
  29.3400000  22.1990000  37.7150000  30.0000000  22.6320000  39.3230000
  28.3360000  22.0260000  39.1720000  29.0900000  25.9980000  37.7980000
  29.8100000  24.6690000  36.8600000  30.4690000  25.1000000  38.4700000
  32.3020000  20.4810000  38.6760000  31.6220000  19.4760000  38.4720000
  32.2250000  18.2170000  37.9120000  30.1490000  19.4460000  38.7750000
  32.0960000  17.4000000  38.6260000  31.7400000  17.9690000  36.9650000
  33.2930000  18.3660000  37.7340000  29.8330000  20.4140000  39.1720000
  29.9440000  18.6740000  39.5210000  29.5910000  19.2420000  37.8580000
  39.6510000  46.7100000  22.3770000  40.3560000  47.6850000  22.1230000
  41.1480000  48.3870000  23.1920000  40.4700000  48.2330000  20.7260000
  42.2130000  48.3370000  22.9510000  40.8250000  49.4280000  23.2620000
  40.9800000  47.9000000  24.1560000  39.8500000  47.6420000  20.0460000
  41.5100000  48.1770000  20.3950000  40.1230000  49.2690000  20.7090000
  25.3280000  30.6020000  36.6170000  24.6280000  29.6920000  36.1740000
  23.4890000  29.9610000  35.2290000  24.8710000  28.2560000  36.5490000
  23.6680000  29.4450000  34.2830000  22.5540000  29.6170000  35.6750000
  23.4140000  31.0350000  35.0370000  25.7180000  28.1920000  37.2380000
  25.1010000  27.6760000  35.6520000  23.9850000  27.8500000  37.0430000
  21.9210000  42.1340000  32.0910000  21.3640000  41.5040000  31.1930000
  21.1860000  40.0120000  31.2690000  20.8250000  42.1890000  29.9670000
  20.1210000  39.7690000  31.2500000  21.6960000  39.5400000  30.4260000
  21.6180000  39.6350000  32.1990000  21.0170000  43.2640000  30.0300000
  19.7470000  42.0260000  29.9000000  21.3220000  41.7940000  29.0780000
  35.4250000  40.7640000  46.0930000  36.1930000  41.7190000  45.9930000
  35.6900000  43.1370000  45.9810000  37.6810000  41.5270000  45.8800000
  36.1150000  43.6830000  46.8270000  35.9740000  43.6180000  45.0420000
  34.6010000  43.1440000  46.0670000  37.9170000  40.4590000  45.8980000
  38.1780000  42.0140000  46.7220000  38.0340000  41.9500000  44.9370000
  26.2350000  25.9310000  49.7440000  25.2770000  26.7020000  49.7010000
  24.1360000  26.4890000  48.7440000  25.1880000  27.9010000  50.6050000
  23.2070000  26.3570000  49.3050000  24.0530000  27.3500000  48.0770000
  24.3180000  25.5930000  48.1450000  26.0730000  27.9450000  51.2470000
  24.2990000  27.8200000  51.2350000  25.1430000  28.8110000  50.0040000
  22.6970000  45.9130000  47.4580000  21.6210000  45.8710000  46.8630000
  21.4640000  46.4370000  45.4780000  20.4000000  45.2480000  47.4820000
  21.1670000  45.6430000  44.7880000  20.7100000  47.2280000  45.4890000
  22.4140000  46.8610000  45.1410000  20.6420000  44.8770000  48.4820000
  20.0640000  44.4090000  46.8660000  19.6080000  45.9960000  47.5650000
  29.5280000  49.0740000  25.9340000  29.1970000  48.4340000  24.9370000
  29.3490000  46.9390000  24.8730000  28.6190000  49.1090000  23.7230000
  28.3690000  46.4770000  24.7280000  30.0150000  46.6740000  24.0490000
  29.7790000  46.5710000  25.8070000  28.5620000  50.1880000  23.8930000
  27.6120000  48.7270000  23.5370000  29.2590000  48.9210000  22.8590000
  29.5920000  25.8720000  33.2550000  30.5390000  26.6560000  33.2220000
  30.3290000  28.1450000  33.1680000  31.9640000  26.1740000  33.2390000
  30.7790000  28.6110000  34.0480000  30.7810000  28.5450000  32.2570000
  29.2590000  28.3670000  33.1580000  31.9830000  25.0810000  33.2770000
  32.4740000  26.5670000  34.1220000  32.4740000  26.5040000  32.3310000
  26.2440000  38.5050000  46.9480000  26.9230000  37.5160000  47.2170000
  26.4620000  36.1250000  46.8770000  28.2580000  37.6370000  47.9010000
  27.1770000  35.6590000  46.1940000  26.3740000  35.5340000  47.7910000
  25.4850000  36.1690000  46.3890000  28.4780000  38.6910000  48.0960000
  29.0390000  37.2270000  47.2560000  28.2340000  37.1000000  48.8520000
  47.8760000  45.5100000  28.5810000  48.1370000  46.1300000  29.6100000
  49.5030000  46.0760000  30.2390000  47.1070000  46.9810000  30.3010000
  49.9330000  47.0800000  30.2660000  49.4250000  45.6720000  31.2510000
  50.1560000  45.4280000  29.6490000  46.1630000  46.9360000  29.7520000
  47.4500000  48.0190000  30.3310000  46.9440000  46.6090000  31.3150000
  51.0000000  34.4060000  32.7540000  50.2430000  34.8870000  31.9130000
  50.4170000  36.2940000  31.4090000  49.1000000  34.0970000  31.3360000
  50.5960000  36.2770000  30.3310000  49.5200000  36.8760000  31.6330000
  51.2730000  36.7600000  31.9020000  49.0800000  33.0990000  31.7810000
  49.2310000  34.0000000  30.2550000  48.1570000  34.6020000  31.5570000
  25.6320000  23.8330000  52.2000000  24.6510000  23.2480000  51.7460000
  24.6410000  21.7550000  51.5540000  23.4000000  23.9880000  51.3580000
  23.8470000  21.3130000  52.1610000  24.4830000  21.5230000  50.4990000
  25.6000000  21.3360000  51.8680000  23.5320000  25.0580000  51.5420000
  22.5600000  23.6280000  51.9580000  23.1970000  23.8350000  50.2960000
  39.5910000  27.5310000  20.8660000  40.6950000  27.3990000  21.3920000
  41.4380000  26.0920000  21.3480000  41.3700000  28.5380000  22.1060000
  42.3910000  26.2290000  20.8320000  41.6090000  25.7340000  22.3660000
  40.8470000  25.3490000  20.8070000  40.7320000  29.4260000  22.0700000
  42.3200000  28.7660000  21.6180000  41.5380000  28.2670000  23.1510000
  48.1150000  34.6850000  37.1260000  49.2390000  34.3750000  36.7330000
  49.6410000  34.5290000  35.2920000  50.2790000  33.8260000  37.6710000
  50.4850000  35.2200000  35.2190000  49.9150000  33.5540000  34.8820000
  48.8050000  34.9320000  34.7150000  49.8660000  33.7610000  38.6820000
  51.1460000  34.4910000  37.6860000  50.5750000  32.8270000  37.3460000
  22.5860000  41.5010000  38.8480000  21.9050000  42.4310000  38.4190000
  21.0370000  43.2590000  39.3270000  21.9000000  42.7970000  36.9590000
  21.3620000  44.3020000  39.2930000  19.9950000  43.1780000  39.0110000
  21.1240000  42.8950000  40.3540000  22.5640000  42.1250000  36.4080000
  22.2570000  43.8230000  36.8380000  20.8890000  42.7000000  36.5600000
  40.4760000  34.7560000  27.6710000  39.5200000  35.5310000  27.6670000
  39.7150000  37.0220000  27.6890000  38.1010000  35.0330000  27.6370000
  39.2770000  37.4620000  26.7890000  39.2430000  37.4400000  28.5810000
  40.7820000  37.2560000  27.7120000  38.0930000  33.9400000  27.6250000
  37.6040000  35.4000000  26.7350000  37.5710000  35.3800000  28.5270000
  27.1400000  32.6270000  45.0950000  26.6380000  32.3340000  44.0110000
  27.4830000  31.9380000  42.8310000  25.1480000  32.3500000  43.8020000
  27.2260000  30.9220000  42.5210000  27.3130000  32.6370000  42.0090000
  28.5400000  31.9660000  43.1070000  24.6490000  32.6540000  44.7260000
  24.8050000  31.3490000  43.5280000  24.8960000  33.0640000  43.0140000
  44.9410000  50.1250000  39.3130000  44.2450000  49.3430000  39.9590000
  42.9120000  49.7540000  40.5220000  44.6840000  47.9290000  40.2220000
  42.1250000  49.1260000  40.0950000  42.9270000  49.6530000  41.6090000
  42.7080000  50.7970000  40.2660000  45.6630000  47.7550000  39.7670000
  43.9630000  47.2340000  39.7850000  44.7620000  47.7630000  41.2990000
  35.9700000  32.0320000  52.2080000  35.7980000  32.6680000  51.1700000
  35.5880000  34.1580000  51.1830000  35.7900000  31.9950000  49.8240000
  36.3840000  34.6450000  50.6140000  34.6150000  34.3940000  50.7470000
  35.6130000  34.5250000  52.2120000  35.9490000  30.9200000  49.9480000
  36.5930000  32.4030000  49.2060000  34.8240000  32.1550000  49.3400000
  25.3890000  43.4830000  28.5220000  24.9990000  43.2660000  27.3760000
  25.7650000  42.3750000  26.4360000  23.7300000  43.8770000  26.8450000
  25.1400000  41.5280000  26.1430000  26.0650000  42.9460000  25.5540000
  26.6620000  41.9980000  26.9340000  23.2700000  44.5010000  27.6170000
  23.0310000  43.0850000  26.5670000  23.9580000  44.5010000  25.9780000
  47.7210000  32.1800000  40.1510000  46.6010000  32.3260000  39.6650000
  46.1550000  33.6440000  39.0920000  45.6100000  31.1950000  39.6120000
  45.9180000  33.5210000  38.0320000  45.2780000  34.0020000  39.6360000
  46.9570000  34.3800000  39.1910000  46.0490000  30.2980000  40.0590000
  45.3530000  30.9820000  38.5720000  44.7140000  31.4660000  40.1740000
  45.6580000  45.7010000  50.3550000  45.9900000  44.9130000  49.4710000
  46.9260000  43.7680000  49.7440000  45.4750000  45.0460000  48.0630000
  46.4210000  42.8230000  49.5330000  47.8170000  43.8670000  49.1180000
  47.2290000  43.7810000  50.7940000  44.8100000  45.9120000  47.9930000
  44.9160000  44.1480000  47.7910000  46.3140000  45.1900000  47.3780000
  21.8120000  33.6600000  48.8800000  21.0430000  34.5830000  49.1450000
  21.5330000  35.9980000  49.2990000  19.5680000  34.3540000  49.3290000
  21.0490000  36.6350000  48.5550000  21.3080000  36.3560000  50.3060000
  22.6140000  36.0330000  49.1450000  19.3400000  33.2930000  49.1950000
  19.0120000  34.9320000  48.5860000  19.2730000  34.6540000  50.3370000
  23.8500000  26.4450000  42.8070000  23.2120000  26.3080000  43.8500000
  22.8960000  27.4780000  44.7410000  22.7080000  24.9620000  44.2950000
  21.8120000  27.5920000  44.8250000  23.3360000  27.3170000  45.7270000
  23.3150000  28.3920000  44.3130000  23.0020000  24.1990000  43.5700000
  21.6170000  24.9840000  44.3630000  23.1410000  24.7110000  45.2660000
  25.3700000  47.3560000  22.2810000  24.6690000  46.9980000  23.2260000
  25.1450000  47.1100000  24.6490000  23.2910000  46.4310000  23.0160000
  24.4750000  47.7680000  25.2090000  25.1680000  46.1190000  25.1060000
  26.1530000  47.5320000  24.6690000  23.0650000  46.3990000  21.9470000
  22.5540000  47.0640000  23.5160000  23.2490000  45.4150000  23.4150000
  43.1800000  43.3090000  25.6260000  42.0650000  43.8300000  25.6120000
  41.8930000  45.3250000  25.6100000  40.8080000  43.0040000  25.5930000
  41.3630000  45.6310000  24.7040000  41.3330000  45.6300000  26.4960000
  42.8720000  45.8100000  25.6260000  41.0660000  41.9410000  25.5990000
  40.2380000  43.2240000  24.6880000  40.2100000  43.2260000  26.4790000
  36.1680000  46.3290000  27.0630000  36.2010000  46.1570000  28.2800000
  36.4590000  44.8010000  28.8780000  35.9870000  47.2930000  29.2440000
  37.3670000  44.8360000  29.4850000  35.6070000  44.5030000  29.4920000
  36.5950000  44.0660000  28.0820000  35.8080000  48.2180000  28.6890000
  36.8780000  47.4190000  29.8640000  35.1180000  47.0830000  29.8710000
  33.7790000  29.2940000  42.8530000  33.5170000  30.3610000  42.3000000
  34.4060000  30.9340000  41.2300000  32.2910000  31.1560000  42.6590000
  33.8430000  31.0280000  40.2980000  34.7770000  31.9110000  41.5460000
  35.2580000  30.2700000  41.0620000  31.7340000  30.6400000  43.4450000
  31.6510000  31.2580000  41.7800000  32.5870000  32.1420000  43.0260000
  41.3080000  49.5700000  25.5500000  40.2810000  50.2450000  25.5830000
  38.9180000  49.6130000  25.5130000  40.3270000  51.7450000  25.6990000
  38.3580000  49.8470000  26.4220000  38.3860000  49.9880000  24.6350000
  39.0180000  48.5280000  25.4280000  41.3660000  52.0800000  25.7400000
  39.8180000  52.0570000  26.6150000  39.8440000  52.1950000  24.8290000
  28.9130000  20.2370000  32.9440000  29.7860000  19.7930000  32.2010000
  30.8190000  20.6890000  31.5740000  29.8750000  18.3270000  31.8760000
  31.8160000  20.3830000  31.9010000  30.7440000  20.6280000  30.4860000
  30.6480000  21.7230000  31.8830000  29.0730000  17.7860000  32.3870000
  30.8370000  17.9340000  32.2140000  29.7660000  18.1820000  30.7980000
  26.8640000  42.6060000  23.5150000  28.0600000  42.5540000  23.2310000
  28.8740000  43.8010000  23.0180000  28.7800000  41.2420000  23.0830000
  29.6870000  43.8360000  23.7470000  29.2780000  43.8050000  22.0030000
  28.2420000  44.6830000  23.1500000  28.0830000  40.4170000  23.2590000
  29.5890000  41.1830000  23.8140000  29.1800000  41.1550000  22.0700000
  35.2300000  36.8190000  40.9470000  34.6830000  37.6840000  41.6300000
  35.2280000  38.0920000  42.9720000  33.4400000  38.3890000  41.1610000
  35.4890000  39.1520000  42.9540000  34.4790000  37.9010000  43.7440000
  36.1250000  37.5100000  43.1980000  33.1450000  38.0060000  40.1810000
  33.6360000  39.4610000  41.0780000  32.6270000  38.2090000  41.8690000
  25.9730000  40.4630000  51.2400000  26.8220000  39.5720000  51.2550000
  26.4400000  38.1190000  51.3270000  28.2930000  39.8840000  51.1990000
  26.8090000  37.5990000  50.4400000  26.8650000  37.6730000  52.2300000
  25.3520000  38.0250000  51.3650000  28.4400000  40.9660000  51.1520000
  28.7300000  39.4280000  50.3070000  28.7830000  39.5010000  52.0970000
  25.2000000  28.4800000  45.6170000  26.2470000  28.5710000  46.2570000
  26.7050000  27.4760000  47.1810000  27.1330000  29.7820000  46.1510000
  27.6720000  27.0940000  46.8450000  26.7860000  27.8650000  48.1980000
  25.9800000  26.6580000  47.1720000  26.6930000  30.5020000  45.4550000
  28.1160000  29.4850000  45.7770000  27.2300000  30.2530000  47.1310000
  29.8100000  45.7010000  29.9530000  29.7820000  46.8810000  29.6050000
  29.1650000  47.3040000  28.3000000  30.3600000  47.9710000  30.4650000
  28.3350000  47.9880000  28.4920000  29.9200000  47.7920000  27.6790000
  28.7860000  46.4270000  27.7690000  30.7770000  47.5380000  31.3790000
  29.5740000  48.6790000  30.7370000  31.1580000  48.4830000  29.9220000
  29.9820000  50.9930000  35.1010000  29.2830000  49.9810000  35.0880000
  27.7810000  50.0600000  35.0800000  29.8890000  48.6030000  35.0770000
  27.3940000  49.5840000  34.1750000  27.3830000  49.5610000  35.9670000
  27.4660000  51.1060000  35.0920000  30.9800000  48.6800000  35.0870000
  29.5790000  48.0750000  34.1720000  29.5660000  48.0540000  35.9640000
  48.8480000  45.3550000  33.7930000  47.7250000  44.9270000  34.0510000
  47.1430000  45.0220000  35.4350000  46.8640000  44.2840000  32.9980000
  46.2290000  45.6220000  35.4070000  46.9250000  44.0200000  35.8110000
  47.8600000  45.5030000  36.1050000  47.3960000  44.2730000  32.0420000
  45.9400000  44.8560000  32.8810000  46.6360000  43.2560000  33.2870000
  23.2680000  26.9710000  31.5250000  22.9220000  25.7920000  31.4580000
  21.5000000  25.4030000  31.1560000  23.9010000  24.6690000  31.6700000
  21.4690000  24.8170000  30.2340000  21.0960000  24.8200000  31.9870000
  20.8910000  26.3010000  31.0260000  24.8920000  25.0790000  31.8820000
  23.9570000  24.0570000  30.7670000  23.5820000  24.0610000  32.5190000
  44.3550000  44.0600000  19.7460000  43.7880000  45.1510000  19.7250000
  42.5200000  45.3670000  18.9440000  44.3250000  46.3350000  20.4830000
  41.7160000  45.6600000  19.6230000  42.6810000  46.1430000  18.1920000
  42.2350000  44.4400000  18.4390000  45.2440000  46.0520000  21.0050000
  43.5870000  46.6640000  21.2190000  44.5500000  47.1450000  19.7860000
  38.1170000  51.8900000  28.0090000  37.5310000  50.8270000  28.2090000
  36.1750000  50.5510000  27.6190000  38.1370000  49.7390000  29.0530000
  36.2310000  49.6780000  26.9640000  35.4560000  50.3730000  28.4220000
  35.8440000  51.4120000  27.0340000  39.1150000  50.0600000  29.4220000
  38.2650000  48.8370000  28.4490000  37.4880000  49.5320000  29.9060000
  42.5960000  45.5860000  43.4070000  43.2470000  46.4260000  44.0260000
  44.2530000  46.0300000  45.0730000  43.0780000  47.9000000  43.7720000
  45.2440000  46.3860000  44.7810000  43.9670000  46.4590000  46.0360000
  44.2810000  44.9420000  45.1650000  42.3230000  48.0570000  42.9980000
  44.0270000  48.3240000  43.4330000  42.7510000  48.3950000  44.6890000
  40.2420000  27.8630000  25.5320000  41.4700000  27.8120000  25.5360000
  42.2070000  26.5000000  25.5350000  42.3110000  29.0600000  25.5390000
  42.8280000  26.4290000  24.6380000  42.8280000  26.4280000  26.4300000
  41.4900000  25.6750000  25.5340000  41.6640000  29.9410000  25.5420000
  42.9360000  29.0830000  24.6430000  42.9360000  29.0790000  26.4350000
  25.4580000  37.9950000  27.9180000  26.5630000  37.5070000  27.6880000
  27.5840000  38.2260000  26.8500000  26.9620000  36.1620000  28.2340000
  28.4810000  38.4140000  27.4450000  27.8320000  37.6210000  25.9750000
  27.1780000  39.1830000  26.5130000  26.1390000  35.7440000  28.8200000
  27.8360000  36.2740000  28.8810000  27.1870000  35.4840000  27.4090000
  38.2290000  20.3720000  39.8610000  38.3720000  19.2410000  39.3990000
  37.5040000  18.7290000  38.2820000  39.4250000  18.3020000  39.9230000
  38.1260000  18.4860000  37.4170000  36.9610000  17.8430000  38.6160000
  36.7830000  19.4980000  37.9930000  39.9840000  18.7860000  40.7280000
  40.1170000  18.0430000  39.1180000  38.9500000  17.4000000  40.3160000
  37.6050000  24.8020000  48.3770000  38.5000000  25.6400000  48.2740000
  39.9530000  25.2510000  48.3070000  38.1940000  27.1030000  48.1030000
  40.4300000  25.5360000  47.3660000  40.4450000  25.7490000  49.1460000
  40.0430000  24.1700000  48.4370000  37.1110000  27.2560000  48.0960000
  38.6070000  27.4560000  47.1550000  38.6250000  27.6670000  48.9340000
  50.0070000  28.1250000  50.4610000  50.1080000  29.3410000  50.3090000
  51.4460000  30.0070000  50.1390000  48.8980000  30.2360000  50.2820000
  51.4840000  30.5100000  49.1700000  51.6010000  30.7280000  50.9450000
  52.2400000  29.2570000  50.1790000  47.9930000  29.6370000  50.4170000
  48.8430000  30.7470000  49.3180000  48.9630000  30.9650000  51.0920000
  25.4410000  29.6490000  38.8600000  24.4240000  29.8370000  39.5260000
  23.0640000  29.9030000  38.8870000  24.4800000  30.0080000  41.0200000
  22.4310000  29.1090000  39.2910000  22.6140000  30.8790000  39.0840000
  23.1550000  29.7670000  37.8070000  25.5170000  29.9420000  41.3600000
  23.8990000  29.2180000  41.5010000  24.0810000  30.9880000  41.2920000
  44.0630000  50.2730000  31.9330000  44.7810000  50.4350000  30.9470000
  44.6430000  49.5750000  29.7210000  45.8390000  51.5040000  30.9080000
  44.3860000  50.2000000  28.8620000  45.5810000  49.0470000  29.5360000
  43.8480000  48.8400000  29.8720000  45.8410000  52.0550000  31.8530000
  45.6260000  52.2000000  30.0930000  46.8200000  51.0450000  30.7660000
  43.3990000  33.3000000  45.1890000  42.4070000  33.8660000  44.7330000
  41.2190000  33.0920000  44.2300000  42.3210000  35.3660000  44.6530000
  40.3340000  33.3590000  44.8130000  41.0560000  33.3170000  43.1730000
  41.4030000  32.0200000  44.3380000  43.2410000  35.8090000  45.0450000
  41.4770000  35.7160000  45.2520000  42.1980000  35.6710000  43.6120000
  48.4610000  17.4620000  32.0790000  48.0650000  18.0290000  33.0960000
  48.8490000  17.9880000  34.3790000  46.7730000  18.8010000  33.1160000
  49.1270000  19.0040000  34.6710000  48.2460000  17.5230000  35.1620000
  49.7590000  17.4000000  34.2370000  46.3000000  18.7540000  32.1310000
  46.9750000  19.8470000  33.3620000  46.0970000  18.3650000  33.8540000
  25.1070000  33.7680000  23.7830000  25.6140000  34.4980000  24.6330000
  24.8170000  35.0320000  25.7920000  27.0630000  34.9000000  24.5660000
  25.2550000  34.6810000  26.7300000  24.8130000  36.1230000  25.7620000
  23.7860000  34.6730000  25.7270000  27.5290000  34.4530000  23.6830000
  27.5830000  34.5440000  25.4590000  27.1390000  35.9870000  24.4930000
  22.9810000  37.5880000  19.8960000  23.4670000  38.7090000  20.0340000
  23.6310000  39.6460000  18.8680000  23.9230000  39.2130000  21.3760000
  23.0510000  40.5560000  19.0450000  24.6880000  39.8920000  18.7420000
  23.2670000  39.1680000  17.9550000  23.7540000  38.4440000  22.1350000
  23.3540000  40.1060000  21.6450000  24.9900000  39.4430000  21.3390000
  46.6350000  24.6000000  48.8150000  47.1880000  23.5010000  48.8100000
  47.5720000  22.8050000  50.0870000  47.5120000  22.7860000  47.5260000
  47.0500000  21.8480000  50.1540000  48.6520000  22.6480000  50.1080000
  47.2880000  23.4220000  50.9440000  47.1880000  23.3920000  46.6750000
  46.9880000  21.8280000  47.4990000  48.5900000  22.6280000  47.4560000
  29.3670000  41.4240000  42.5650000  29.3000000  40.2280000  42.2880000
  27.9790000  39.5190000  42.1680000  30.5350000  39.4030000  42.0500000
  27.8670000  39.1210000  41.1560000  27.9310000  38.7080000  42.8990000
  27.1640000  40.2200000  42.3640000  31.4250000  40.0280000  42.1680000
  30.5170000  39.0010000  41.0340000  30.5780000  38.5880000  42.7760000
  49.6040000  31.3690000  45.9920000  49.9100000  32.5100000  45.6490000
  49.0890000  33.7030000  46.0570000  51.1250000  32.7800000  44.8050000
  49.7040000  34.3840000  46.6500000  48.7150000  34.2120000  45.1660000
  48.2390000  33.3770000  46.6620000  51.6320000  31.8390000  44.5740000
  51.8140000  33.4280000  45.3520000  50.8230000  33.2560000  43.8690000
  38.8670000  34.5330000  22.5260000  39.0190000  34.0960000  23.6660000
  39.9670000  34.7430000  24.6390000  38.2650000  32.8900000  24.1550000
  39.4120000  35.0880000  25.5150000  40.7330000  34.0240000  24.9370000
  40.4520000  35.6010000  24.1670000  37.6150000  32.5130000  23.3600000
  37.6480000  33.1670000  25.0140000  38.9700000  32.1050000  24.4360000
  24.7600000  46.2180000  48.2180000  25.6670000  45.3870000  48.2310000
  25.5380000  44.0680000  47.5180000  26.9600000  45.6410000  48.9570000
  26.3160000  43.9870000  46.7550000  25.6300000  43.2530000  48.2390000
  24.5600000  44.0040000  47.0350000  26.9290000  46.6260000  49.4320000
  27.7900000  45.6180000  48.2460000  27.1030000  44.8810000  49.7280000
  19.5310000  42.9890000  25.7760000  20.2540000  43.4960000  24.9190000
  21.3840000  42.7300000  24.2860000  20.0500000  44.9110000  24.4520000
  21.2160000  42.6540000  23.2090000  22.3290000  43.2400000  24.4860000
  21.4300000  41.7230000  24.7080000  19.2070000  45.3580000  24.9850000
  19.8340000  44.9150000  23.3810000  20.9480000  45.4990000  24.6570000
  35.8250000  19.7980000  19.7240000  34.7110000  19.4670000  19.3220000
  33.4580000  20.1130000  19.8460000  34.5350000  18.3970000  18.2790000
  32.9250000  20.5990000  19.0250000  32.8230000  19.3560000  20.3120000
  33.7160000  20.8670000  20.5950000  35.5120000  18.0060000  17.9820000
  34.0420000  18.8200000  17.4000000  33.9380000  17.5790000  18.6890000
  26.1640000  45.6440000  38.2060000  26.5210000  46.5590000  37.4660000
  26.6780000  47.9670000  37.9720000  26.8270000  46.3240000  36.0120000
  27.7140000  48.2900000  37.8410000  26.0050000  48.6300000  37.4240000
  26.4270000  48.0080000  39.0350000  26.6740000  45.2690000  35.7680000
  27.8680000  46.5870000  35.8090000  26.1590000  46.9290000  35.3940000
  23.2930000  25.3870000  29.1450000  23.3050000  25.4900000  27.9190000
  23.1720000  26.8260000  27.2390000  23.4560000  24.2890000  27.0270000
  24.0650000  27.0230000  26.6420000  22.2850000  26.8250000  26.6020000
  23.0670000  27.6140000  27.9890000  23.5410000  23.3850000  27.6370000
  24.3600000  24.3930000  26.4220000  22.5790000  24.1980000  26.3820000
  36.8160000  22.0410000  33.9000000  35.7830000  22.6880000  33.7320000
  34.4450000  22.0150000  33.5920000  35.7970000  24.1900000  33.6610000
  33.7830000  22.3450000  34.3960000  34.0110000  22.2620000  32.6200000
  34.5680000  20.9310000  33.6580000  36.8210000  24.5560000  33.7740000
  35.1840000  24.6010000  34.4680000  35.4110000  24.5150000  32.6920000
  39.7920000  19.5520000  47.3140000  38.7260000  19.7690000  47.8880000
  38.4790000  19.3020000  49.2970000  37.6060000  20.5170000  47.2170000
  38.2850000  20.1640000  49.9400000  37.6250000  18.6210000  49.3120000
  39.3590000  18.7740000  49.6710000  37.9060000  20.7990000  46.2030000
  37.3800000  21.4240000  47.7830000  36.7220000  19.8790000  47.1580000
  33.5790000  23.1510000  30.3590000  34.4570000  24.0020000  30.2260000
  34.1420000  25.4730000  30.2600000  35.8990000  23.6240000  30.0260000
  34.6780000  25.9440000  31.0870000  34.4320000  25.9310000  29.3120000
  33.0680000  25.6170000  30.4070000  35.9970000  22.5350000  30.0190000
  36.5010000  24.0270000  30.8450000  36.2530000  24.0160000  29.0700000
  52.2010000  24.8860000  31.4380000  50.9910000  24.8190000  31.6470000
  50.3640000  23.6040000  32.2750000  50.0650000  25.9500000  31.2890000
  49.8800000  23.8860000  33.2130000  49.6320000  23.1730000  31.5880000
  51.1340000  22.8580000  32.4850000  50.6370000  26.7670000  30.8410000
  49.5700000  26.3170000  32.1910000  49.3230000  25.6020000  30.5670000
  29.8000000  24.1020000  49.0040000  30.3420000  24.3040000  50.0890000
  31.8210000  24.5620000  50.1960000  29.5590000  24.3090000  51.3740000
  31.9900000  25.5500000  50.6310000  32.2820000  23.7920000  50.8190000
  32.2740000  24.5310000  49.2020000  28.5050000  24.1090000  51.1640000
  29.6450000  25.2880000  51.8520000  29.9400000  23.5300000  52.0380000
  33.0960000  31.7570000  24.9600000  33.7880000  30.7520000  24.8020000
  33.2060000  29.3690000  24.9080000  35.2560000  30.8470000  24.4890000
  33.3300000  28.8460000  23.9560000  33.7080000  28.8210000  25.7080000
  32.1400000  29.4340000  25.1390000  35.5570000  31.8970000  24.4410000
  35.4560000  30.3770000  23.5220000  35.8310000  30.3510000  25.2740000
  17.3750000  36.5820000  38.8290000  18.5970000  36.5610000  38.9710000
  19.2920000  37.4630000  39.9540000  19.4690000  35.6310000  38.1720000
  19.8210000  36.8590000  40.6950000  19.9960000  38.1090000  39.4240000
  18.5560000  38.0880000  40.4670000  18.8490000  35.0340000  37.4960000
  20.0030000  34.9590000  38.8480000  20.1780000  36.2120000  37.5780000
  49.7990000  21.3380000  48.7630000  50.5890000  22.2700000  48.9100000
  51.0770000  22.6830000  50.2710000  51.1180000  23.0480000  47.7360000
  52.1640000  22.5730000  50.3200000  50.7950000  23.7210000  50.4620000
  50.6230000  22.0470000  51.0350000  50.6900000  22.6550000  46.8090000
  52.2050000  22.9520000  47.6920000  50.8360000  24.0990000  47.8360000
  25.2400000  40.6070000  23.1910000  25.2630000  39.4760000  23.6740000
  26.2210000  38.4270000  23.1790000  24.3360000  39.0740000  24.7890000
  26.8760000  38.1140000  23.9970000  25.6610000  37.5700000  22.7960000
  26.8350000  38.8370000  22.3730000  23.6920000  39.9170000  25.0550000
  24.9210000  38.7850000  25.6650000  23.7090000  38.2410000  24.4630000
  23.9930000  47.6690000  36.1800000  23.1870000  48.5960000  36.2490000
  23.2150000  49.5830000  37.3840000  22.1270000  48.7990000  35.2000000
  23.3900000  50.5880000  36.9910000  22.2650000  49.5490000  37.9220000
  24.0220000  49.3290000  38.0750000  22.2100000  48.0210000  34.4360000
  22.2620000  49.7750000  34.7270000  21.1390000  48.7370000  35.6610000
  46.9490000  43.7210000  22.6710000  47.5140000  44.3240000  23.5820000
  46.8130000  45.3970000  24.3710000  48.9380000  44.0240000  23.9650000
  46.7720000  45.1090000  25.4250000  47.3480000  46.3420000  24.2590000
  45.7930000  45.5220000  23.9990000  49.3340000  43.2340000  23.3210000
  48.9750000  43.6860000  25.0030000  49.5480000  44.9210000  23.8380000
  43.0250000  22.3810000  39.1970000  44.0370000  22.0110000  38.6030000
  44.9790000  22.9940000  37.9610000  44.3940000  20.5550000  38.4840000
  45.9680000  22.9040000  38.4170000  45.0390000  22.7970000  36.8890000
  44.6110000  24.0120000  38.1140000  43.6360000  19.9470000  38.9860000
  45.3620000  20.3750000  38.9600000  44.4340000  20.2710000  37.4300000
  44.2760000  27.6980000  30.1530000  44.9940000  28.3630000  30.8980000
  45.0460000  29.8640000  30.8110000  45.8630000  27.7150000  31.9420000
  44.7230000  30.2970000  31.7610000  46.0650000  30.1820000  30.5780000
  44.3780000  30.2110000  30.0190000  45.7380000  26.6290000  31.9030000
  45.5690000  28.0690000  32.9330000  46.9100000  27.9570000  31.7500000
  21.6690000  52.0720000  41.2520000  20.6520000  51.3990000  41.4190000
  20.1500000  50.4520000  40.3630000  19.8530000  51.4810000  42.6910000
  20.1390000  49.4340000  40.7600000  19.1450000  50.7480000  40.0550000
  20.8110000  50.4850000  39.4930000  20.3160000  52.2000000  43.3720000
  19.8300000  50.5010000  43.1730000  18.8370000  51.8130000  42.4650000
  20.0360000  32.7280000  39.3730000  19.4290000  33.3550000  40.2410000
  17.9810000  33.7290000  40.0760000  20.0980000  33.7820000  41.5190000
  17.3920000  33.2710000  40.8740000  17.8790000  34.8160000  40.1070000
  17.6130000  33.3670000  39.1130000  21.1410000  33.4540000  41.5170000
  19.5860000  33.3260000  42.3700000  20.0700000  34.8710000  41.6010000
  46.5000000  36.1510000  37.6280000  46.7090000  36.5450000  38.7740000
  48.0930000  36.5570000  39.3630000  45.5950000  37.0430000  39.6530000
  48.3710000  37.5810000  39.6260000  48.1190000  35.9200000  40.2510000
  48.8100000  36.1730000  38.6330000  44.6450000  36.9820000  39.1150000
  45.7810000  38.0840000  39.9270000  45.5310000  36.4230000  40.5510000
  42.3170000  36.8250000  22.9020000  41.7270000  37.8680000  22.6240000
  42.4550000  39.1800000  22.5100000  40.2430000  37.8930000  22.3780000
  42.3390000  39.5760000  21.4980000  42.0530000  39.8860000  23.2400000
  43.5180000  39.0310000  22.7110000  39.8330000  36.8860000  22.4920000
  40.0460000  38.2420000  21.3620000  39.7620000  38.5540000  23.1040000
  38.0130000  36.8170000  30.2940000  38.3610000  35.6680000  30.5600000
  39.8130000  35.2960000  30.7000000  37.3580000  34.5660000  30.7630000
  39.9990000  34.9220000  31.7090000  40.0680000  34.5320000  29.9610000
  40.4380000  36.1760000  30.5280000  36.3460000  34.9600000  30.6340000
  37.4540000  34.1650000  31.7750000  37.5250000  33.7760000  30.0270000
  39.8870000  30.4370000  31.7680000  41.0450000  30.1580000  31.4610000
  41.8020000  29.0570000  32.1520000  41.7730000  30.9010000  30.3740000
  42.0840000  28.2930000  31.4230000  42.6930000  29.4690000  32.6300000
  41.1700000  28.5990000  32.9170000  41.1220000  31.6730000  29.9540000
  42.0540000  30.2050000  29.5790000  42.6640000  31.3790000  30.7880000
  32.0220000  28.9470000  21.4190000  31.3940000  29.9470000  21.7660000
  32.0490000  31.0610000  22.5360000  29.9360000  30.1160000  21.4380000
  31.9910000  31.9880000  21.9600000  31.5480000  31.1840000  23.4990000
  33.1000000  30.8200000  22.7130000  29.5790000  29.2450000  20.8830000
  29.8000000  31.0080000  20.8220000  29.3600000  30.2050000  22.3620000
  46.0040000  25.5040000  42.1260000  46.0740000  26.6640000  41.7230000
  47.1060000  27.6220000  42.2530000  45.1340000  27.1940000  40.6750000
  47.7490000  27.9570000  41.4350000  46.6090000  28.4770000  42.7160000
  47.7220000  27.1220000  43.0050000  44.4350000  26.4080000  40.3750000
  45.7040000  27.5130000  39.7990000  44.5660000  28.0330000  41.0820000
  47.6500000  26.5460000  39.4560000  47.6440000  27.2310000  38.4340000
  47.7300000  28.7320000  38.4900000  47.5520000  26.6080000  37.0670000
  48.6260000  29.0670000  37.9620000  46.8380000  29.1670000  38.0330000
  47.7890000  29.0600000  39.5300000  47.4930000  25.5210000  37.1610000
  48.4420000  26.8660000  36.4870000  46.6540000  26.9680000  36.5600000
  52.2000000  43.3740000  46.3060000  51.8030000  42.4360000  45.6160000
  51.5500000  42.5940000  44.1410000  51.5500000  41.0750000  46.2040000
  52.2000000  41.9150000  43.5830000  50.5020000  42.3750000  43.9240000
  51.7670000  43.6210000  43.8370000  51.7670000  41.0900000  47.2760000
  52.2000000  40.3410000  45.7220000  50.5020000  40.8020000  46.0610000
  26.3230000  27.4850000  42.6080000  26.2180000  26.3080000  42.9480000
  25.9820000  25.2140000  41.9420000  26.3230000  25.8910000  44.3900000
  26.8090000  24.5020000  41.9750000  25.0400000  24.7080000  42.1660000
  25.9230000  25.6420000  40.9380000  26.4910000  26.7700000  45.0170000
  27.1630000  25.2030000  44.5120000  25.3930000  25.4090000  44.7010000
  36.9370000  35.5760000  41.5630000  37.0950000  34.6210000  40.8050000
  36.0390000  34.2190000  39.8110000  38.3550000  33.7990000  40.8230000
  36.4430000  34.2910000  38.7980000  35.7150000  33.1960000  40.0150000
  35.1780000  34.8870000  39.8970000  39.0380000  34.1870000  41.5840000
  38.8440000  33.8560000  39.8470000  38.1130000  32.7610000  41.0630000
  32.8620000  48.4230000  45.7270000  31.8690000  49.1170000  45.5180000
  31.8020000  50.0700000  44.3550000  30.6590000  49.0520000  46.4100000
  30.9760000  49.7880000  43.6970000  31.6600000  51.0880000  44.7240000
  32.7350000  50.0270000  43.7880000  30.8310000  48.3300000  47.2130000
  29.7910000  48.7330000  45.8280000  30.4760000  50.0340000  46.8520000
  30.1610000  44.7200000  28.0150000  29.1650000  44.1400000  27.5830000
  27.8550000  44.1650000  28.3220000  29.1980000  43.3750000  26.2880000
  27.0900000  44.6290000  27.6950000  27.5620000  43.1450000  28.5810000
  27.9600000  44.7470000  29.2410000  30.1990000  43.4300000  25.8520000
  28.4820000  43.8100000  25.5870000  28.9530000  42.3270000  26.4750000
  17.3970000  33.3400000  46.7490000  18.5070000  33.7480000  46.4120000
  19.7300000  32.8760000  46.5050000  18.7090000  35.1420000  45.8830000
  20.1630000  32.7460000  45.5100000  20.4580000  33.3380000  47.1760000
  19.4550000  31.8960000  46.9020000  17.7520000  35.6720000  45.8670000
  19.1040000  35.0950000  44.8660000  19.4010000  35.6840000  46.5320000
  32.4450000  24.2140000  38.0830000  32.3220000  24.8190000  37.0190000
  32.2520000  26.3210000  36.9690000  32.2370000  24.0930000  35.7040000
  33.0850000  26.7070000  36.3750000  31.3010000  26.6290000  36.5300000
  32.3230000  26.7280000  37.9810000  32.2970000  23.0150000  35.8730000
  33.0680000  24.3970000  35.0630000  31.2850000  24.3220000  35.2200000
  21.2100000  42.0430000  34.4820000  22.4050000  41.9110000  34.2250000
  23.3020000  43.1000000  34.0090000  23.0430000  40.5530000  34.1140000
  24.1000000  43.0970000  34.7560000  23.7260000  43.0600000  33.0040000
  22.7250000  44.0220000  34.1130000  22.2920000  39.7770000  34.2890000
  23.8320000  40.4560000  34.8650000  23.4580000  40.4230000  33.1120000
  26.5050000  49.7140000  26.9280000  25.7690000  48.9740000  27.5780000
  24.5980000  49.5110000  28.3550000  25.9940000  47.4880000  27.6340000
  23.6730000  49.0680000  27.9760000  24.7220000  49.2770000  29.4140000
  24.5420000  50.5960000  28.2370000  26.8710000  47.2240000  27.0360000
  25.1210000  46.9700000  27.2300000  26.1680000  47.1820000  28.6680000
  44.4730000  40.6810000  38.3530000  44.5880000  41.7620000  38.9270000
  44.2530000  41.9210000  40.3850000  45.0760000  42.9900000  38.2070000
  45.1430000  42.2400000  40.9330000  43.4560000  42.6590000  40.4990000
  43.9110000  40.9660000  40.7920000  45.2820000  42.7460000  37.1610000
  45.9960000  43.3480000  38.6750000  44.3070000  43.7660000  38.2430000
  50.0040000  38.4140000  33.1300000  50.1690000  38.8130000  34.2820000
  51.0280000  38.0610000  35.2620000  49.5230000  40.0780000  34.7790000
  51.8560000  38.6960000  35.5860000  50.4250000  37.7600000  36.1220000
  51.4350000  37.1660000  34.7850000  48.9280000  40.5270000  33.9800000
  50.2960000  40.7870000  35.0850000  48.8670000  39.8480000  35.6220000
  47.6750000  41.8990000  24.5800000  48.1790000  40.7830000  24.7000000
  47.3380000  39.5580000  24.9340000  49.6670000  40.5770000  24.6170000
  47.4840000  38.8520000  24.1140000  47.6200000  39.0970000  25.8840000
  46.2820000  39.8380000  24.9770000  50.1640000  41.5360000  24.4480000
  49.8980000  39.9080000  23.7850000  50.0320000  40.1520000  25.5550000
  30.8730000  42.8100000  49.5150000  30.8250000  42.8270000  50.7440000
  31.7180000  41.9530000  51.5810000  29.8710000  43.7250000  51.4830000
  32.3490000  42.5780000  52.2180000  31.1080000  41.2850000  52.1930000
  32.3590000  41.3500000  50.9320000  29.2790000  44.3040000  50.7680000
  30.4330000  44.4150000  52.1170000  29.1940000  43.1200000  52.0920000
  29.7530000  19.6420000  44.0080000  29.2360000  20.1100000  42.9940000
  28.0630000  19.4440000  42.3270000  29.7430000  21.3780000  42.3630000
  27.2080000  20.1240000  42.3250000  28.3300000  19.1710000  41.3040000
  27.7920000  18.5380000  42.8750000  30.5920000  21.7610000  42.9360000
  28.9490000  22.1290000  42.3620000  30.0700000  21.1740000  41.3410000
  34.3320000  32.5270000  44.3060000  34.4670000  33.7110000  43.9990000
  33.5920000  34.7830000  44.5900000  35.5160000  34.1580000  43.0180000
  34.2090000  35.5000000  45.1370000  33.0450000  35.2900000  43.7920000
  32.8740000  34.3350000  45.2810000  36.0800000  33.2920000  42.6620000
  36.2040000  34.8510000  43.5080000  35.0370000  34.6420000  42.1640000
  19.5530000  46.8300000  26.7520000  20.6050000  46.2760000  27.0710000
  20.6140000  44.9490000  27.7790000  21.9440000  46.8930000  26.7690000
  21.1370000  44.2110000  27.1660000  21.1090000  45.0540000  28.7470000
  19.5880000  44.6100000  27.9420000  21.8030000  47.8490000  26.2590000
  22.5150000  46.2260000  26.1190000  22.4860000  47.0670000  27.7010000
  36.1890000  29.3850000  21.2220000  35.7180000  28.3230000  20.8170000
  34.3820000  28.2640000  20.1280000  36.4520000  27.0200000  20.9840000
  34.5100000  27.8760000  19.1140000  33.7050000  27.6220000  20.6950000
  33.9520000  29.2670000  20.0700000  37.4020000  27.1950000  21.4970000
  36.6550000  26.5860000  20.0020000  35.8490000  26.3340000  21.5820000
  26.8530000  39.4230000  35.0070000  26.6690000  39.8100000  33.8540000
  26.4680000  38.8430000  32.7200000  26.6320000  41.2740000  33.5110000
  25.4860000  39.0070000  32.2690000  27.2530000  38.9850000  31.9740000
  26.5180000  37.8180000  33.0950000  26.7930000  41.8700000  34.4140000
  25.6560000  41.5270000  33.0890000  27.4230000  41.5030000  32.7930000
  41.5500000  20.1660000  28.3930000  42.5950000  19.7440000  28.8850000
  43.9150000  19.8900000  28.1780000  42.6170000  19.0600000  30.2250000
  44.5960000  20.4840000  28.7920000  44.3410000  18.9010000  27.9910000
  43.7670000  20.3970000  27.2210000  41.6030000  19.0150000  30.6330000
  43.2500000  19.6240000  30.9140000  42.9970000  18.0420000  30.1110000
  42.4460000  32.2150000  40.0060000  42.2240000  31.8310000  38.8590000
  42.4810000  30.4090000  38.4400000  41.6800000  32.7590000  37.8070000
  41.5460000  29.9500000  38.1090000  43.2150000  30.3930000  37.6310000
  42.8740000  29.8400000  39.2860000  41.5390000  33.7570000  38.2330000
  40.7160000  32.3860000  37.4530000  42.3860000  32.8260000  36.9760000
  41.1220000  51.0420000  33.9050000  40.0440000  50.8580000  33.3420000
  39.9690000  50.3930000  31.9130000  38.7350000  51.0830000  34.0490000
  39.4500000  49.4320000  31.8660000  39.4400000  51.1370000  31.3130000
  40.9780000  50.2690000  31.5120000  38.9220000  51.4180000  35.0730000
  38.1710000  50.1480000  34.0810000  38.1620000  51.8510000  33.5250000
  49.0430000  44.6070000  40.6620000  50.1820000  44.7730000  41.0950000
  51.3060000  43.8380000  40.7410000  50.5200000  45.9240000  42.0030000
  52.0920000  44.3910000  40.2220000  51.7030000  43.3820000  41.6510000
  50.9350000  43.0480000  40.0830000  49.6250000  46.5250000  42.1860000
  51.2780000  46.5540000  41.5300000  50.8900000  45.5430000  42.9580000
  35.4780000  41.5800000  33.3680000  36.2480000  42.5050000  33.1140000
  35.8350000  43.9420000  33.2820000  37.6480000  42.2560000  32.6250000
  36.4850000  44.4270000  34.0150000  35.9020000  44.4570000  32.3210000
  34.8030000  43.9910000  33.6380000  37.8240000  41.1790000  32.5430000
  38.3650000  42.6780000  33.3340000  37.7790000  42.7100000  31.6400000
  24.1310000  35.1140000  42.8670000  24.5840000  36.2470000  43.0260000
  23.7060000  37.4660000  42.9540000  26.0440000  36.4800000  43.3060000
  23.7330000  37.9940000  43.9100000  24.0530000  38.1200000  42.1510000
  22.6750000  37.1670000  42.7450000  26.5720000  35.5230000  43.3310000
  26.1570000  36.9720000  44.2750000  26.4750000  37.0990000  42.5160000
  28.8730000  44.9430000  46.4590000  28.5970000  44.5720000  45.3190000
  28.2940000  43.1320000  45.0100000  28.5430000  45.5380000  44.1660000
  27.2790000  43.0480000  44.6130000  29.0150000  42.7540000  44.2820000
  28.3670000  42.5340000  45.9220000  28.7830000  46.5450000  44.5180000
  27.5370000  45.5420000  43.7390000  29.2730000  45.2460000  43.4090000
  49.7060000  30.4300000  36.5600000  49.8020000  29.8850000  35.4620000
  50.3400000  28.4880000  35.3190000  49.3840000  30.5830000  34.1960000
  49.5760000  27.8440000  34.8760000  51.2320000  28.5020000  34.6880000
  50.6090000  28.0930000  36.3020000  49.0150000  31.5850000  34.4310000
  48.5840000  30.0160000  33.7120000  50.2420000  30.6710000  33.5260000
  45.2890000  23.8520000  29.0100000  46.3980000  24.3830000  29.0090000
  46.5570000  25.8790000  29.0000000  47.6630000  23.5680000  29.0210000
  47.0930000  26.1960000  29.8980000  47.1060000  26.1840000  28.1060000
  45.5730000  26.3550000  28.9900000  47.4160000  22.5030000  29.0240000
  48.2400000  23.8000000  29.9190000  48.2510000  23.7910000  28.1270000
  49.1920000  26.5330000  44.8210000  49.3610000  27.7510000  44.8170000
  50.7370000  28.3570000  44.7680000  48.2010000  28.7080000  44.8590000
  50.8360000  28.9660000  43.8660000  50.8990000  28.9700000  45.6570000
  51.4890000  27.5640000  44.7430000  47.2620000  28.1490000  44.8950000
  48.2070000  29.3310000  43.9610000  48.2730000  29.3340000  45.7510000
  35.2120000  27.6250000  34.8800000  34.6140000  28.2960000  35.7200000
  33.4180000  29.1330000  35.3550000  35.0410000  28.3170000  37.1630000
  32.5460000  28.7900000  35.9170000  33.6230000  30.1820000  35.5820000
  33.2110000  29.0360000  34.2870000  35.9160000  27.6750000  37.2980000
  34.2280000  27.9440000  37.7900000  35.3030000  29.3370000  37.4530000
  52.2010000  34.3790000  28.9530000  51.7980000  33.2180000  28.9880000
  51.5610000  32.5030000  30.2900000  51.5130000  32.4440000  27.7290000
  50.5100000  32.2130000  30.3630000  52.2000000  31.6190000  30.3440000
  51.8040000  33.1650000  31.1250000  51.7250000  33.0670000  26.8570000
  50.4600000  32.1520000  27.7090000  52.1510000  31.5570000  27.6920000
  29.4370000  40.1730000  39.5160000  28.3890000  40.0560000  38.8830000
  28.3410000  39.3410000  37.5600000  27.0910000  40.6190000  39.3950000
  27.6660000  38.4850000  37.6310000  27.9980000  40.0290000  36.7840000
  29.3400000  38.9820000  37.2980000  27.2570000  41.1130000  40.3560000
  26.3700000  39.8100000  39.5330000  26.7030000  41.3530000  38.6840000
  24.4310000  34.8250000  45.0060000  23.5720000  34.6470000  45.8680000
  23.7630000  33.6490000  46.9770000  22.2810000  35.4200000  45.8670000
  23.7360000  34.1620000  47.9410000  22.9740000  32.8940000  46.9300000
  24.7310000  33.1540000  46.8670000  22.2620000  36.1060000  45.0170000
  22.2000000  35.9990000  46.7910000  21.4400000  34.7280000  45.7810000
  34.0170000  27.5200000  51.3060000  33.8680000  28.4850000  50.5580000
  34.2630000  28.4270000  49.1080000  33.2770000  29.7790000  51.0480000
  33.3840000  28.5960000  48.4810000  35.0220000  29.1860000  48.9050000
  34.6780000  27.4430000  48.8770000  33.0350000  29.6950000  52.1110000
  32.3620000  29.9970000  50.4920000  34.0010000  30.5860000  50.9140000
  47.3090000  35.3250000  24.7510000  46.3340000  34.5940000  24.5840000
  44.9630000  35.1550000  24.3220000  46.4550000  33.0950000  24.6290000
  44.6060000  34.8100000  23.3490000  44.2790000  34.8330000  25.1110000
  45.0060000  36.2470000  24.3160000  47.4930000  32.8140000  24.8270000
  46.1520000  32.6740000  23.6660000  45.8240000  32.7000000  25.4280000
  48.6290000  49.7240000  45.4740000  49.1700000  49.9270000  44.3890000
  49.3670000  48.8230000  43.3870000  49.6660000  51.2930000  43.9970000
  48.8350000  49.0660000  42.4640000  50.4330000  48.6970000  43.1850000
  48.9700000  47.8860000  43.7860000  49.4680000  52.0030000  44.8050000
  49.1440000  51.6270000  43.0970000  50.7420000  51.2550000  43.8170000
  20.2500000  37.5940000  43.8160000  19.5660000  38.5990000  43.6310000
  20.1870000  39.9230000  43.2770000  18.0660000  38.5640000  43.7440000
  19.8190000  40.2510000  42.3020000  19.9380000  40.6610000  44.0430000
  21.2740000  39.8190000  43.2280000  17.7390000  37.5540000  44.0060000
  17.6200000  38.8430000  42.7860000  17.7410000  39.2540000  44.5260000
  21.6330000  35.1200000  35.8190000  22.2460000  34.0540000  35.8000000
  23.5060000  33.8820000  34.9960000  21.7730000  32.8580000  36.5810000
  24.3340000  33.6300000  35.6630000  23.3630000  33.0910000  34.2560000
  23.7420000  34.8140000  34.4760000  20.8530000  33.1080000  37.1170000
  22.5380000  32.5680000  37.3060000  21.5690000  32.0310000  35.8970000
  40.6860000  24.0250000  24.1680000  39.5250000  24.3730000  23.9580000
  38.3970000  23.3780000  23.9280000  39.1630000  25.8140000  23.7230000
  37.6720000  23.6220000  24.7090000  37.9160000  23.3990000  22.9480000
  38.7860000  22.3730000  24.1100000  40.0640000  26.4330000  23.7670000
  38.4660000  26.1480000  24.4960000  38.7100000  25.9220000  22.7350000
  50.9070000  49.8870000  27.6340000  49.7480000  50.2740000  27.7770000
  48.6880000  49.3870000  28.3710000  49.3240000  51.6590000  27.3710000
  48.2950000  49.8450000  29.2820000  47.8840000  49.2420000  27.6450000
  49.1170000  48.4140000  28.6210000  50.1780000  52.2000000  26.9550000
  48.9540000  52.2000000  28.2460000  48.5430000  51.5950000  26.6100000
  34.1610000  48.7670000  22.4480000  34.4120000  49.4790000  23.4190000
  35.1380000  48.9440000  24.6230000  34.0100000  50.9280000  23.4600000
  36.0710000  49.4960000  24.7640000  34.5040000  49.0440000  25.5080000
  35.3730000  47.8870000  24.4740000  33.4910000  51.1930000  22.5340000
  34.9010000  51.5530000  23.5580000  33.3360000  51.0980000  24.3030000
  28.2360000  31.4520000  29.8190000  27.1650000  31.3090000  29.2310000
  26.3260000  32.4880000  28.8200000  26.6320000  29.9450000  28.8840000
  26.2100000  32.4950000  27.7340000  25.3490000  32.4280000  29.3040000
  26.8160000  33.4150000  29.1290000  27.3270000  29.1770000  29.2340000
  26.5270000  29.8590000  27.7990000  25.6650000  29.7950000  29.3690000
  21.5970000  40.2460000  48.1720000  21.1920000  40.3830000  47.0180000
  21.4660000  41.6350000  46.2290000  20.4010000  39.3060000  46.3270000
  22.0430000  41.3850000  45.3360000  20.5210000  42.1050000  45.9490000
  22.0420000  42.3360000  46.8380000  20.2680000  38.4560000  47.0010000
  20.9390000  38.9710000  45.4360000  19.4180000  39.6940000  46.0500000
  32.6800000  36.5730000  52.2410000  31.6940000  37.0450000  51.6770000
  31.6800000  38.4590000  51.1640000  30.4430000  36.2360000  51.4650000
  31.5230000  38.4550000  50.0820000  30.8840000  39.0210000  51.6580000
  32.6380000  38.9400000  51.3790000  30.5770000  35.2340000  51.8810000
  30.2400000  36.1500000  50.3940000  29.6040000  36.7180000  51.9700000
  20.5700000  34.0280000  17.4000000  19.9920000  34.9960000  17.8910000
  18.5360000  34.9390000  18.2670000  20.7080000  36.2940000  18.1480000
  18.4280000  35.1190000  19.3390000  17.9830000  35.6920000  17.7010000
  18.1320000  33.9520000  18.0310000  21.7510000  36.2090000  17.8330000
  20.6790000  36.5230000  19.2170000  20.2310000  37.0950000  17.5780000
  17.4830000  49.3780000  20.7260000  18.1360000  49.7510000  21.7000000
  18.0810000  49.0210000  23.0140000  19.0310000  50.9590000  21.6330000
  19.0780000  48.6530000  23.2710000  17.7160000  49.6950000  23.7920000
  17.4000000  48.1700000  22.9360000  18.9820000  51.4000000  20.6330000
  20.0620000  50.6620000  21.8390000  18.6990000  51.7020000  22.3620000
  30.9330000  50.6360000  30.4080000  30.7130000  50.4480000  31.6030000
  29.3780000  50.7640000  32.2200000  31.7660000  49.8870000  32.5210000
  28.9400000  49.8520000  32.6340000  29.5050000  51.5120000  33.0050000
  28.7050000  51.1640000  31.4570000  32.6850000  49.7030000  31.9580000
  31.4160000  48.9430000  32.9460000  31.9780000  50.6040000  33.3170000
  33.2770000  34.2550000  18.3360000  32.8840000  33.4990000  19.2230000
  31.4290000  33.4120000  19.5990000  33.8330000  32.6140000  19.9840000
  31.0680000  32.3950000  19.4320000  31.3060000  33.6890000  20.6490000
  30.8470000  34.1000000  18.9810000  34.8530000  32.7700000  19.6220000
  33.5600000  31.5670000  19.8310000  33.7950000  32.8620000  21.0470000
  29.5490000  49.1970000  39.9770000  30.7610000  48.9920000  39.9320000
  31.3670000  48.0590000  38.9190000  31.7110000  49.6660000  40.8840000
  32.0650000  48.6100000  38.2850000  31.8850000  47.2470000  39.4330000
  30.5800000  47.6340000  38.2910000  31.1520000  50.3120000  41.5670000
  32.4220000  50.2760000  40.3220000  32.2410000  48.9110000  41.4690000
  37.5190000  36.6680000  47.8740000  37.5960000  35.6690000  47.1600000
  36.8560000  34.4020000  47.4930000  38.4310000  35.6560000  45.9090000
  36.1590000  34.1620000  46.6860000  37.5690000  33.5870000  47.6300000
  36.2910000  34.5370000  48.4190000  38.9160000  36.6280000  45.7790000
  37.7920000  35.4620000  45.0440000  39.2010000  34.8850000  45.9890000
  45.0360000  37.7300000  46.0350000  45.2130000  37.1490000  44.9660000
  46.0070000  35.8740000  44.8830000  44.6430000  37.6770000  43.6770000
  45.3710000  35.0710000  44.5000000  46.8660000  36.0200000  44.2250000
  46.3660000  35.5970000  45.8770000  44.0930000  38.6030000  43.8680000
  43.9580000  36.9400000  43.2500000  45.4540000  37.8870000  42.9760000
  31.8390000  50.2940000  49.0050000  32.8140000  49.6830000  48.5720000
  33.9140000  50.3830000  47.8210000  32.9690000  48.2000000  48.7710000
  34.8580000  50.2630000  48.3570000  33.9950000  49.9640000  46.8160000
  33.6860000  51.4490000  47.7410000  32.1100000  47.8110000  49.3250000
  33.8780000  47.9990000  49.3420000  33.0160000  47.7030000  47.8000000
  28.1880000  34.4090000  44.3300000  29.2680000  33.9620000  44.7120000
  30.3060000  33.4710000  43.7400000  29.6160000  33.8810000  46.1730000
  31.2190000  34.0620000  43.8500000  30.5160000  32.4160000  43.9300000
  29.9360000  33.5790000  42.7180000  28.7850000  34.2630000  46.7720000
  30.5040000  34.4870000  46.3720000  29.8010000  32.8400000  46.4490000
  23.2590000  43.5850000  50.8870000  24.0640000  42.6600000  50.9880000
  25.5320000  42.9130000  51.2020000  23.6290000  41.2220000  50.9080000
  25.8460000  42.4650000  52.1480000  26.1010000  42.4840000  50.3750000
  25.7200000  43.9890000  51.2410000  22.5480000  41.1720000  50.7490000
  23.8730000  40.7130000  51.8430000  24.1310000  40.7340000  50.0690000
  44.7640000  40.1670000  17.4600000  44.7190000  41.0870000  18.2750000
  43.4830000  41.3620000  19.0880000  45.8990000  41.9900000  18.5120000
  43.7130000  41.2590000  20.1510000  43.1220000  42.3700000  18.8760000
  42.7010000  40.6440000  18.8250000  46.7280000  41.6910000  17.8640000
  46.2180000  41.9110000  19.5540000  45.6240000  43.0210000  18.2790000
  40.2540000  47.5740000  49.5020000  41.0450000  46.8910000  48.8530000
  41.9340000  45.8730000  49.5140000  41.1670000  47.0290000  47.3600000
  41.7130000  44.8800000  49.1150000  42.9810000  46.1280000  49.3310000
  41.7540000  45.8690000  50.5920000  40.4750000  47.7970000  47.0030000
  40.9180000  46.0780000  46.8820000  42.1860000  47.3250000  47.1010000
  33.8650000  26.6620000  24.6570000  33.0340000  25.7560000  24.6800000
  33.4450000  24.3090000  24.6750000  31.5570000  26.0400000  24.7170000
  33.0820000  23.8220000  25.5840000  33.0320000  23.8140000  23.7930000
  34.5350000  24.2340000  24.6450000  31.3890000  27.1200000  24.7150000
  31.1250000  25.6170000  25.6280000  31.0770000  25.6070000  23.8370000
  34.3440000  46.9640000  36.4850000  34.0290000  45.7990000  36.7250000
  35.0090000  44.6690000  36.5680000  32.6460000  45.4360000  37.1940000
  35.1540000  44.1730000  37.5320000  34.6310000  43.9570000  35.8310000
  35.9700000  45.0580000  36.2230000  32.0320000  46.3390000  37.2650000
  32.7040000  44.9690000  38.1800000  32.1840000  44.7520000  36.4790000
  32.7880000  36.5660000  19.0430000  33.0010000  37.7750000  18.9680000
  31.8820000  38.7620000  18.7740000  34.3920000  38.3400000  19.0680000
  31.8500000  39.4520000  19.6210000  32.0380000  39.3140000  17.8440000
  30.9280000  38.2320000  18.7140000  35.1110000  37.5270000  19.2050000
  34.4520000  39.0140000  19.9260000  34.6370000  38.8770000  18.1490000
  39.0700000  24.5500000  50.3740000  39.8120000  23.6750000  50.8180000
  39.3230000  22.2710000  51.0540000  41.2530000  23.9540000  51.1470000
  39.8980000  21.5750000  50.4380000  39.4330000  22.0190000  52.1110000
  38.2680000  22.1970000  50.7800000  41.4830000  25.0020000  50.9350000
  41.8980000  23.3190000  50.5350000  41.4310000  23.7610000  52.2080000
  26.4980000  23.2590000  46.9830000  26.0020000  22.8120000  48.0160000
  26.6420000  23.0340000  49.3590000  24.7230000  22.0200000  47.9980000
  25.9550000  23.5850000  50.0060000  26.8920000  22.0700000  49.8090000
  27.5590000  23.6160000  49.2400000  24.3610000  21.9270000  46.9700000
  23.9650000  22.5340000  48.5950000  24.9050000  21.0200000  48.3990000
  39.8920000  40.9690000  50.9640000  39.7940000  40.8210000  49.7470000
  38.7170000  39.9630000  49.1400000  40.7430000  41.4930000  48.7910000
  38.0850000  40.5740000  48.4900000  39.1740000  39.1530000  48.5680000
  38.0980000  39.5330000  49.9310000  41.4750000  42.0810000  49.3510000
  40.1850000  42.1590000  48.1290000  41.2710000  40.7360000  48.2070000
  18.3490000  21.3530000  26.5950000  19.4380000  20.8060000  26.7600000
  20.3880000  21.2480000  27.8390000  19.8830000  19.6590000  25.8950000
  20.5680000  20.4210000  28.5310000  21.3280000  21.5740000  27.3890000
  19.9540000  22.0840000  28.3940000  19.1120000  19.4350000  25.1520000
  20.0450000  18.7730000  26.5140000  20.8050000  19.9280000  25.3750000
  39.9950000  38.2440000  37.7520000  41.0290000  38.8880000  37.9200000
  42.2340000  38.2860000  38.5910000  41.1530000  40.3160000  37.4620000
  43.0800000  38.2920000  37.8990000  42.4770000  38.8580000  39.4890000
  42.0190000  37.2530000  38.8770000  40.2170000  40.6360000  36.9960000
  41.9600000  40.3970000  36.7290000  41.3580000  40.9600000  38.3200000
  20.1400000  26.4560000  24.3030000  19.5590000  27.5340000  24.1930000
  20.3140000  28.8330000  24.1190000  18.0590000  27.6180000  24.1220000
  20.0990000  29.3280000  23.1690000  20.0210000  29.4750000  24.9530000
  21.3880000  28.6410000  24.1820000  17.6290000  26.6150000  24.1880000
  17.7610000  28.0690000  23.1720000  17.6850000  28.2170000  24.9560000
  28.1250000  28.8150000  49.7040000  28.5150000  27.8040000  50.2850000
  29.1210000  26.6480000  49.5380000  28.4110000  27.6640000  51.7800000
  30.1450000  26.4860000  49.8820000  28.5210000  25.7500000  49.7030000
  29.1390000  26.8680000  48.4670000  27.9550000  28.5630000  52.2040000
  29.4090000  27.5390000  52.2060000  27.7860000  26.8020000  52.0250000
  39.4050000  38.8870000  42.5010000  40.2140000  37.9720000  42.6500000
  41.6840000  38.2390000  42.8250000  39.7810000  36.5310000  42.6700000
  42.0140000  37.8550000  43.7930000  42.2420000  37.7580000  42.0180000
  41.8710000  39.3160000  42.7900000  38.6980000  36.4700000  42.5320000
  40.0400000  36.0840000  43.6320000  40.2710000  35.9900000  41.8580000
  45.6940000  39.1030000  33.6630000  45.7020000  38.6060000  34.7890000
  46.9560000  38.0280000  35.3870000  44.4600000  38.5510000  35.6360000
  47.2090000  38.5690000  36.3020000  46.8010000  36.9690000  35.6050000
  47.7820000  38.1250000  34.6780000  43.6230000  38.9980000  35.0920000
  44.6210000  39.1110000  36.5600000  44.2170000  37.5100000  35.8630000
  38.1340000  26.3060000  35.4280000  39.0800000  25.7400000  34.8830000
  39.6060000  26.1900000  33.5470000  39.7710000  24.5660000  35.5220000
  40.6510000  26.4930000  33.6480000  39.5180000  25.3750000  32.8260000
  39.0240000  27.0430000  33.1900000  39.2980000  24.3360000  36.4810000
  40.8220000  24.8090000  35.6950000  39.6880000  23.6930000  34.8700000
  41.0260000  29.2530000  43.1730000  40.4830000  28.2090000  42.8160000
  41.2840000  26.9970000  42.4240000  38.9850000  28.0800000  42.7540000
  41.0400000  26.1660000  43.0900000  41.0590000  26.7290000  41.3890000
  42.3510000  27.2160000  42.5080000  38.5210000  29.0220000  43.0580000
  38.6570000  27.2880000  43.4320000  38.6790000  27.8510000  41.7300000
  18.6820000  37.6150000  27.6550000  19.7140000  38.2010000  27.9770000
  20.9740000  37.4520000  28.3170000  19.7790000  39.7030000  28.0480000
  21.7680000  37.7370000  27.6230000  21.2700000  37.6810000  29.3430000
  20.7990000  36.3770000  28.2310000  18.8070000  40.1270000  27.7830000
  20.5300000  40.0700000  27.3440000  20.0330000  40.0110000  29.0650000
  26.3740000  41.6400000  46.7060000  26.4060000  41.0840000  45.6090000
  27.5170000  40.1410000  45.2350000  25.3350000  41.3110000  44.5780000
  27.1030000  39.1510000  45.0290000  28.0390000  40.5220000  44.3540000
  28.2290000  40.0620000  46.0600000  24.5910000  42.0130000  44.9660000
  24.8410000  40.3640000  44.3480000  25.7790000  41.7330000  43.6740000
  38.9920000  49.3210000  46.4390000  38.1430000  50.1510000  46.1170000
  36.7700000  50.1550000  46.7330000  38.4270000  51.2130000  45.0900000
  36.6030000  51.1030000  47.2490000  36.0180000  50.0120000  45.9530000
  36.6870000  49.3400000  47.4570000  39.4500000  51.1030000  44.7190000
  38.3210000  52.2000000  45.5460000  37.7340000  51.1080000  44.2520000
  45.1540000  46.3080000  38.1790000  44.6770000  47.2790000  37.5930000
  45.5500000  48.2860000  36.8940000  43.1920000  47.5160000  37.5360000
  45.3030000  48.3080000  35.8290000  45.3970000  49.2720000  37.3370000
  46.6000000  48.0060000  37.0080000  42.6710000  46.7220000  38.0790000
  42.8590000  47.5100000  36.4960000  42.9560000  48.4750000  38.0020000
  47.2580000  23.0940000  42.6300000  46.1150000  22.7730000  42.3080000
  45.2430000  21.9480000  43.2150000  45.5190000  23.1880000  40.9910000
  44.3440000  22.5130000  43.4720000  44.9710000  21.0160000  42.7130000
  45.7850000  21.7090000  44.1330000  46.2480000  23.7780000  40.4260000
  44.6310000  23.7990000  41.1670000  45.2580000  22.3010000  40.4100000
  33.8380000  45.8770000  45.3920000  32.6260000  45.7840000  45.2050000
  31.7700000  44.8590000  46.0270000  31.9270000  46.5920000  44.1460000
  31.0130000  45.4390000  46.5620000  31.2910000  44.1270000  45.3740000
  32.3900000  44.3310000  46.7550000  32.6530000  47.2180000  43.6200000
  31.1760000  47.2350000  44.6120000  31.4540000  45.9200000  43.4260000
  34.7390000  41.0520000  25.4600000  35.0010000  40.5210000  26.5370000
  35.3080000  41.3350000  27.7650000  35.0290000  39.0240000  26.6930000
  34.5730000  41.1140000  28.5430000  36.3140000  41.0990000  28.1190000
  35.2580000  42.3990000  27.5240000  34.7930000  38.5500000  25.7360000
  34.2840000  38.7190000  27.4320000  36.0250000  38.7070000  27.0090000
  42.9540000  46.8540000  28.8190000  42.7690000  47.8450000  28.1150000
  43.5910000  48.1010000  26.8810000  41.7090000  48.8610000  28.4440000
  42.9380000  48.1270000  26.0050000  44.1210000  49.0500000  26.9840000
  44.3230000  47.2990000  26.7520000  41.1860000  48.5650000  29.3580000
  40.9870000  48.9150000  27.6260000  42.1730000  49.8370000  28.6030000
  24.7480000  40.3470000  47.4300000  24.3400000  39.2310000  47.7500000
  24.8340000  38.5360000  48.9900000  23.3210000  38.4970000  46.9230000
  23.9950000  38.3530000  49.6660000  25.3100000  37.5920000  48.7150000
  25.5670000  39.1660000  49.4990000  23.0450000  39.1020000  46.0540000
  22.4260000  38.3120000  47.5230000  23.7430000  37.5510000  46.5750000
  24.5100000  21.1970000  34.4290000  25.4970000  20.6320000  33.9600000
  26.4000000  19.7840000  34.8130000  25.8580000  20.7530000  32.5040000
  26.4060000  18.7590000  34.4340000  27.4110000  20.1970000  34.7990000
  26.0350000  19.7770000  35.8440000  25.1310000  21.3920000  31.9960000
  25.8440000  19.7630000  32.0400000  26.8500000  21.2000000  32.4080000
  41.4920000  20.3180000  46.0230000  41.3210000  21.4150000  46.5520000
  41.2060000  22.6750000  45.7380000  41.2120000  21.5620000  48.0460000
  40.2290000  23.1340000  45.9100000  42.0030000  23.3660000  46.0190000
  41.3020000  22.4380000  44.6750000  41.3130000  20.5820000  48.5210000
  40.2360000  21.9810000  48.3030000  42.0100000  22.2140000  48.4090000
  45.5110000  29.4440000  45.2040000  44.9750000  30.5510000  45.2140000
  43.5440000  30.7380000  44.7890000  45.7170000  31.7830000  45.6540000
  42.9630000  31.1390000  45.6230000  43.5010000  31.4220000  43.9370000
  43.1180000  29.7770000  44.4920000  46.7400000  31.5170000  45.9340000
  45.2160000  32.2230000  46.5200000  45.7520000  32.5040000  44.8330000
  25.9790000  40.1220000  28.1010000  25.4590000  40.5390000  29.1340000
  23.9970000  40.3290000  29.4220000  26.2540000  41.2800000  30.1750000
  23.8840000  39.7450000  30.3380000  23.5030000  41.2980000  29.5290000
  23.5320000  39.7850000  28.5960000  27.2940000  41.3680000  29.8500000
  26.2240000  40.7300000  31.1190000  25.8400000  42.2820000  30.3080000
  47.3060000  28.9950000  20.4230000  46.5340000  29.2390000  19.4970000
  45.0620000  29.4430000  19.7300000  47.0170000  29.3510000  18.0760000
  44.7760000  30.4480000  19.4100000  44.4960000  28.6940000  19.1730000
  44.8380000  29.3350000  20.7950000  48.0960000  29.1810000  18.0390000
  46.8020000  30.3520000  17.6950000  46.5200000  28.5990000  17.4600000
  36.0100000  42.1750000  48.4450000  34.8850000  41.6780000  48.4490000
  34.6750000  40.2020000  48.6490000  33.6520000  42.5170000  48.2560000
  34.0730000  40.0360000  49.5460000  34.1730000  39.7820000  47.7750000
  35.6400000  39.7050000  48.7740000  33.9350000  43.5640000  48.1200000
  33.0120000  42.4360000  49.1390000  33.1130000  42.1790000  47.3680000
  42.6240000  20.8660000  36.3300000  41.7690000  20.0480000  35.9930000
  40.6880000  20.3970000  35.0070000  41.7540000  18.6490000  36.5470000
  40.7630000  19.7440000  34.1340000  39.7100000  20.2840000  35.4800000
  40.8050000  21.4350000  34.6820000  42.5820000  18.5210000  37.2490000
  41.8680000  17.9310000  35.7310000  40.8140000  18.4730000  37.0740000
  33.7560000  20.8930000  30.3100000  33.8210000  21.2840000  29.1460000
  32.7120000  22.0860000  28.5200000  35.0140000  20.9880000  28.2790000
  33.0940000  23.0630000  28.2150000  32.3150000  21.5490000  27.6550000
  31.9070000  22.2320000  29.2450000  35.7440000  20.4020000  28.8430000
  35.4810000  21.9250000  27.9640000  34.6990000  20.4120000  27.4050000
  23.4080000  33.6320000  40.4590000  24.5250000  33.9220000  40.0340000
  25.1150000  35.2920000  40.2350000  25.3710000  32.9240000  39.2900000
  26.0380000  35.2120000  40.8140000  25.3160000  35.7500000  39.2640000
  24.4080000  35.9210000  40.7830000  24.8340000  31.9750000  39.2080000
  26.3040000  32.7570000  39.8340000  25.5810000  33.2980000  38.2860000
  51.5740000  21.9250000  19.0440000  50.4220000  21.6030000  19.3310000
  49.2830000  22.5820000  19.2400000  50.0820000  20.2100000  19.7860000
  48.5430000  22.2190000  18.5230000  48.8250000  22.7030000  20.2250000
  49.6560000  23.5530000  18.9030000  50.9890000  19.5990000  19.8110000
  49.3720000  19.7590000  19.0880000  49.6530000  20.2460000  20.7890000
  45.3350000  40.2500000  22.0000000  45.6070000  39.1130000  21.6170000
  45.9230000  38.8200000  20.1760000  45.6450000  37.9490000  22.5690000
  46.9360000  38.4190000  20.0970000  45.2000000  38.1010000  19.7820000
  45.8600000  39.7400000  19.5890000  45.3980000  38.2890000  23.5780000
  46.6480000  37.5150000  22.5780000  44.9130000  37.1990000  22.2600000
  45.1380000  28.4690000  51.5850000  44.7630000  27.3090000  51.4230000
  43.3240000  26.9780000  51.1370000  45.7220000  26.1520000  51.4970000
  43.2480000  26.4800000  50.1670000  42.9340000  26.3290000  51.9250000
  42.7320000  27.8960000  51.1100000  46.7290000  26.5210000  51.7110000
  45.7340000  25.6240000  50.5400000  45.4170000  25.4740000  52.2980000
  48.6340000  45.4200000  47.7920000  48.7850000  45.1380000  46.6040000
  48.7850000  46.1970000  45.5360000  48.9820000  43.7180000  46.1490000
  49.7460000  46.1940000  45.0160000  47.9740000  46.0050000  44.8300000
  48.6320000  47.1800000  45.9900000  48.9600000  43.0470000  47.0130000
  49.9510000  43.6230000  45.6520000  48.1780000  43.4370000  45.4650000
  40.9480000  23.1900000  31.6470000  39.9340000  22.4940000  31.6250000
  39.9900000  21.0110000  31.8740000  38.5780000  23.0840000  31.3530000
  39.3890000  20.7640000  32.7520000  39.6140000  20.4790000  30.9980000
  41.0240000  20.7060000  32.0560000  38.6700000  24.1610000  31.1870000
  37.9240000  22.9130000  32.2120000  38.1510000  22.6250000  30.4580000
  23.6320000  31.2580000  27.7920000  22.9590000  30.8370000  26.8530000
  21.6450000  30.1380000  27.0750000  23.4070000  30.9990000  25.4260000
  20.8450000  30.6980000  26.5860000  21.6970000  29.1240000  26.6720000
  21.4330000  30.0810000  28.1460000  24.3690000  31.5170000  25.3980000
  22.6710000  31.5910000  24.8760000  23.5210000  30.0160000  24.9640000
  41.1950000  41.8700000  34.8010000  41.3930000  42.5260000  35.8220000
  42.7770000  42.7210000  36.3790000  40.2630000  43.1770000  36.5720000
  43.0190000  43.7870000  36.3940000  42.8250000  42.3090000  37.3890000
  43.5040000  42.2020000  35.7500000  39.3150000  42.9620000  36.0720000
  40.4130000  44.2590000  36.5940000  40.2230000  42.7820000  37.5900000
  17.8060000  38.7200000  37.2930000  18.6630000  39.4930000  37.7170000
  20.0140000  39.6080000  37.0670000  18.4090000  40.3740000  38.9100000
  20.1620000  40.6280000  36.7050000  20.7910000  39.3470000  37.7890000
  20.0750000  38.9210000  36.2190000  17.4000000  40.1980000  39.2920000
  18.4980000  41.4230000  38.6170000  19.1290000  40.1410000  39.6980000
  42.7640000  26.6300000  38.1900000  42.2330000  26.9560000  37.1290000
  42.9700000  26.8740000  35.8200000  40.8130000  27.4510000  37.0770000
  42.4500000  26.1840000  35.1500000  43.0260000  27.8670000  35.3690000
  43.9840000  26.5040000  35.9890000  40.3910000  27.4670000  38.0860000
  40.2150000  26.7830000  36.4530000  40.7930000  28.4650000  36.6710000
  34.7600000  36.8460000  23.9760000  35.6000000  36.3980000  24.7540000
  37.0090000  36.9250000  24.7840000  35.2680000  35.2980000  25.7260000
  37.2230000  37.3400000  25.7720000  37.7070000  36.1160000  24.5550000
  37.1240000  37.7130000  24.0360000  34.2220000  35.0020000  25.6050000
  35.4190000  35.6540000  26.7480000  35.9040000  34.4320000  25.5310000
  48.6710000  27.7010000  30.4580000  49.2210000  28.7690000  30.1940000
  50.3340000  28.8550000  29.1850000  48.8120000  30.0530000  30.8620000
  50.0390000  29.5200000  28.3700000  51.2390000  29.2300000  29.6690000
  50.5390000  27.8630000  28.7750000  48.0020000  29.8590000  31.5700000
  48.4610000  30.7620000  30.1080000  49.6620000  30.4710000  31.4060000
  34.1280000  39.0560000  45.5820000  34.8550000  38.3100000  46.2360000
  36.3310000  38.2100000  45.9640000  34.3130000  37.4560000  47.3490000
  36.8890000  38.5120000  46.8540000  36.5840000  37.1840000  45.6900000
  36.6000000  38.8730000  45.1370000  33.2350000  37.6160000  47.4460000
  34.7960000  37.7300000  48.2900000  34.4940000  36.4020000  47.1250000
  47.2950000  42.5920000  40.5830000  47.1360000  43.3510000  41.5380000
  47.7200000  43.0490000  42.8910000  46.3490000  44.6260000  41.4100000
  48.4140000  43.8430000  43.1760000  46.9170000  42.9690000  43.6270000
  48.2630000  42.1010000  42.8560000  45.9780000  44.7300000  40.3860000
  46.9930000  45.4790000  41.6400000  45.4970000  44.6030000  42.0930000
  19.0930000  40.1850000  22.1290000  19.5960000  39.0620000  22.1340000
  18.8050000  37.8420000  21.7480000  21.0330000  38.8420000  22.5230000
  19.2670000  37.3650000  20.8800000  18.7740000  37.1450000  22.5890000
  17.7830000  38.1300000  21.4910000  21.4950000  39.7990000  22.7820000
  21.5760000  38.4030000  21.6830000  21.0810000  38.1810000  23.3910000
  46.7060000  42.2050000  46.5630000  46.0900000  41.5800000  45.7010000
  46.7310000  40.4590000  44.9290000  44.6570000  41.8970000  45.3690000
  46.1840000  39.5300000  45.1090000  46.7280000  40.6990000  43.8640000
  47.7660000  40.3290000  45.2580000  44.3080000  42.7250000  45.9920000
  44.0330000  41.0210000  45.5650000  44.5790000  42.1880000  44.3190000
  17.4000000  48.7420000  42.6150000  18.3000000  47.9310000  42.4000000
  19.4450000  47.7500000  43.3590000  18.3070000  47.0700000  41.1660000
  19.4540000  46.7220000  43.7280000  20.3850000  47.9780000  42.8530000
  19.3260000  48.4290000  44.2070000  17.4300000  47.2960000  40.5530000
  18.2750000  46.0160000  41.4550000  19.2080000  47.2740000  40.5820000
  31.1900000  41.9470000  22.5120000  32.3680000  41.6050000  22.6020000
  33.4570000  42.5970000  22.9080000  32.7900000  40.1730000  22.4140000
  33.9530000  42.3200000  23.8410000  34.1790000  42.6130000  22.0880000
  33.0270000  43.5950000  23.0190000  31.9140000  39.5560000  22.1960000
  33.2610000  39.8070000  23.3290000  33.4880000  40.1030000  21.5760000
  33.8070000  37.7960000  21.9640000  34.4980000  36.7930000  21.7920000
  35.9980000  36.8730000  21.7110000  33.8840000  35.4260000  21.6550000
  36.4400000  36.2790000  22.5150000  36.3320000  36.5010000  20.7400000
  36.3190000  37.9110000  21.8220000  32.7950000  35.5020000  21.7290000
  34.2490000  34.7790000  22.4570000  34.1430000  35.0040000  20.6820000
  17.4000000  39.6390000  23.4240000  17.8230000  40.5920000  24.0770000
  18.0300000  41.9460000  23.4540000  18.1570000  40.4610000  25.5380000
  17.3990000  42.6810000  23.9590000  19.0810000  42.2300000  23.5380000
  17.7570000  41.9120000  22.3970000  17.9670000  39.4360000  25.8690000
  17.5300000  41.1420000  26.1190000  19.2120000  40.6930000  25.6960000
  30.0160000  39.4680000  20.9320000  29.2080000  39.7980000  20.0650000
  27.9350000  39.0280000  19.8400000  29.4430000  40.9920000  19.1810000
  27.0770000  39.6830000  20.0090000  27.9180000  38.6400000  18.8190000
  27.8820000  38.1890000  20.5380000  30.3960000  41.4610000  19.4400000
  28.6400000  41.7190000  19.3260000  29.4800000  40.6730000  18.1370000
  37.3340000  23.6900000  35.7300000  36.4390000  23.7300000  36.5730000
  36.0910000  22.5310000  37.4120000  35.6400000  24.9810000  36.8160000
  36.2430000  22.7670000  38.4680000  35.0500000  22.2490000  37.2350000
  36.7350000  21.6910000  37.1410000  35.9840000  25.7750000  36.1470000
  35.7760000  25.3070000  37.8500000  34.5840000  24.7870000  36.6180000
  48.0490000  48.5040000  22.7580000  48.3510000  49.4290000  23.5100000
  48.2900000  49.2820000  25.0060000  48.8020000  50.7630000  22.9780000
  49.2860000  49.4370000  25.4300000  47.5880000  50.0100000  25.4170000
  47.9490000  48.2770000  25.2640000  48.8020000  50.7430000  21.8850000
  49.8160000  50.9720000  23.3280000  48.1180000  51.5430000  23.3180000
  29.3190000  40.5510000  29.5900000  29.9120000  39.5020000  29.8360000
  29.2000000  38.1770000  29.8470000  31.3860000  39.4810000  30.1360000
  29.6370000  37.5200000  29.0900000  29.2870000  37.7230000  30.8360000
  28.1410000  38.3240000  29.6170000  31.7850000  40.4980000  30.1000000
  31.9030000  38.8720000  29.3910000  31.5510000  39.0730000  31.1360000
  30.3630000  25.4210000  28.0410000  29.8630000  26.5360000  28.1730000
  30.5460000  27.7740000  27.6570000  28.5360000  26.7300000  28.8540000
  29.9100000  28.2600000  26.9130000  30.7440000  28.4550000  28.4870000
  31.4950000  27.5030000  27.1880000  28.1450000  25.7630000  29.1840000
  27.8260000  27.1780000  28.1540000  28.6620000  27.3750000  29.7270000
  47.6960000  39.2340000  38.3410000  48.6750000  39.9770000  38.3950000
  50.0770000  39.4330000  38.4420000  48.5290000  41.4740000  38.4150000
  50.6360000  39.7870000  37.5720000  50.5660000  39.7590000  39.3620000
  50.0500000  38.3410000  38.4240000  47.4690000  41.7420000  38.3800000
  49.0310000  41.9030000  37.5440000  48.9630000  41.8730000  39.3350000
  19.7950000  27.4540000  18.4570000  19.6660000  28.6770000  18.4830000
  18.3270000  29.3240000  18.7100000  20.8400000  29.5980000  18.2930000
  18.3630000  29.9320000  19.6170000  18.0700000  29.9450000  17.8490000
  17.5600000  28.5540000  18.8310000  21.7490000  29.0110000  18.1360000
  20.9680000  30.2170000  19.1850000  20.6730000  30.2300000  17.4180000
  36.3610000  26.7000000  50.0850000  36.0760000  25.5360000  50.3620000
  35.2190000  24.6960000  49.4540000  36.5690000  24.8810000  51.6240000
  35.7850000  23.8220000  49.1220000  34.3190000  24.3810000  49.9880000
  34.9250000  25.2800000  48.5790000  37.1740000  25.5910000  52.1950000
  37.1840000  24.0150000  51.3710000  35.7170000  24.5730000  52.2350000
  45.4070000  24.0920000  31.2650000  45.0190000  22.9290000  31.1710000
  45.9680000  21.7680000  31.2970000  43.5720000  22.5970000  30.9290000
  45.6720000  21.1430000  32.1430000  45.9550000  21.1830000  30.3740000
  46.9820000  22.1360000  31.4680000  42.9890000  23.5200000  30.8550000
  43.1880000  22.0030000  31.7620000  43.4740000  22.0420000  29.9930000
  24.2370000  50.3810000  18.8440000  23.0080000  50.4260000  18.8590000
  22.1720000  49.3910000  18.1570000  22.2670000  51.5170000  19.5830000
  21.5410000  48.8740000  18.8840000  21.5530000  49.8740000  17.3970000
  22.8220000  48.6600000  17.6700000  22.9810000  52.2030000  20.0480000
  21.6400000  51.0780000  20.3630000  21.6520000  52.0760000  18.8750000
  36.0180000  28.6330000  30.9650000  35.5650000  29.1740000  29.9580000
  35.5180000  28.4630000  28.6330000  35.0280000  30.5790000  29.9910000
  34.4810000  28.3810000  28.2980000  36.1080000  29.0160000  27.8990000
  35.9350000  27.4580000  28.7380000  35.1190000  30.9850000  31.0020000
  33.9730000  30.5750000  29.7060000  35.6010000  31.2070000  29.3060000
  33.6730000  26.5710000  42.3250000  34.5600000  27.0970000  41.6540000
  34.3650000  27.4120000  40.1960000  35.8920000  27.4590000  42.2530000
  34.4670000  28.4880000  40.0370000  35.1060000  26.8710000  39.6030000
  33.3660000  27.1020000  39.8810000  35.9090000  27.1800000  43.3100000
  36.0500000  28.5370000  42.1690000  36.6870000  26.9200000  41.7330000
  51.4520000  25.9710000  49.6660000  50.2710000  26.0290000  49.3260000
  49.8700000  26.4590000  47.9410000  49.1580000  25.6720000  50.2730000
  49.3250000  25.6490000  47.4490000  49.2440000  27.3520000  48.0010000
  50.7610000  26.6920000  47.3530000  49.5760000  25.3810000  51.2400000
  48.5870000  24.8330000  49.8670000  48.5070000  26.5370000  50.4160000
  32.2020000  29.9190000  37.7750000  32.1160000  31.1420000  37.8670000
  30.7840000  31.8330000  37.9850000  33.3370000  32.0210000  37.8700000
  30.7390000  32.3830000  38.9280000  30.6510000  32.5160000  37.1430000
  29.9810000  31.0920000  37.9680000  34.2350000  31.4050000  37.7770000
  33.3850000  32.5780000  38.8090000  33.2940000  32.7120000  37.0240000
  36.1860000  49.3110000  50.1280000  35.4250000  50.2100000  50.4840000
  34.1510000  49.9150000  51.2280000  35.7250000  51.6560000  50.2020000
  34.1780000  50.3990000  52.2080000  33.2980000  50.2810000  50.6510000
  34.0460000  48.8370000  51.3690000  36.6710000  51.7380000  49.6580000
  35.8110000  52.2040000  51.1440000  34.9280000  52.0830000  49.5880000
  39.8360000  44.0420000  32.2220000  39.9090000  45.2040000  31.8250000
  41.2350000  45.8890000  31.6290000  38.6780000  46.0090000  31.5090000
  41.3450000  46.1810000  30.5820000  41.2910000  46.7690000  32.2740000
  42.0460000  45.2060000  31.8930000  37.7850000  45.4050000  31.6930000
  38.6940000  46.3050000  30.4570000  38.6430000  46.8930000  32.1490000
  30.3210000  29.1110000  50.1600000  29.7810000  30.2150000  50.1170000
  29.7580000  31.1300000  51.3110000  29.1140000  30.7180000  48.8650000
  30.2730000  32.0630000  51.0670000  28.7240000  31.3330000  51.5960000
  30.2700000  30.6540000  52.1510000  29.1960000  29.9660000  48.0760000
  29.6050000  31.6350000  48.5320000  28.0560000  30.9070000  49.0640000
  24.5420000  37.9940000  39.8860000  23.3140000  37.9930000  39.9440000
  22.5000000  36.8500000  39.4010000  22.5520000  39.1330000  40.5630000
  21.9170000  36.4000000  40.2080000  21.8350000  37.2150000  38.6140000
  23.1630000  36.0920000  38.9780000  23.2510000  39.8960000  40.9150000
  21.9710000  38.7660000  41.4130000  21.8890000  39.5790000  39.8180000
  36.1460000  31.9990000  47.0940000  37.2660000  31.5430000  46.8720000
  37.7550000  30.2890000  47.5450000  38.2130000  32.2080000  45.9100000
  37.9770000  29.5310000  46.7910000  38.6510000  30.5130000  48.1290000
  36.9830000  29.9050000  48.2160000  37.7450000  33.1030000  45.4910000
  38.4520000  31.5200000  45.0960000  39.1250000  32.5000000  46.4360000
  33.1600000  42.1420000  36.6280000  32.2250000  41.6600000  37.2650000
  31.3540000  40.5760000  36.6890000  31.8980000  42.1220000  38.6590000
  31.4240000  39.6800000  37.3120000  30.3190000  40.9230000  36.6440000
  31.6890000  40.3310000  35.6780000  32.5960000  42.9070000  38.9610000
  31.9880000  41.2830000  39.3540000  30.8830000  42.5240000  38.6840000
  40.0240000  38.8060000  39.8870000  38.9950000  38.1450000  40.0200000
  38.8880000  36.7390000  39.4970000  37.7830000  38.7030000  40.7150000
  38.6930000  36.0540000  40.3260000  38.0810000  36.6810000  38.7630000
  39.8260000  36.4510000  39.0150000  37.9850000  39.7260000  41.0440000
  37.5480000  38.0900000  41.5890000  36.9370000  38.7150000  40.0240000
  41.9000000  27.0080000  48.0890000  41.7540000  28.1030000  47.5480000
  40.9060000  28.2670000  46.3160000  42.4140000  29.3430000  48.0860000
  40.0860000  28.9590000  46.5260000  41.5200000  28.6470000  45.4970000
  40.4870000  27.3010000  46.0250000  43.0000000  29.0930000  48.9750000
  41.6500000  30.0750000  48.3600000  43.0810000  29.7620000  47.3290000
  42.1480000  24.0650000  27.0680000  43.1010000  23.7070000  26.3780000
  44.4740000  24.2960000  26.5630000  42.9540000  22.6570000  25.3110000
  45.1770000  23.5060000  26.8400000  44.7930000  24.7780000  25.6370000
  44.4510000  25.0430000  27.3610000  41.9170000  22.3120000  25.2740000
  43.6010000  21.8070000  25.5420000  43.2190000  23.0810000  24.3400000
  34.7320000  49.2270000  31.2990000  35.0530000  50.4140000  31.2470000
  34.1560000  51.4460000  30.6210000  36.3600000  50.9030000  31.8090000
  33.8830000  52.1960000  31.3680000  34.6720000  51.9200000  29.7830000
  33.2450000  50.9690000  30.2510000  36.9180000  50.0630000  32.2310000
  36.1680000  51.6330000  32.5990000  36.9540000  51.3570000  31.0130000
  30.5610000  40.6330000  49.8870000  30.2380000  40.8590000  48.7220000
  30.9060000  40.1630000  47.5680000  29.1520000  41.8440000  48.3820000
  30.1640000  39.5880000  47.0070000  31.3790000  40.9020000  46.9180000
  31.6720000  39.4790000  47.9420000  28.7490000  42.2810000  49.3000000
  28.3460000  41.3310000  47.8510000  29.5630000  42.6430000  47.7610000
  40.2390000  44.7010000  23.0570000  40.7910000  43.8950000  22.3100000
  42.2900000  43.8060000  22.2150000  40.0010000  42.9480000  21.4490000
  42.6170000  42.8070000  22.5140000  42.6050000  44.0150000  21.1900000
  42.7470000  44.5420000  22.8820000  38.9310000  43.1120000  21.6060000
  40.2440000  41.9170000  21.7200000  40.2340000  43.1260000  20.3970000
  25.7210000  52.0690000  41.2190000  25.1320000  51.3980000  40.3730000
  25.4850000  51.4850000  38.9130000  24.0270000  50.4490000  40.7460000
  25.8170000  50.5060000  38.5570000  24.6140000  51.8180000  38.3440000
  26.2950000  52.2050000  38.7700000  23.8650000  50.4780000  41.8270000
  24.3050000  49.4320000  40.4580000  23.1040000  50.7440000  40.2430000
  41.3470000  42.1020000  40.2080000  40.4150000  42.9000000  40.2970000
  40.6230000  44.3040000  40.7970000  39.0120000  42.5200000  39.9100000
  40.3390000  45.0160000  40.0180000  40.0220000  44.4660000  41.6940000
  41.6770000  44.4550000  41.0460000  38.9920000  41.4820000  39.5680000
  38.6680000  43.1670000  39.0990000  38.3530000  42.6190000  40.7750000
  45.9250000  51.4200000  23.9990000  44.9810000  50.6310000  24.0000000
  45.1970000  49.1420000  24.0040000  43.5540000  51.1080000  24.0000000
  44.7500000  48.7100000  24.9030000  44.7450000  48.7040000  23.1110000
  46.2680000  48.9240000  24.0020000  43.5310000  52.2020000  23.9940000
  43.0470000  50.7480000  24.8980000  43.0440000  50.7400000  23.1060000
  33.7010000  22.2020000  51.5910000  34.3070000  21.5820000  50.7190000
  33.5990000  21.0020000  49.5250000  35.7950000  21.3680000  50.7930000
  33.9970000  21.4480000  48.6110000  33.7370000  19.9190000  49.5070000
  32.5300000  21.2210000  49.5880000  36.1900000  21.8320000  51.7010000
  36.2740000  21.8280000  49.9250000  36.0110000  20.2980000  50.8200000
  21.3730000  31.2280000  21.1390000  21.7580000  32.3310000  20.7530000
  22.6390000  32.4780000  19.5420000  21.3690000  33.5970000  21.4660000
  22.1290000  33.0850000  18.7900000  23.5810000  32.9490000  19.8310000
  22.8510000  31.4940000  19.1180000  20.7340000  33.3570000  22.3240000
  20.8120000  34.2450000  20.7840000  22.2660000  34.1080000  21.8230000
  22.3300000  47.8670000  41.8300000  22.1450000  46.9060000  41.0840000
  21.4180000  45.6740000  41.5510000  22.6310000  46.9070000  39.6610000
  20.5230000  45.5250000  40.9420000  22.0780000  44.8080000  41.4700000
  21.1200000  45.7950000  42.5950000  23.1410000  47.8500000  39.4460000
  21.7810000  46.8030000  38.9830000  23.3340000  46.0850000  39.5130000
  38.1960000  44.0040000  23.4830000  37.3060000  43.3490000  24.0230000
  37.1400000  41.8770000  23.7620000  36.3330000  43.9810000  24.9820000
  37.2580000  41.3230000  24.6960000  36.1510000  41.6910000  23.3350000
  37.9000000  41.5400000  23.0520000  36.5570000  45.0460000  25.0850000
  36.4220000  43.5040000  25.9610000  35.3160000  43.8690000  24.5990000
  30.3560000  46.3690000  18.2140000  31.2470000  45.7810000  18.8250000
  32.6690000  45.7720000  18.3320000  30.9700000  45.0390000  20.1040000
  33.3190000  46.2350000  19.0780000  32.9840000  44.7430000  18.1440000
  32.7400000  46.3390000  17.4000000  29.9090000  45.1190000  20.3540000
  31.5580000  45.4760000  20.9160000  31.2250000  43.9850000  19.9790000
  44.1840000  52.2010000  20.1080000  43.7980000  51.0340000  20.1460000
  44.7620000  49.8810000  20.0780000  42.3380000  50.6890000  20.2660000
  44.6840000  49.2830000  20.9900000  44.5370000  49.2670000  19.2040000
  45.7840000  50.2590000  19.9910000  41.7450000  51.6070000  20.3040000
  42.1710000  50.1210000  21.1850000  42.0270000  50.1030000  19.3990000
  21.0810000  48.6960000  21.8130000  21.9840000  49.3280000  22.3590000
  21.8430000  49.8540000  23.7610000  23.2850000  49.6090000  21.6580000
  22.6130000  49.4110000  24.3980000  21.9390000  50.9430000  23.7550000
  20.8600000  49.5890000  24.1580000  23.2630000  49.1790000  20.6530000
  24.1080000  49.1570000  22.2180000  23.4330000  50.6880000  21.5770000
  48.1520000  24.7100000  24.6000000  48.0490000  25.6250000  23.7850000
  46.9990000  26.6930000  23.9260000  48.9680000  25.7320000  22.5980000
  47.4810000  27.6690000  24.0250000  46.3450000  26.6820000  23.0520000
  46.3980000  26.5050000  24.8190000  49.6790000  24.9010000  22.6070000
  49.5220000  26.6730000  22.6480000  48.3840000  25.6870000  21.6760000
  35.2240000  25.1280000  40.9420000  35.2390000  23.9510000  41.2970000
  34.2280000  22.9600000  40.7860000  36.2700000  23.4300000  42.2600000
  34.7410000  22.1570000  40.2500000  33.6600000  22.5510000  41.6240000
  33.5370000  23.4570000  40.1000000  36.9400000  24.2410000  42.5580000
  36.8570000  22.6440000  41.7790000  35.7740000  23.0380000  43.1510000
  34.2010000  33.9040000  48.1590000  33.1580000  34.0470000  48.7970000
  32.7360000  35.3900000  49.3280000  32.2420000  32.8880000  49.0810000
  31.7750000  35.6710000  48.8910000  32.6560000  35.3440000  50.4160000
  33.4800000  36.1440000  49.0600000  32.6580000  31.9740000  48.6470000
  31.2630000  33.0770000  48.6340000  32.1450000  32.7530000  50.1600000
  46.8950000  23.7300000  21.4340000  45.9940000  23.5680000  22.2550000
  45.9420000  22.3520000  23.1400000  44.8910000  24.5770000  22.4260000
  45.9950000  22.6590000  24.1880000  45.0170000  21.8030000  22.9540000
  46.7910000  21.6990000  22.9200000  45.0390000  25.4070000  21.7300000
  44.9050000  24.9650000  23.4470000  43.9280000  24.1060000  22.2150000
  47.8560000  45.7860000  21.8610000  47.8230000  45.8300000  20.6320000
  47.1930000  44.7320000  19.8190000  48.4090000  46.9870000  19.8680000
  46.3640000  45.1380000  19.2350000  47.9410000  44.2920000  19.1560000
  46.8090000  43.9540000  20.4840000  48.8350000  47.7120000  20.5660000
  47.6240000  47.4760000  19.2860000  49.2000000  46.6270000  19.2060000
  17.5950000  44.2620000  32.8970000  18.6390000  43.6400000  33.0910000
  18.6790000  42.1370000  33.0640000  19.9390000  44.3470000  33.3630000
  19.3570000  41.8020000  32.2750000  19.0140000  41.7620000  34.0330000
  17.6790000  41.7440000  32.8600000  19.7790000  45.4280000  33.3590000
  20.6640000  44.0930000  32.5860000  20.3190000  44.0500000  34.3440000
  41.5480000  35.4260000  48.1970000  42.2590000  34.4230000  48.1900000
  41.6760000  33.0410000  48.3040000  43.7560000  34.5180000  48.0640000
  41.9250000  32.4630000  47.4100000  42.0730000  32.5480000  49.1940000
  40.5880000  33.1050000  48.3920000  44.0540000  35.5670000  47.9910000
  44.0810000  33.9940000  47.1610000  44.2270000  34.0770000  48.9450000
  34.3740000  24.9360000  22.4260000  34.1630000  23.8420000  21.9050000
  34.8620000  22.5960000  22.3770000  33.1910000  23.6830000  20.7670000
  34.1230000  21.8730000  22.7300000  35.4440000  22.1700000  21.5560000
  35.5390000  22.8410000  23.1990000  32.7540000  24.6540000  20.5180000
  32.3910000  23.0000000  21.0620000  33.7140000  23.2960000  19.8900000
  45.0090000  31.2600000  42.3440000  45.1290000  32.4840000  42.3160000
  46.4810000  33.1440000  42.2970000  43.9310000  33.3940000  42.2960000
  46.5870000  33.7360000  41.3840000  46.5890000  33.7840000  43.1760000
  47.2650000  32.3820000  42.3160000  43.0150000  32.7980000  42.3160000
  43.9430000  33.9950000  41.3840000  43.9490000  34.0430000  43.1750000
  45.0880000  37.7490000  30.1000000  45.6370000  38.8230000  29.8580000
  46.4280000  39.0390000  28.5970000  45.5470000  39.9860000  30.8090000
  45.9790000  39.8480000  28.0170000  47.4610000  39.2850000  28.8510000
  46.4200000  38.1260000  27.9950000  44.9510000  39.7040000  31.6810000
  45.0650000  40.8300000  30.3100000  46.5490000  40.2660000  31.1410000
  39.9750000  20.5660000  26.7690000  39.4950000  19.4400000  26.8830000
  38.0380000  19.2310000  27.1950000  40.3350000  18.2030000  26.7160000
  37.5660000  18.6720000  26.3820000  37.9390000  18.6840000  28.1350000
  37.5390000  20.1980000  27.2940000  41.3680000  18.4860000  26.4960000
  39.9480000  17.6060000  25.8860000  40.3180000  17.6200000  27.6390000
  21.6340000  45.2320000  30.9340000  22.8030000  45.6120000  30.9750000
  23.1550000  47.0670000  31.1200000  23.9510000  44.6430000  30.8860000
  23.7270000  47.2160000  32.0390000  23.7400000  47.3910000  30.2560000
  22.2420000  47.6650000  31.1720000  23.5670000  43.6250000  30.7810000
  24.5520000  44.7030000  31.7960000  24.5640000  44.8800000  30.0130000
  49.2740000  48.2630000  32.0440000  50.1020000  47.9990000  32.9140000
  49.7400000  48.0020000  34.3740000  51.5250000  47.6540000  32.5690000
  49.9030000  47.0060000  34.7940000  50.3520000  48.7370000  34.9010000
  48.6870000  48.2670000  34.4940000  51.6610000  47.6890000  31.4850000
  51.7540000  46.6460000  32.9230000  52.2000000  48.3780000  33.0330000
  32.6130000  35.1540000  27.7870000  32.6130000  33.9240000  27.7710000
  31.3310000  33.1350000  27.7690000  33.8930000  33.1350000  27.7500000
  31.2780000  32.5260000  26.8630000  31.2930000  32.4970000  28.6550000
  30.4780000  33.8170000  27.7870000  34.7480000  33.8180000  27.7570000
  33.9340000  32.5260000  26.8440000  33.9460000  32.4970000  28.6360000
  17.4050000  22.8730000  19.9330000  18.2720000  22.0330000  19.7000000
  19.2170000  22.1750000  18.5370000  18.4440000  20.8140000  20.5650000
  20.2450000  22.2270000  18.9040000  19.0990000  21.3230000  17.8640000
  18.9910000  23.0930000  17.9880000  17.7020000  20.8250000  21.3690000
  19.4440000  20.8170000  21.0070000  18.2990000  19.9140000  19.9640000
  23.4640000  44.0600000  38.6610000  24.4260000  43.2930000  38.6820000
  25.3950000  43.2120000  37.5340000  24.6920000  42.3930000  39.8580000
  26.3960000  43.4820000  37.8800000  25.3970000  42.1990000  37.1280000
  25.0940000  43.9080000  36.7470000  23.9220000  42.5430000  40.6190000
  25.6670000  42.6320000  40.2890000  24.6690000  41.3500000  39.5330000
  26.4950000  50.4420000  42.7330000  27.2270000  49.4610000  42.6210000
  28.6590000  49.4880000  43.0830000  26.7350000  48.1740000  42.0180000
  28.8080000  48.7330000  43.8590000  29.3210000  49.2940000  42.2360000
  28.8950000  50.4720000  43.4970000  25.6880000  48.2810000  41.7220000
  26.8140000  47.3700000  42.7550000  27.3280000  47.9320000  41.1330000
  33.8300000  45.3920000  30.4370000  33.2610000  45.0120000  29.4140000
  32.7820000  43.5950000  29.2580000  33.0090000  45.9440000  28.2600000
  31.6990000  43.5880000  29.1160000  33.2770000  43.1340000  28.4000000
  33.0250000  43.0220000  30.1560000  33.4030000  46.9360000  28.4930000
  31.9340000  46.0230000  28.0810000  33.5120000  45.5660000  27.3670000
  39.7080000  45.4770000  49.8810000  38.6630000  44.9000000  49.5860000
  37.5340000  45.6170000  48.8960000  38.4510000  43.4430000  49.8950000
  37.3370000  45.1450000  47.9300000  36.6400000  45.5810000  49.5220000
  37.8070000  46.6620000  48.7290000  39.3360000  43.0400000  50.3950000
  38.2880000  42.8920000  48.9660000  37.5900000  43.3300000  50.5570000
  26.7110000  21.2790000  23.8020000  27.9120000  21.0310000  23.7110000
  28.9160000  22.0990000  23.3740000  28.4490000  19.6430000  23.9340000
  29.6340000  22.1990000  24.1920000  29.4330000  21.8370000  22.4490000
  28.4050000  23.0550000  23.2350000  27.6270000  18.9620000  24.1680000
  29.1500000  19.6530000  24.7730000  28.9500000  19.2940000  23.0290000
  46.5590000  49.8130000  47.8730000  46.6800000  50.2600000  49.0120000
  46.4320000  49.4050000  50.2250000  47.0870000  51.6870000  49.2610000
  47.3460000  49.3420000  50.8220000  45.6230000  49.8380000  50.8190000
  46.1430000  48.3980000  49.9150000  47.2350000  52.2000000  48.3070000
  48.0250000  51.7070000  49.8230000  46.3020000  52.2000000  49.8200000
  18.5400000  46.5720000  38.5970000  18.6250000  45.9460000  37.5410000
  18.2270000  44.4980000  37.4480000  19.1280000  46.5920000  36.2790000
  17.4150000  44.3860000  36.7260000  19.0890000  43.9010000  37.1410000
  17.8840000  44.1460000  38.4240000  19.3840000  47.6370000  36.4770000
  18.3480000  46.5580000  35.5140000  20.0210000  46.0700000  35.9310000
  49.1570000  42.6500000  35.3760000  50.1230000  43.2610000  35.8310000
  50.0000000  44.1360000  37.0490000  51.4850000  43.1670000  35.2000000
  50.6560000  43.7600000  37.8380000  50.2700000  45.1620000  36.7910000
  48.9690000  44.1230000  37.4110000  51.4430000  42.5080000  34.3280000
  52.1960000  42.7560000  35.9210000  51.8080000  44.1590000  34.8760000
  46.5470000  33.9580000  35.3950000  46.2600000  32.8570000  35.8630000
  47.3110000  31.9400000  36.4270000  44.8390000  32.3630000  35.9020000
  47.1020000  31.7500000  37.4830000  47.3150000  31.0010000  35.8690000
  48.2950000  32.4080000  36.3400000  44.1750000  33.1140000  35.4640000
  44.5400000  32.1890000  36.9380000  44.7560000  31.4390000  35.3250000
  39.4430000  25.0910000  29.3490000  39.5290000  26.3180000  29.3490000
  38.4880000  27.1820000  30.0080000  40.6820000  27.0280000  28.6940000
  38.9510000  27.7710000  30.8030000  38.0370000  27.8420000  29.2640000
  37.7070000  26.5530000  30.4430000  41.3640000  26.2950000  28.2530000
  41.2260000  27.6110000  29.4410000  40.3080000  27.6820000  27.9030000
  40.7580000  31.9390000  25.7070000  41.8530000  32.1100000  25.1720000
  41.9710000  32.5030000  23.7240000  43.1390000  31.9380000  25.9330000
  42.4800000  33.4660000  23.6470000  42.5290000  31.7360000  23.1810000
  40.9750000  32.5930000  23.2840000  42.9210000  31.6520000  26.9660000
  43.6910000  32.8810000  25.9370000  43.7380000  31.1520000  25.4690000
  36.9720000  45.5760000  45.1350000  36.3950000  46.3700000  44.3930000
  36.1250000  46.0460000  42.9490000  35.9220000  47.7100000  44.8860000
  35.0470000  46.0530000  42.7670000  36.6200000  46.7800000  42.3100000
  36.5160000  45.0520000  42.7140000  36.1780000  47.8260000  45.9430000
  34.8370000  47.7790000  44.7750000  36.4100000  48.5040000  44.3160000
  33.2090000  26.2770000  47.6350000  33.2040000  26.8680000  46.5560000
  34.3050000  26.6800000  45.5480000  32.0950000  27.8130000  46.1800000
  33.8880000  26.2770000  44.6220000  34.7930000  27.6380000  45.3560000
  35.0460000  25.9770000  45.9370000  31.3640000  27.8650000  46.9910000
  31.5970000  27.4520000  45.2760000  32.5060000  28.8110000  46.0100000
  29.9470000  43.6480000  34.3230000  30.8140000  44.3130000  33.7590000
  32.2780000  44.0130000  33.9340000  30.4630000  45.4640000  32.8560000
  32.7190000  43.7630000  32.9670000  32.7810000  44.8820000  34.3650000
  32.4020000  43.1620000  34.6100000  29.3760000  45.5810000  32.8130000
  30.8380000  45.2670000  31.8490000  30.9010000  46.3850000  33.2480000
  31.2130000  28.0670000  43.2040000  29.9980000  28.1660000  43.3700000
  29.2270000  29.3560000  42.8650000  29.2100000  27.1030000  44.0840000
  28.4740000  29.0260000  42.1450000  28.7490000  29.8650000  43.7040000
  29.9070000  30.0540000  42.3700000  29.8790000  26.2980000  44.4020000
  28.4560000  26.6900000  43.4090000  28.7310000  27.5320000  44.9670000
  40.6170000  19.5030000  21.4230000  39.9190000  20.5110000  21.5240000
  38.4210000  20.4260000  21.6340000  40.5230000  21.8890000  21.5480000
  38.0980000  20.8640000  22.5820000  37.9620000  20.9580000  20.7970000
  38.1070000  19.3800000  21.6030000  41.6100000  21.8170000  21.4590000
  40.2770000  22.3800000  22.4920000  40.1390000  22.4720000  20.7080000
  20.0420000  31.5770000  43.6240000  21.2620000  31.6460000  43.7650000
  21.9750000  32.9690000  43.8300000  22.1130000  30.4110000  43.8830000
  22.4840000  33.0640000  44.7920000  22.6970000  33.0360000  43.0130000
  21.2530000  33.7830000  43.7310000  21.4820000  29.5200000  43.8190000
  22.6270000  30.4120000  44.8480000  22.8400000  30.3880000  43.0690000
  47.1600000  36.9860000  41.9190000  48.3240000  36.9390000  42.3140000
  49.0780000  38.1830000  42.6980000  49.0620000  35.6340000  42.4390000
  49.3750000  38.1210000  43.7480000  49.9600000  38.2870000  42.0620000
  48.4390000  39.0590000  42.5630000  48.4120000  34.8110000  42.1300000
  49.3580000  35.4790000  43.4790000  49.9440000  35.6480000  41.7940000
  28.9820000  40.3300000  31.7660000  29.8630000  41.1310000  32.0750000
  30.8250000  40.8500000  33.1970000  30.0330000  42.4370000  31.3480000
  31.8460000  40.8310000  32.8080000  30.7290000  41.6230000  33.9640000
  30.5990000  39.8790000  33.6440000  29.2770000  42.5220000  30.5620000
  31.0250000  42.4750000  30.8910000  29.9080000  43.2650000  32.0490000
  39.4140000  31.6130000  18.9820000  38.3420000  32.1110000  19.3220000
  37.5210000  32.9390000  18.3710000  37.7860000  31.9200000  20.7070000
  36.5440000  32.4700000  18.2260000  37.3980000  33.9470000  18.7760000
  38.0280000  33.0060000  17.4060000  38.4720000  31.3060000  21.2970000
  36.8200000  31.4130000  20.6470000  37.6730000  32.8910000  21.1940000
  29.3420000  49.2340000  17.8290000  29.6780000  49.1550000  19.0100000
  28.7990000  49.6720000  20.1160000  30.9860000  48.5350000  19.4180000
  28.5300000  48.8500000  20.7840000  29.3280000  50.4500000  20.6710000
  27.8850000  50.0970000  19.6940000  31.5310000  48.2030000  18.5300000
  30.7970000  47.6710000  20.0610000  31.5930000  49.2730000  19.9480000
  43.6320000  31.2860000  33.4400000  44.4550000  32.0910000  33.0060000
  44.0330000  33.4050000  32.4080000  45.9320000  31.8100000  33.0510000
  44.4630000  34.2260000  32.9870000  44.3690000  33.4590000  31.3700000
  42.9440000  33.4890000  32.4310000  46.1080000  30.8300000  33.5030000
  46.4320000  32.5720000  33.6530000  46.3360000  31.8080000  32.0360000
  34.0450000  48.0960000  40.5090000  34.8280000  47.2930000  40.0030000
  34.7240000  45.8160000  40.2690000  35.9330000  47.7400000  39.0850000
  34.5490000  45.2860000  39.3300000  35.6470000  45.4630000  40.7350000
  33.8900000  45.6200000  40.9470000  35.9030000  48.8270000  38.9740000
  35.8010000  47.2800000  38.1030000  36.8990000  47.4550000  39.5090000
  22.3000000  38.8220000  36.2750000  23.4810000  38.5700000  36.5060000
  24.0790000  37.2270000  36.1850000  24.4000000  39.5900000  37.1220000
  24.8920000  37.3510000  35.4650000  24.4540000  36.7650000  37.1010000
  23.3160000  36.5780000  35.7470000  23.8490000  40.5170000  37.3090000
  25.2240000  39.8010000  36.4360000  24.7850000  39.2110000  38.0710000
  43.1190000  20.4900000  22.3550000  43.1640000  19.5040000  23.0900000
  44.0780000  18.3450000  22.8010000  42.3080000  19.4000000  24.3230000
  44.7820000  18.2190000  23.6270000  43.4870000  17.4370000  22.6670000
  44.6410000  18.5390000  21.8840000  41.6910000  20.2970000  24.4210000
  42.9470000  19.3120000  25.2050000  41.6540000  18.5290000  24.2430000
  41.0580000  33.8860000  50.7930000  39.9150000  33.8770000  50.3390000
  39.0520000  32.6460000  50.3990000  39.3110000  35.0970000  49.6990000
  38.1520000  32.8590000  50.9800000  38.7830000  32.3380000  49.3860000
  39.6010000  31.8330000  50.8810000  40.0330000  35.9180000  49.7140000
  38.4200000  35.3990000  50.2540000  39.0510000  34.8760000  48.6610000
  35.4380000  29.2280000  46.7330000  35.0900000  30.1520000  45.9990000
  33.8220000  30.9210000  46.2450000  35.9150000  30.5680000  44.8120000
  34.0590000  31.9740000  46.4180000  33.1590000  30.8210000  45.3830000
  33.3140000  30.5250000  47.1280000  36.8040000  29.9360000  44.7400000
  36.2300000  31.6080000  44.9310000  35.3270000  30.4560000  43.8980000
  24.5630000  49.3600000  44.4300000  23.6690000  50.1780000  44.2180000
  22.2640000  49.7460000  43.8960000  23.9270000  51.6600000  44.2700000
  21.5800000  50.1290000  44.6570000  21.9820000  50.1240000  42.9110000
  22.2070000  48.6550000  43.8850000  24.9780000  51.8430000  44.5100000
  23.3030000  52.1130000  45.0450000  23.7030000  52.1060000  43.2980000
  21.8960000  42.2380000  19.8740000  22.3430000  43.1770000  20.5300000
  21.5970000  44.4780000  20.6560000  23.6620000  43.0810000  21.2480000
  21.3650000  44.6660000  21.7070000  22.2060000  45.2900000  20.2520000
  20.6630000  44.4230000  20.0920000  24.1030000  42.0950000  21.0780000
  23.5060000  43.2190000  22.3210000  24.3440000  43.8440000  20.8660000
  27.9970000  24.7030000  34.5550000  27.2020000  25.5890000  34.8630000
  25.7410000  25.3000000  35.0740000  27.6440000  27.0150000  35.0520000
  25.4610000  25.5530000  36.0990000  25.1470000  25.8830000  34.3660000
  25.5470000  24.2370000  34.9060000  28.7200000  27.0950000  34.8700000
  27.4350000  27.3300000  36.0770000  27.1180000  27.6590000  34.3440000
  38.2300000  48.7510000  49.5390000  38.2290000  48.7670000  50.7690000
  38.2800000  50.0570000  51.5410000  38.1730000  47.4970000  51.5740000
  37.3840000  50.1490000  52.1600000  39.1740000  50.0720000  52.1690000
  38.3200000  50.9010000  50.8490000  38.1410000  46.6350000  50.9020000
  37.2720000  47.4960000  52.1930000  39.0630000  47.4220000  52.2020000
  19.1540000  50.4040000  28.7150000  20.3500000  50.1220000  28.7500000
  21.3330000  50.7270000  27.7840000  20.9040000  49.1560000  29.7620000
  22.0880000  51.2920000  28.3360000  21.8060000  49.9350000  27.2000000
  20.8120000  51.4040000  27.1030000  20.0960000  48.7870000  30.4000000
  21.6430000  49.6640000  30.3870000  21.3620000  48.3080000  29.2480000
  35.0470000  40.7370000  37.3580000  35.9110000  41.3800000  37.9530000
  35.8600000  41.5800000  39.4430000  37.0720000  42.0020000  37.2250000
  36.7510000  41.1450000  39.9020000  35.8030000  42.6480000  39.6670000
  34.9750000  41.0860000  39.8520000  36.9940000  41.7880000  36.1560000
  38.0070000  41.5820000  37.6030000  37.0580000  43.0840000  37.3710000
  37.7970000  49.5070000  19.7370000  37.8000000  49.9270000  20.8930000
  37.1940000  49.1370000  22.0210000  38.4110000  51.2550000  21.2490000
  37.9630000  48.9090000  22.7630000  36.3870000  49.7140000  22.4800000
  36.7830000  48.2000000  21.6370000  38.8130000  51.7290000  20.3490000
  39.2260000  51.1040000  21.9620000  37.6480000  51.9070000  21.6800000
  41.5030000  24.4530000  41.0880000  41.0320000  23.3670000  41.4210000
  41.9010000  22.1520000  41.6040000  39.5590000  23.1890000  41.6700000
  41.8250000  21.7990000  42.6360000  41.5830000  21.3680000  40.9130000
  42.9420000  22.4070000  41.3940000  39.0400000  24.1370000  41.5030000
  39.3970000  22.8740000  42.7040000  39.1580000  22.4420000  40.9820000
  31.5880000  26.6260000  41.5530000  30.9960000  25.5580000  41.6970000
  31.6100000  24.4110000  42.4520000  29.6200000  25.3360000  41.1300000
  30.9830000  24.1600000  43.3110000  31.7060000  23.5470000  41.7910000
  32.6030000  24.6930000  42.8100000  29.2870000  26.2360000  40.6060000
  28.9200000  25.1190000  41.9410000  29.6450000  24.5050000  40.4210000
  29.2360000  45.6870000  40.0570000  29.5110000  44.6250000  40.6120000
  28.4950000  43.5250000  40.7600000  30.8810000  44.3600000  41.1750000
  28.8480000  42.6290000  40.2440000  28.3360000  43.3130000  41.8190000
  27.5460000  43.8380000  40.3160000  31.5230000  45.2300000  41.0080000
  31.3210000  43.4940000  40.6740000  30.8080000  44.1770000  42.2490000
  30.2260000  18.9130000  35.4000000  31.3230000  19.3200000  35.0210000
  31.7210000  20.7640000  35.1630000  32.3330000  18.3970000  34.3950000
  32.6080000  20.8380000  35.7970000  31.9260000  21.1850000  34.1760000
  30.9080000  21.3280000  35.6260000  31.9270000  17.3830000  34.3470000
  33.2430000  18.3850000  35.0010000  32.5600000  18.7350000  33.3810000
  27.1170000  20.8260000  37.7890000  26.1230000  21.4240000  38.1990000
  25.1690000  22.1060000  37.2580000  25.8020000  21.5080000  39.6670000
  24.1750000  21.6630000  37.3590000  25.1300000  23.1740000  37.4850000
  25.5100000  21.9770000  36.2270000  26.5670000  20.9780000  40.2420000
  24.8320000  21.0420000  39.8560000  25.7860000  22.5540000  39.9800000
  36.3500000  37.7190000  17.3980000  36.6600000  36.6020000  17.8090000
  35.6290000  35.5300000  18.0350000  38.0900000  36.2410000  18.1080000
  35.8470000  34.6720000  17.3950000  35.6380000  35.2290000  19.0850000
  34.6370000  35.9140000  17.7860000  38.7370000  37.0990000  17.9070000
  38.3980000  35.4080000  17.4700000  38.1860000  35.9650000  19.1600000
  28.3520000  24.3870000  46.2970000  29.5280000  24.0280000  46.2540000
  29.9050000  22.5880000  46.0370000  30.6590000  25.0080000  46.4110000
  30.4930000  22.4970000  45.1200000  30.4830000  22.2280000  46.8910000
  29.0020000  21.9800000  45.9390000  30.2570000  26.0130000  46.5640000
  31.2740000  25.0060000  45.5080000  31.2630000  24.7340000  47.2790000
  41.2340000  46.8080000  44.8290000  40.0640000  46.4430000  44.7220000
  38.9510000  47.4260000  44.4780000  39.6770000  44.9930000  44.8230000
  38.4590000  47.1940000  43.5310000  38.2330000  47.3760000  45.2990000
  39.3580000  48.4390000  44.4270000  40.5680000  44.3850000  45.0020000
  39.2110000  44.6720000  43.8890000  38.9840000  44.8560000  45.6570000
  21.4440000  22.6940000  22.0070000  22.1890000  22.0010000  21.3160000
  22.6060000  20.6210000  21.7450000  22.7240000  22.4920000  19.9980000
  22.2660000  19.8900000  21.0080000  23.6940000  20.5810000  21.8410000
  22.1570000  20.3830000  22.7120000  22.3530000  23.5010000  19.8020000
  22.3880000  21.8290000  19.1970000  23.8160000  22.5180000  20.0330000
  41.3020000  42.7100000  30.7060000  42.0990000  43.1500000  29.8790000
  41.6340000  43.8210000  28.6150000  43.5860000  43.0460000  30.0820000
  41.9990000  44.8510000  28.5920000  42.0060000  43.2700000  27.7490000
  40.5410000  43.8330000  28.5840000  43.7940000  42.5400000  31.0280000
  44.0230000  44.0470000  30.1120000  44.0280000  42.4660000  29.2680000
  26.3940000  35.4870000  49.9850000  26.8600000  34.3490000  50.0030000
  28.2590000  34.0610000  49.5320000  26.0580000  33.1770000  50.5010000
  28.8440000  33.6430000  50.3550000  28.2270000  33.3570000  48.6980000
  28.7340000  34.9860000  49.1960000  25.0650000  33.5140000  50.8100000
  26.5630000  32.7270000  51.3600000  25.9480000  32.4420000  49.7010000
  26.7890000  45.8500000  18.2880000  25.9450000  46.6190000  18.7450000
  26.2240000  48.0870000  18.9150000  24.5810000  46.1370000  19.1590000
  25.5200000  48.6660000  18.3110000  26.1290000  48.3590000  19.9690000
  27.2410000  48.3110000  18.5830000  24.5040000  45.0590000  18.9900000
  23.8170000  46.6440000  18.5650000  24.4280000  46.3390000  20.2220000
  36.1110000  47.8520000  34.9400000  34.9700000  48.1520000  34.5930000
  34.0300000  47.1350000  34.0070000  34.4450000  49.5550000  34.7380000
  33.1450000  47.0450000  34.6420000  33.7410000  47.4410000  32.9990000
  34.5250000  46.1620000  33.9520000  35.2180000  50.1950000  35.1710000
  33.5750000  49.5540000  35.4000000  34.1710000  49.9470000  33.7570000
  17.8380000  29.5360000  41.7110000  18.5020000  28.5100000  41.5730000
  19.3320000  27.9510000  42.6960000  18.5220000  27.7510000  40.2740000
  18.9810000  26.9460000  42.9460000  20.3820000  27.9200000  42.3950000
  19.2370000  28.5880000  43.5790000  17.8850000  28.2560000  39.5420000
  18.1410000  26.7390000  40.4350000  19.5420000  27.7130000  39.8870000
  24.1630000  47.4940000  46.3150000  25.3440000  47.8360000  46.3600000
  26.4250000  47.0320000  45.6910000  25.7770000  49.0820000  47.0850000
  26.9230000  47.6440000  44.9350000  27.1460000  46.6950000  46.4390000
  25.9860000  46.1570000  45.2050000  24.9060000  49.5730000  47.5270000
  26.2520000  49.7690000  46.3800000  26.4760000  48.8180000  47.8820000
  29.6330000  39.0260000  44.7150000  30.1110000  37.9150000  44.9350000
  29.4020000  36.6540000  44.5220000  31.4360000  37.7500000  45.6290000
  30.0260000  36.0970000  43.8190000  29.1930000  36.0450000  45.4040000
  28.4570000  36.9050000  44.0340000  31.8470000  38.7320000  45.8790000
  32.1350000  37.2330000  44.9660000  31.2990000  37.1800000  46.5510000
  37.8950000  49.7170000  39.8940000  37.9230000  49.6430000  38.6660000
  38.5440000  48.4690000  37.9600000  37.3360000  50.7220000  37.7970000
  37.7880000  47.9660000  37.3510000  39.3670000  48.8130000  37.3310000
  38.9340000  47.7600000  38.6950000  36.9200000  51.5160000  38.4240000
  36.5360000  50.3020000  37.1820000  38.1160000  51.1470000  37.1620000
  43.8130000  25.5830000  42.3170000  43.6860000  25.7920000  43.5220000
  43.0180000  24.7950000  44.4300000  44.1920000  27.0560000  44.1620000
  43.7260000  24.4650000  45.1950000  42.1440000  25.2540000  44.8970000
  42.6950000  23.9270000  43.8500000  44.6510000  27.6960000  43.4020000
  44.9430000  26.8100000  44.9170000  43.3600000  27.5950000  44.6190000
  21.4150000  35.3400000  30.4990000  22.5410000  35.4170000  30.0090000
  23.6860000  36.0460000  30.7560000  22.8400000  34.8860000  28.6340000
  24.4780000  35.3070000  30.9010000  24.0660000  36.9000000  30.1920000
  23.3430000  36.3920000  31.7340000  21.9330000  34.4590000  28.1970000
  23.6010000  34.1050000  28.7010000  23.1900000  35.6990000  27.9940000
  19.2980000  41.3000000  49.6920000  19.1550000  40.0780000  49.6610000
  20.1070000  39.1540000  50.3710000  18.0170000  39.4360000  48.9150000
  19.5630000  38.5740000  51.1210000  20.5770000  38.4860000  49.6460000
  20.8840000  39.7370000  50.8700000  17.4030000  40.2080000  48.4440000
  17.3970000  38.8670000  49.6120000  18.4130000  38.7780000  48.1380000
  30.6110000  51.3040000  39.6120000  29.4040000  51.3080000  39.3760000
  28.8760000  51.3120000  37.9670000  28.3840000  51.3050000  40.4810000
  28.2740000  50.4160000  37.7990000  28.2720000  52.2080000  37.8060000
  29.7100000  51.3160000  37.2600000  28.8900000  51.3040000  41.4510000
  27.7640000  50.4090000  40.4050000  27.7630000  52.2010000  40.4090000
  19.9660000  32.2470000  25.2940000  19.6860000  33.1380000  26.0950000
  19.2490000  32.8270000  27.5000000  19.7670000  34.5920000  25.7170000
  19.9540000  33.2680000  28.2090000  18.2460000  33.2260000  27.6690000
  19.2280000  31.7450000  27.6500000  20.0920000  34.6860000  24.6770000
  20.4910000  35.0980000  26.3610000  18.7830000  35.0540000  25.8220000
  39.2050000  45.5780000  34.4280000  40.2560000  46.1790000  34.6440000
  40.2940000  47.6750000  34.7990000  41.5680000  45.4520000  34.7690000
  40.6690000  47.9310000  35.7930000  40.9380000  48.1060000  34.0300000
  39.2860000  48.0830000  34.6860000  41.4090000  44.3780000  34.6360000
  41.9900000  45.6270000  35.7620000  42.2580000  45.8050000  33.9990000
  28.5610000  21.8380000  18.5560000  27.5220000  22.3030000  19.0230000
  27.5110000  23.0650000  20.3200000  26.2010000  22.1390000  18.3230000
  27.1530000  24.0820000  20.1440000  26.8650000  22.5560000  21.0380000
  28.5240000  23.1130000  20.7280000  26.3400000  21.5690000  17.4000000
  25.7940000  23.1220000  18.0740000  25.5070000  21.5970000  18.9700000
  31.3290000  41.6780000  25.0640000  31.4210000  40.7450000  25.8600000
  31.5180000  40.9790000  27.3430000  31.4380000  39.3130000  25.3980000
  30.6700000  40.5070000  27.8450000  32.4570000  40.5650000  27.7180000
  31.4980000  42.0520000  27.5500000  31.3640000  39.2760000  24.3080000
  30.5870000  38.7790000  25.8290000  32.3740000  38.8400000  25.7040000
  21.5040000  32.0570000  31.0030000  21.8470000  30.8760000  30.9580000
  20.8390000  29.7600000  30.9960000  23.2950000  30.4790000  30.8600000
  20.9120000  29.1700000  30.0790000  21.0260000  29.1280000  31.8670000
  19.8310000  30.1750000  31.0700000  23.9230000  31.3730000  30.8430000
  23.4580000  29.9150000  29.9380000  23.5680000  29.8720000  31.7260000
  31.1810000  33.2370000  40.9050000  30.9370000  34.4430000  40.8850000
  32.0370000  35.4690000  40.8640000  29.5260000  34.9630000  40.8780000
  31.9590000  36.0710000  39.9560000  31.9590000  36.1070000  41.7470000
  33.0090000  34.9700000  40.8740000  28.8240000  34.1240000  40.8970000
  29.3550000  35.5460000  39.9700000  29.3580000  35.5830000  41.7610000
  31.3130000  38.2640000  38.9910000  32.1500000  37.8090000  38.2120000
  33.4530000  38.5140000  37.9540000  31.9200000  36.5190000  37.4730000
  34.2840000  37.8660000  38.2450000  33.5280000  38.7700000  36.8950000
  33.4990000  39.4330000  38.5440000  30.9430000  36.1080000  37.7430000
  32.6940000  35.7980000  37.7460000  31.9400000  36.7040000  36.3970000
  51.3770000  50.0340000  48.5000000  50.6870000  49.1170000  48.0570000
  51.1890000  48.2050000  46.9720000  49.3000000  48.8520000  48.5760000
  51.2130000  47.1760000  47.3400000  50.5350000  48.2780000  46.1000000
  52.2000000  48.4990000  46.6800000  49.0520000  49.5790000  49.3550000
  49.2540000  47.8470000  49.0030000  48.5780000  48.9490000  47.7610000
  45.9200000  20.1620000  35.7450000  46.6700000  21.0880000  35.4350000
  46.2030000  22.2230000  34.5650000  48.0960000  21.1410000  35.9110000
  46.2870000  23.1640000  35.1150000  46.8100000  22.2620000  33.6570000
  45.1580000  22.0690000  34.2850000  48.3120000  20.2650000  36.5280000
  48.2490000  22.0420000  36.5100000  48.7700000  21.1410000  35.0510000
  39.5330000  28.5280000  39.8200000  39.0690000  29.6110000  40.1730000
  37.5980000  29.7940000  40.4280000  39.9460000  30.8170000  40.3750000
  37.4400000  30.0910000  41.4670000  37.2010000  30.5560000  39.7530000
  37.0720000  28.8530000  40.2460000  40.9860000  30.5570000  40.1570000
  39.8750000  31.1520000  41.4120000  39.6330000  31.6150000  39.6980000
  45.4430000  49.7250000  34.1530000  44.2970000  50.1720000  34.1510000
  43.0960000  49.2660000  34.1520000  44.0280000  51.6530000  34.1530000
  42.5000000  49.4480000  35.0490000  42.4970000  49.4520000  33.2570000
  43.4210000  48.2220000  34.1490000  44.9750000  52.2000000  34.1500000
  43.4660000  51.9220000  35.0500000  43.4620000  51.9230000  33.2580000
  47.5070000  37.0010000  30.7540000  46.6790000  36.1780000  31.1430000
  46.0240000  35.2100000  30.1960000  46.2750000  36.0900000  32.5900000
  46.2610000  34.1860000  30.4980000  44.9430000  35.3640000  30.2050000
  46.3970000  35.3750000  29.1820000  46.8150000  36.8420000  33.1710000
  46.5210000  35.0980000  32.9780000  45.2020000  36.2750000  32.6830000
  27.4760000  34.6640000  39.2380000  27.5360000  35.7960000  38.7620000
  27.5160000  36.0280000  37.2750000  27.6290000  37.0160000  39.6360000
  26.6480000  36.6370000  37.0110000  28.4360000  36.5320000  36.9710000
  27.4480000  35.0710000  36.7520000  27.6370000  36.7170000  40.6880000
  26.7650000  37.6610000  39.4590000  28.5540000  37.5550000  39.4160000
  29.7060000  31.2630000  40.5060000  29.3550000  30.2250000  39.9480000
  27.9130000  29.9570000  39.6160000  30.3480000  29.1630000  39.5610000
  27.8010000  29.8410000  38.5350000  27.5810000  29.0510000  40.1280000
  27.2950000  30.7960000  39.9470000  31.3540000  29.4730000  39.8560000
  30.3250000  29.0180000  38.4780000  30.1030000  28.2290000  40.0720000
  41.6280000  43.2750000  51.3420000  42.7510000  42.8160000  51.1430000
  43.9360000  43.7100000  50.8980000  43.0080000  41.3340000  51.1350000
  44.6860000  43.5450000  51.6760000  44.3600000  43.4950000  49.9150000
  43.6220000  44.7560000  50.9260000  42.0750000  40.7960000  51.3210000
  43.7240000  41.0820000  51.9210000  43.3990000  41.0340000  50.1600000
  38.5550000  27.0590000  26.7070000  37.4140000  26.8710000  26.2880000
  36.7320000  27.8620000  25.3840000  36.6330000  25.6380000  26.6530000
  36.4920000  27.3830000  24.4320000  35.8210000  28.2270000  25.8630000
  37.3960000  28.7090000  25.1970000  37.2330000  25.0020000  27.3110000
  36.3900000  25.0780000  25.7460000  35.7190000  25.9240000  27.1760000
  32.4080000  44.3520000  50.6580000  33.5620000  44.6410000  50.9690000
  33.9930000  46.0680000  51.1670000  34.6120000  43.5820000  51.1720000
  34.3430000  46.2060000  52.1930000  34.7900000  46.3120000  50.4600000
  33.1470000  46.7370000  50.9900000  34.1780000  42.5940000  50.9980000
  34.9850000  43.6290000  52.1980000  35.4310000  43.7380000  50.4650000
  19.8900000  26.7500000  33.0800000  19.5400000  27.6830000  33.8010000
  20.4970000  28.3420000  34.7570000  18.1370000  28.2240000  33.7670000
  20.6030000  29.3990000  34.4990000  20.1220000  28.2390000  35.7780000
  21.4760000  27.8620000  34.6900000  17.5430000  27.6640000  33.0390000
  18.1570000  29.2760000  33.4730000  17.6790000  28.1170000  34.7530000
  46.7810000  35.0970000  19.2860000  46.4770000  34.2510000  20.1250000
  47.4400000  33.8240000  21.2000000  45.1240000  33.5940000  20.1290000
  47.0160000  34.0490000  22.1810000  47.6380000  32.7540000  21.1100000
  48.3820000  34.3680000  21.0890000  44.5220000  33.9850000  19.3040000
  44.6150000  33.8100000  21.0720000  45.2390000  32.5150000  20.0010000
  34.9050000  24.4070000  17.5100000  35.5770000  23.4670000  17.9310000
  36.9990000  23.6550000  18.3850000  35.0160000  22.0740000  18.0210000
  37.0870000  23.3780000  19.4380000  37.6620000  23.0360000  17.7760000
  37.2890000  24.7020000  18.2690000  33.9830000  22.0690000  17.6630000
  35.0310000  21.7400000  19.0620000  35.6080000  21.3990000  17.4000000
  26.2330000  23.4270000  23.7990000  25.2660000  24.1850000  23.7430000
  25.4000000  25.6580000  24.0180000  23.8900000  23.6840000  23.3950000
  25.1060000  26.2240000  23.1310000  24.7690000  25.9310000  24.8660000
  26.4390000  25.8950000  24.2590000  23.9230000  22.6050000  23.2220000
  23.5400000  24.1780000  22.4850000  23.2060000  23.8870000  24.2220000
  27.7880000  31.5530000  19.6170000  27.8110000  30.3610000  19.3140000
  26.9100000  29.3590000  19.9830000  28.7390000  29.8340000  18.2540000
  26.2590000  28.8960000  19.2380000  27.5150000  28.5970000  20.4810000
  26.2900000  29.8610000  20.7310000  29.3390000  30.6540000  17.8480000
  28.1560000  29.3890000  17.4440000  29.4090000  29.0890000  18.6890000
  47.2630000  52.0450000  42.0360000  46.6370000  51.1570000  42.6110000
  46.2790000  51.2610000  44.0690000  46.1890000  49.9140000  41.8910000
  45.1920000  51.2410000  44.1810000  46.7300000  50.4300000  44.6170000
  46.6590000  52.2010000  44.4760000  46.5100000  49.9570000  40.8470000
  45.0990000  49.8450000  41.9240000  46.6370000  49.0360000  42.3620000
  18.7910000  26.6030000  21.8450000  19.5190000  25.6160000  21.9420000
  18.9540000  24.2270000  22.0650000  21.0180000  25.7390000  21.9410000
  19.2910000  23.6190000  21.2210000  19.2820000  23.7800000  23.0060000
  17.8620000  24.2710000  22.0550000  21.3020000  26.7920000  21.8500000
  21.4310000  25.1870000  21.0930000  21.4190000  25.3460000  22.8780000
  46.1540000  21.0370000  52.1270000  44.9940000  21.2030000  51.7520000
  44.0620000  20.0430000  51.5330000  44.4380000  22.5770000  51.4920000
  43.2010000  20.1330000  52.2000000  43.7330000  20.0290000  50.4920000
  44.5810000  19.1060000  51.7510000  45.2080000  23.3290000  51.6840000
  43.5910000  22.7600000  52.1580000  44.1210000  22.6530000  50.4490000
  44.8130000  29.9890000  27.2140000  46.0130000  29.8940000  26.9600000
  47.0560000  30.5560000  27.8190000  46.5100000  29.1080000  25.7780000
  47.7210000  29.7980000  28.2390000  47.6270000  31.2670000  27.2180000
  46.5720000  31.0950000  28.6380000  45.6610000  28.6800000  25.2360000
  47.1540000  28.2950000  26.1230000  47.0610000  29.7670000  25.1040000
  34.8000000  34.8000000  34.8000000  90.0000000  90.0000000  90.0000000
