%VERSION  VERSION_STAMP = V0001.000  DATE = 05/04/26  20:17:20                  
%FLAG TITLE                                                                     
%FORMAT(20a4)                                                                   
default_name                                                                    
%FLAG POINTERS                                                                  
%FORMAT(10I8)                                                                   
    3442       9    2058    1047    4118    1059    6182     411       0       0
   13146     341    1047    1059     411      19      32      25      12       0
       0       0       0       0       0       0       0       1      42       0
       0
%FLAG ATOM_NAME                                                                 
%FORMAT(20a4)                                                                   
O1  O2  N1  N2  C1  C2  C3  C4  C5  C6  C7  C8  C9  C10 C11 C12 C13 C14 C15 C16 
C17 C18 C19 C20 H1  H2  H3  H4  H5  H6  H7  H8  H9  H10 H11 H12 H13 H14 H15 H16 
H17 H18 O1  C1  C2  C3  H1  H2  H3  H4  H5  H6  O1  C1  C2  C3  H1  H2  H3  H4  
H5  H6  O1  C1  C2  C3  H1  H2  H3  H4  H5  H6  O1  C1  C2  C3  H1  H2  H3  H4  
H5  H6  O1  C1  C2  C3  H1  H2  H3  H4  H5  H6  O1  C1  C2  C3  H1  H2  H3  H4  
H5  H6  O1  C1  C2  C3  H1  H2  H3  H4  H5  H6  O1  C1  C2  C3  H1  H2  H3  H4  
H5  H6  O1  C1  C2  C3  H1  H2  H3  H4  H5  H6  O1  C1  C2  C3  H1  H2  H3  H4  
H5  H6  O1  C1  C2  C3  H1  H2  H3  H4  H5  H6  O1  C1  C2  C3  H1  H2  H3  H4  
H5  H6  O1  C1  C2  C3  H1  H2  H3  H4  H5  H6  O1  C1  C2  C3  H1  H2  H3  H4  
H5  H6  O1  C1  C2  C3  H1  H2  H3  H4  H5  H6  O1  C1  C2  C3  H1  H2  H3  H4  
H5  H6  O1  C1  C2  C3  H1  H2  H3  H4  H5  H6  O1  C1  C2  C3  H1  H2  H3  H4  
H5  H6  O1  C1  C2  C3  H1  H2  H3  H4  H5  H6  O1  C1  C2  C3  H1  H2  H3  H4  
H5  H6  O1  C1  C2  C3  H1  H2  H3  H4  H5  H6  O1  C1  C2  C3  H1  H2  H3  H4  
H5  H6  O1  C1  C2  C3  H1  H2  H3  H4  H5  H6  O1  C1  C2  C3  H1  H2  H3  H4  
H5  H6  O1  C1  C2  C3  H1  H2  H3  H4  H5  H6  O1  C1  C2  C3  H1  H2  H3  H4  
H5  H6  O1  C1  C2  C3  H1  H2  H3  H4  H5  H6  O1  C1  C2  C3  H1  H2  H3  H4  
H5  H6  O1  C1  C2  C3  H1  H2  H3  H4  H5  H6  O1  C1  C2  C3  H1  H2  H3  H4  
H5  H6  O1  C1  C2  C3  H1  H2  H3  H4  H5  H6  O1  C1  C2  C3  H1  H2  H3  H4  
H5  H6  O1  C1  C2  C3  H1  H2  H3  H4  H5  H6  O1  C1  C2  C3  H1  H2  H3  H4  
H5  H6  O1  C1  C2  C3  H1  H2  H3  H4  H5  H6  O1  C1  C2  C3  H1  H2  H3  H4  
H5  H6  O1  C1  C2  C3  H1  H2  H3  H4  H5  H6  O1  C1  C2  C3  H1  H2  H3  H4  
H5  H6  O1  C1  C2  C3  H1  H2  H3  H4  H5  H6  O1  C1  C2  C3  H1  H2  H3  H4  
H5  H6  O1  C1  C2  C3  H1  H2  H3  H4  H5  H6  O1  C1  C2  C3  H1  H2  H3  H4  
H5  H6  O1  C1  C2  C3  H1  H2  H3  H4  H5  H6  O1  C1  C2  C3  H1  H2  H3  H4  
H5  H6  O1  C1  C2  C3  H1  H2  H3  H4  H5  H6  O1  C1  C2  C3  H1  H2  H3  H4  
H5  H6  O1  C1  C2  C3  H1  H2  H3  H4  H5  H6  O1  C1  C2  C3  H1  H2  H3  H4  
H5  H6  O1  C1  C2  C3  H1  H2  H3  H4  H5  H6  O1  C1  C2  C3  H1  H2  H3  H4  
H5  H6  O1  C1  C2  C3  H1  H2  H3  H4  H5  H6  O1  C1  C2  C3  H1  H2  H3  H4  
H5  H6  O1  C1  C2  C3  H1  H2  H3  H4  H5  H6  O1  C1  C2  C3  H1  H2  H3  H4  
H5  H6  O1  C1  C2  C3  H1  H2  H3  H4  H5  H6  O1  C1  C2  C3  H1  H2  H3  H4  
H5  H6  O1  C1  C2  C3  H1  H2  H3  H4  H5  H6  O1  C1  C2  C3  H1  H2  H3  H4  
H5  H6  O1  C1  C2  C3  H1  H2  H3  H4  H5  H6  O1  C1  C2  C3  H1  H2  H3  H4  
H5  H6  O1  C1  C2  C3  H1  H2  H3  H4  H5  H6  O1  C1  C2  C3  H1  H2  H3  H4  
H5  H6  O1  C1  C2  C3  H1  H2  H3  H4  H5  H6  O1  C1  C2  C3  H1  H2  H3  H4  
H5  H6  O1  C1  C2  C3  H1  H2  H3  H4  H5  H6  O1  C1  C2  C3  H1  H2  H3  H4  
H5  H6  O1  C1  C2  C3  H1  H2  H3  H4  H5  H6  O1  C1  C2  C3  H1  H2  H3  H4  
H5  H6  O1  C1  C2  C3  H1  H2  H3  H4  H5  H6  O1  C1  C2  C3  H1  H2  H3  H4  
H5  H6  O1  C1  C2  C3  H1  H2  H3  H4  H5  H6  O1  C1  C2  C3  H1  H2  H3  H4  
H5  H6  O1  C1  C2  C3  H1  H2  H3  H4  H5  H6  O1  C1  C2  C3  H1  H2  H3  H4  
H5  H6  O1  C1  C2  C3  H1  H2  H3  H4  H5  H6  O1  C1  C2  C3  H1  H2  H3  H4  
H5  H6  O1  C1  C2  C3  H1  H2  H3  H4  H5  H6  O1  C1  C2  C3  H1  H2  H3  H4  
H5  H6  O1  C1  C2  C3  H1  H2  H3  H4  H5  H6  O1  C1  C2  C3  H1  H2  H3  H4  
H5  H6  O1  C1  C2  C3  H1  H2  H3  H4  H5  H6  O1  C1  C2  C3  H1  H2  H3  H4  
H5  H6  O1  C1  C2  C3  H1  H2  H3  H4  H5  H6  O1  C1  C2  C3  H1  H2  H3  H4  
H5  H6  O1  C1  C2  C3  H1  H2  H3  H4  H5  H6  O1  C1  C2  C3  H1  H2  H3  H4  
H5  H6  O1  C1  C2  C3  H1  H2  H3  H4  H5  H6  O1  C1  C2  C3  H1  H2  H3  H4  
H5  H6  O1  C1  C2  C3  H1  H2  H3  H4  H5  H6  O1  C1  C2  C3  H1  H2  H3  H4  
H5  H6  O1  C1  C2  C3  H1  H2  H3  H4  H5  H6  O1  C1  C2  C3  H1  H2  H3  H4  
H5  H6  O1  C1  C2  C3  H1  H2  H3  H4  H5  H6  O1  C1  C2  C3  H1  H2  H3  H4  
H5  H6  O1  C1  C2  C3  H1  H2  H3  H4  H5  H6  O1  C1  C2  C3  H1  H2  H3  H4  
H5  H6  O1  C1  C2  C3  H1  H2  H3  H4  H5  H6  O1  C1  C2  C3  H1  H2  H3  H4  
H5  H6  O1  C1  C2  C3  H1  H2  H3  H4  H5  H6  O1  C1  C2  C3  H1  H2  H3  H4  
H5  H6  O1  C1  C2  C3  H1  H2  H3  H4  H5  H6  O1  C1  C2  C3  H1  H2  H3  H4  
H5  H6  O1  C1  C2  C3  H1  H2  H3  H4  H5  H6  O1  C1  C2  C3  H1  H2  H3  H4  
H5  H6  O1  C1  C2  C3  H1  H2  H3  H4  H5  H6  O1  C1  C2  C3  H1  H2  H3  H4  
H5  H6  O1  C1  C2  C3  H1  H2  H3  H4  H5  H6  O1  C1  C2  C3  H1  H2  H3  H4  
H5  H6  O1  C1  C2  C3  H1  H2  H3  H4  H5  H6  O1  C1  C2  C3  H1  H2  H3  H4  
H5  H6  O1  C1  C2  C3  H1  H2  H3  H4  H5  H6  O1  C1  C2  C3  H1  H2  H3  H4  
H5  H6  O1  C1  C2  C3  H1  H2  H3  H4  H5  H6  O1  C1  C2  C3  H1  H2  H3  H4  
H5  H6  O1  C1  C2  C3  H1  H2  H3  H4  H5  H6  O1  C1  C2  C3  H1  H2  H3  H4  
H5  H6  O1  C1  C2  C3  H1  H2  H3  H4  H5  H6  O1  C1  C2  C3  H1  H2  H3  H4  
H5  H6  O1  C1  C2  C3  H1  H2  H3  H4  H5  H6  O1  C1  C2  C3  H1  H2  H3  H4  
H5  H6  O1  C1  C2  C3  H1  H2  H3  H4  H5  H6  O1  C1  C2  C3  H1  H2  H3  H4  
H5  H6  O1  C1  C2  C3  H1  H2  H3  H4  H5  H6  O1  C1  C2  C3  H1  H2  H3  H4  
H5  H6  O1  C1  C2  C3  H1  H2  H3  H4  H5  H6  O1  C1  C2  C3  H1  H2  H3  H4  
H5  H6  O1  C1  C2  C3  H1  H2  H3  H4  H5  H6  O1  C1  C2  C3  H1  H2  H3  H4  
H5  H6  O1  C1  C2  C3  H1  H2  H3  H4  H5  H6  O1  C1  C2  C3  H1  H2  H3  H4  
H5  H6  O1  C1  C2  C3  H1  H2  H3  H4  H5  H6  O1  C1  C2  C3  H1  H2  H3  H4  
H5  H6  O1  C1  C2  C3  H1  H2  H3  H4  H5  H6  O1  C1  C2  C3  H1  H2  H3  H4  
H5  H6  O1  C1  C2  C3  H1  H2  H3  H4  H5  H6  O1  C1  C2  C3  H1  H2  H3  H4  
H5  H6  O1  C1  C2  C3  H1  H2  H3  H4  H5  H6  O1  C1  C2  C3  H1  H2  H3  H4  
H5  H6  O1  C1  C2  C3  H1  H2  H3  H4  H5  H6  O1  C1  C2  C3  H1  H2  H3  H4  
H5  H6  O1  C1  C2  C3  H1  H2  H3  H4  H5  H6  O1  C1  C2  C3  H1  H2  H3  H4  
H5  H6  O1  C1  C2  C3  H1  H2  H3  H4  H5  H6  O1  C1  C2  C3  H1  H2  H3  H4  
H5  H6  O1  C1  C2  C3  H1  H2  H3  H4  H5  H6  O1  C1  C2  C3  H1  H2  H3  H4  
H5  H6  O1  C1  C2  C3  H1  H2  H3  H4  H5  H6  O1  C1  C2  C3  H1  H2  H3  H4  
H5  H6  O1  C1  C2  C3  H1  H2  H3  H4  H5  H6  O1  C1  C2  C3  H1  H2  H3  H4  
H5  H6  O1  C1  C2  C3  H1  H2  H3  H4  H5  H6  O1  C1  C2  C3  H1  H2  H3  H4  
H5  H6  O1  C1  C2  C3  H1  H2  H3  H4  H5  H6  O1  C1  C2  C3  H1  H2  H3  H4  
H5  H6  O1  C1  C2  C3  H1  H2  H3  H4  H5  H6  O1  C1  C2  C3  H1  H2  H3  H4  
H5  H6  O1  C1  C2  C3  H1  H2  H3  H4  H5  H6  O1  C1  C2  C3  H1  H2  H3  H4  
H5  H6  O1  C1  C2  C3  H1  H2  H3  H4  H5  H6  O1  C1  C2  C3  H1  H2  H3  H4  
H5  H6  O1  C1  C2  C3  H1  H2  H3  H4  H5  H6  O1  C1  C2  C3  H1  H2  H3  H4  
H5  H6  O1  C1  C2  C3  H1  H2  H3  H4  H5  H6  O1  C1  C2  C3  H1  H2  H3  H4  
H5  H6  O1  C1  C2  C3  H1  H2  H3  H4  H5  H6  O1  C1  C2  C3  H1  H2  H3  H4  
H5  H6  O1  C1  C2  C3  H1  H2  H3  H4  H5  H6  O1  C1  C2  C3  H1  H2  H3  H4  
H5  H6  O1  C1  C2  C3  H1  H2  H3  H4  H5  H6  O1  C1  C2  C3  H1  H2  H3  H4  
H5  H6  O1  C1  C2  C3  H1  H2  H3  H4  H5  H6  O1  C1  C2  C3  H1  H2  H3  H4  
H5  H6  O1  C1  C2  C3  H1  H2  H3  H4  H5  H6  O1  C1  C2  C3  H1  H2  H3  H4  
H5  H6  O1  C1  C2  C3  H1  H2  H3  H4  H5  H6  O1  C1  C2  C3  H1  H2  H3  H4  
H5  H6  O1  C1  C2  C3  H1  H2  H3  H4  H5  H6  O1  C1  C2  C3  H1  H2  H3  H4  
H5  H6  O1  C1  C2  C3  H1  H2  H3  H4  H5  H6  O1  C1  C2  C3  H1  H2  H3  H4  
H5  H6  O1  C1  C2  C3  H1  H2  H3  H4  H5  H6  O1  C1  C2  C3  H1  H2  H3  H4  
H5  H6  O1  C1  C2  C3  H1  H2  H3  H4  H5  H6  O1  C1  C2  C3  H1  H2  H3  H4  
H5  H6  O1  C1  C2  C3  H1  H2  H3  H4  H5  H6  O1  C1  C2  C3  H1  H2  H3  H4  
H5  H6  O1  C1  C2  C3  H1  H2  H3  H4  H5  H6  O1  C1  C2  C3  H1  H2  H3  H4  
H5  H6  O1  C1  C2  C3  H1  H2  H3  H4  H5  H6  O1  C1  C2  C3  H1  H2  H3  H4  
H5  H6  O1  C1  C2  C3  H1  H2  H3  H4  H5  H6  O1  C1  C2  C3  H1  H2  H3  H4  
H5  H6  O1  C1  C2  C3  H1  H2  H3  H4  H5  H6  O1  C1  C2  C3  H1  H2  H3  H4  
H5  H6  O1  C1  C2  C3  H1  H2  H3  H4  H5  H6  O1  C1  C2  C3  H1  H2  H3  H4  
H5  H6  O1  C1  C2  C3  H1  H2  H3  H4  H5  H6  O1  C1  C2  C3  H1  H2  H3  H4  
H5  H6  O1  C1  C2  C3  H1  H2  H3  H4  H5  H6  O1  C1  C2  C3  H1  H2  H3  H4  
H5  H6  O1  C1  C2  C3  H1  H2  H3  H4  H5  H6  O1  C1  C2  C3  H1  H2  H3  H4  
H5  H6  O1  C1  C2  C3  H1  H2  H3  H4  H5  H6  O1  C1  C2  C3  H1  H2  H3  H4  
H5  H6  O1  C1  C2  C3  H1  H2  H3  H4  H5  H6  O1  C1  C2  C3  H1  H2  H3  H4  
H5  H6  O1  C1  C2  C3  H1  H2  H3  H4  H5  H6  O1  C1  C2  C3  H1  H2  H3  H4  
H5  H6  O1  C1  C2  C3  H1  H2  H3  H4  H5  H6  O1  C1  C2  C3  H1  H2  H3  H4  
H5  H6  O1  C1  C2  C3  H1  H2  H3  H4  H5  H6  O1  C1  C2  C3  H1  H2  H3  H4  
H5  H6  O1  C1  C2  C3  H1  H2  H3  H4  H5  H6  O1  C1  C2  C3  H1  H2  H3  H4  
H5  H6  O1  C1  C2  C3  H1  H2  H3  H4  H5  H6  O1  C1  C2  C3  H1  H2  H3  H4  
H5  H6  O1  C1  C2  C3  H1  H2  H3  H4  H5  H6  O1  C1  C2  C3  H1  H2  H3  H4  
H5  H6  O1  C1  C2  C3  H1  H2  H3  H4  H5  H6  O1  C1  C2  C3  H1  H2  H3  H4  
H5  H6  O1  C1  C2  C3  H1  H2  H3  H4  H5  H6  O1  C1  C2  C3  H1  H2  H3  H4  
H5  H6  O1  C1  C2  C3  H1  H2  H3  H4  H5  H6  O1  C1  C2  C3  H1  H2  H3  H4  
H5  H6  O1  C1  C2  C3  H1  H2  H3  H4  H5  H6  O1  C1  C2  C3  H1  H2  H3  H4  
H5  H6  O1  C1  C2  C3  H1  H2  H3  H4  H5  H6  O1  C1  C2  C3  H1  H2  H3  H4  
H5  H6  O1  C1  C2  C3  H1  H2  H3  H4  H5  H6  O1  C1  C2  C3  H1  H2  H3  H4  
H5  H6  O1  C1  C2  C3  H1  H2  H3  H4  H5  H6  O1  C1  C2  C3  H1  H2  H3  H4  
H5  H6  O1  C1  C2  C3  H1  H2  H3  H4  H5  H6  O1  C1  C2  C3  H1  H2  H3  H4  
H5  H6  O1  C1  C2  C3  H1  H2  H3  H4  H5  H6  O1  C1  C2  C3  H1  H2  H3  H4  
H5  H6  O1  C1  C2  C3  H1  H2  H3  H4  H5  H6  O1  C1  C2  C3  H1  H2  H3  H4  
H5  H6  O1  C1  C2  C3  H1  H2  H3  H4  H5  H6  O1  C1  C2  C3  H1  H2  H3  H4  
H5  H6  O1  C1  C2  C3  H1  H2  H3  H4  H5  H6  O1  C1  C2  C3  H1  H2  H3  H4  
H5  H6  O1  C1  C2  C3  H1  H2  H3  H4  H5  H6  O1  C1  C2  C3  H1  H2  H3  H4  
H5  H6  O1  C1  C2  C3  H1  H2  H3  H4  H5  H6  O1  C1  C2  C3  H1  H2  H3  H4  
H5  H6  O1  C1  C2  C3  H1  H2  H3  H4  H5  H6  O1  C1  C2  C3  H1  H2  H3  H4  
H5  H6  O1  C1  C2  C3  H1  H2  H3  H4  H5  H6  O1  C1  C2  C3  H1  H2  H3  H4  
H5  H6  O1  C1  C2  C3  H1  H2  H3  H4  H5  H6  O1  C1  C2  C3  H1  H2  H3  H4  
H5  H6  O1  C1  C2  C3  H1  H2  H3  H4  H5  H6  O1  C1  C2  C3  H1  H2  H3  H4  
H5  H6  O1  C1  C2  C3  H1  H2  H3  H4  H5  H6  O1  C1  C2  C3  H1  H2  H3  H4  
H5  H6  O1  C1  C2  C3  H1  H2  H3  H4  H5  H6  O1  C1  C2  C3  H1  H2  H3  H4  
H5  H6  O1  C1  C2  C3  H1  H2  H3  H4  H5  H6  O1  C1  C2  C3  H1  H2  H3  H4  
H5  H6  O1  C1  C2  C3  H1  H2  H3  H4  H5  H6  O1  C1  C2  C3  H1  H2  H3  H4  
H5  H6  O1  C1  C2  C3  H1  H2  H3  H4  H5  H6  O1  C1  C2  C3  H1  H2  H3  H4  
H5  H6  O1  C1  C2  C3  H1  H2  H3  H4  H5  H6  O1  C1  C2  C3  H1  H2  H3  H4  
H5  H6  O1  C1  C2  C3  H1  H2  H3  H4  H5  H6  O1  C1  C2  C3  H1  H2  H3  H4  
H5  H6  O1  C1  C2  C3  H1  H2  H3  H4  H5  H6  O1  C1  C2  C3  H1  H2  H3  H4  
H5  H6  O1  C1  C2  C3  H1  H2  H3  H4  H5  H6  O1  C1  C2  C3  H1  H2  H3  H4  
H5  H6  O1  C1  C2  C3  H1  H2  H3  H4  H5  H6  O1  C1  C2  C3  H1  H2  H3  H4  
H5  H6  O1  C1  C2  C3  H1  H2  H3  H4  H5  H6  O1  C1  C2  C3  H1  H2  H3  H4  
H5  H6  O1  C1  C2  C3  H1  H2  H3  H4  H5  H6  O1  C1  C2  C3  H1  H2  H3  H4  
H5  H6  O1  C1  C2  C3  H1  H2  H3  H4  H5  H6  O1  C1  C2  C3  H1  H2  H3  H4  
H5  H6  O1  C1  C2  C3  H1  H2  H3  H4  H5  H6  O1  C1  C2  C3  H1  H2  H3  H4  
H5  H6  O1  C1  C2  C3  H1  H2  H3  H4  H5  H6  O1  C1  C2  C3  H1  H2  H3  H4  
H5  H6  O1  C1  C2  C3  H1  H2  H3  H4  H5  H6  O1  C1  C2  C3  H1  H2  H3  H4  
H5  H6  O1  C1  C2  C3  H1  H2  H3  H4  H5  H6  O1  C1  C2  C3  H1  H2  H3  H4  
H5  H6  O1  C1  C2  C3  H1  H2  H3  H4  H5  H6  O1  C1  C2  C3  H1  H2  H3  H4  
H5  H6  O1  C1  C2  C3  H1  H2  H3  H4  H5  H6  O1  C1  C2  C3  H1  H2  H3  H4  
H5  H6  O1  C1  C2  C3  H1  H2  H3  H4  H5  H6  O1  C1  C2  C3  H1  H2  H3  H4  
H5  H6  O1  C1  C2  C3  H1  H2  H3  H4  H5  H6  O1  C1  C2  C3  H1  H2  H3  H4  
H5  H6  O1  C1  C2  C3  H1  H2  H3  H4  H5  H6  O1  C1  C2  C3  H1  H2  H3  H4  
H5  H6  O1  C1  C2  C3  H1  H2  H3  H4  H5  H6  O1  C1  C2  C3  H1  H2  H3  H4  
H5  H6  O1  C1  C2  C3  H1  H2  H3  H4  H5  H6  O1  C1  C2  C3  H1  H2  H3  H4  
H5  H6  O1  C1  C2  C3  H1  H2  H3  H4  H5  H6  O1  C1  C2  C3  H1  H2  H3  H4  
H5  H6  O1  C1  C2  C3  H1  H2  H3  H4  H5  H6  O1  C1  C2  C3  H1  H2  H3  H4  
H5  H6  O1  C1  C2  C3  H1  H2  H3  H4  H5  H6  O1  C1  C2  C3  H1  H2  H3  H4  
H5  H6  O1  C1  C2  C3  H1  H2  H3  H4  H5  H6  O1  C1  C2  C3  H1  H2  H3  H4  
H5  H6  O1  C1  C2  C3  H1  H2  H3  H4  H5  H6  O1  C1  C2  C3  H1  H2  H3  H4  
H5  H6  O1  C1  C2  C3  H1  H2  H3  H4  H5  H6  O1  C1  C2  C3  H1  H2  H3  H4  
H5  H6  O1  C1  C2  C3  H1  H2  H3  H4  H5  H6  O1  C1  C2  C3  H1  H2  H3  H4  
H5  H6  O1  C1  C2  C3  H1  H2  H3  H4  H5  H6  O1  C1  C2  C3  H1  H2  H3  H4  
H5  H6  O1  C1  C2  C3  H1  H2  H3  H4  H5  H6  O1  C1  C2  C3  H1  H2  H3  H4  
H5  H6  O1  C1  C2  C3  H1  H2  H3  H4  H5  H6  O1  C1  C2  C3  H1  H2  H3  H4  
H5  H6  O1  C1  C2  C3  H1  H2  H3  H4  H5  H6  O1  C1  C2  C3  H1  H2  H3  H4  
H5  H6  O1  C1  C2  C3  H1  H2  H3  H4  H5  H6  O1  C1  C2  C3  H1  H2  H3  H4  
H5  H6  O1  C1  C2  C3  H1  H2  H3  H4  H5  H6  O1  C1  C2  C3  H1  H2  H3  H4  
H5  H6  O1  C1  C2  C3  H1  H2  H3  H4  H5  H6  O1  C1  C2  C3  H1  H2  H3  H4  
H5  H6  O1  C1  C2  C3  H1  H2  H3  H4  H5  H6  O1  C1  C2  C3  H1  H2  H3  H4  
H5  H6  O1  C1  C2  C3  H1  H2  H3  H4  H5  H6  O1  C1  C2  C3  H1  H2  H3  H4  
H5  H6  O1  C1  C2  C3  H1  H2  H3  H4  H5  H6  O1  C1  C2  C3  H1  H2  H3  H4  
H5  H6  O1  C1  C2  C3  H1  H2  H3  H4  H5  H6  O1  C1  C2  C3  H1  H2  H3  H4  
H5  H6  O1  C1  C2  C3  H1  H2  H3  H4  H5  H6  O1  C1  C2  C3  H1  H2  H3  H4  
H5  H6  
%FLAG CHARGE                                                                    
%FORMAT(5E16.8)                                                                 
 -7.10305254E+00 -9.80541963E+00 -1.25551647E+01 -1.06236009E+01  4.62117528E+00
  5.53411251E+00  6.60558375E+00  3.19436919E+00  3.98703924E+00  3.98703924E+00
 -5.54504589E+00 -1.97711955E+00  3.85219422E+00 -4.22757360E+00 -2.74427838E+00
 -1.37213919E+00 -5.03299926E+00  1.06946679E+01 -2.20672053E+00 -2.20672053E+00
 -1.91334150E+00 -1.47600630E+00 -2.09556450E+00 -2.40534360E+00  9.46648485E-01
  9.46648485E-01  9.46648485E-01  9.46648485E-01  2.89734570E+00  2.58756660E+00
  2.76978960E+00  3.09779100E+00  8.17579934E-01  8.17579934E-01  8.17579934E-01
  8.17579934E-01  8.17579934E-01  8.17579934E-01  2.84267880E+00  2.91556800E+00
  2.49645510E+00  2.53289970E+00 -9.67786353E+00  1.02609771E+01 -3.71917143E+00
 -3.71917143E+00  1.14860624E+00  1.14860624E+00  1.14860624E+00  1.14860624E+00
  1.14860624E+00  1.14860624E+00 -9.67786353E+00  1.02609771E+01 -3.71917143E+00
 -3.71917143E+00  1.14860624E+00  1.14860624E+00  1.14860624E+00  1.14860624E+00
  1.14860624E+00  1.14860624E+00 -9.67786353E+00  1.02609771E+01 -3.71917143E+00
 -3.71917143E+00  1.14860624E+00  1.14860624E+00  1.14860624E+00  1.14860624E+00
  1.14860624E+00  1.14860624E+00 -9.67786353E+00  1.02609771E+01 -3.71917143E+00
 -3.71917143E+00  1.14860624E+00  1.14860624E+00  1.14860624E+00  1.14860624E+00
  1.14860624E+00  1.14860624E+00 -9.67786353E+00  1.02609771E+01 -3.71917143E+00
 -3.71917143E+00  1.14860624E+00  1.14860624E+00  1.14860624E+00  1.14860624E+00
  1.14860624E+00  1.14860624E+00 -9.67786353E+00  1.02609771E+01 -3.71917143E+00
 -3.71917143E+00  1.14860624E+00  1.14860624E+00  1.14860624E+00  1.14860624E+00
  1.14860624E+00  1.14860624E+00 -9.67786353E+00  1.02609771E+01 -3.71917143E+00
 -3.71917143E+00  1.14860624E+00  1.14860624E+00  1.14860624E+00  1.14860624E+00
  1.14860624E+00  1.14860624E+00 -9.67786353E+00  1.02609771E+01 -3.71917143E+00
 -3.71917143E+00  1.14860624E+00  1.14860624E+00  1.14860624E+00  1.14860624E+00
  1.14860624E+00  1.14860624E+00 -9.67786353E+00  1.02609771E+01 -3.71917143E+00
 -3.71917143E+00  1.14860624E+00  1.14860624E+00  1.14860624E+00  1.14860624E+00
  1.14860624E+00  1.14860624E+00 -9.67786353E+00  1.02609771E+01 -3.71917143E+00
 -3.71917143E+00  1.14860624E+00  1.14860624E+00  1.14860624E+00  1.14860624E+00
  1.14860624E+00  1.14860624E+00 -9.67786353E+00  1.02609771E+01 -3.71917143E+00
 -3.71917143E+00  1.14860624E+00  1.14860624E+00  1.14860624E+00  1.14860624E+00
  1.14860624E+00  1.14860624E+00 -9.67786353E+00  1.02609771E+01 -3.71917143E+00
 -3.71917143E+00  1.14860624E+00  1.14860624E+00  1.14860624E+00  1.14860624E+00
  1.14860624E+00  1.14860624E+00 -9.67786353E+00  1.02609771E+01 -3.71917143E+00
 -3.71917143E+00  1.14860624E+00  1.14860624E+00  1.14860624E+00  1.14860624E+00
  1.14860624E+00  1.14860624E+00 -9.67786353E+00  1.02609771E+01 -3.71917143E+00
 -3.71917143E+00  1.14860624E+00  1.14860624E+00  1.14860624E+00  1.14860624E+00
  1.14860624E+00  1.14860624E+00 -9.67786353E+00  1.02609771E+01 -3.71917143E+00
 -3.71917143E+00  1.14860624E+00  1.14860624E+00  1.14860624E+00  1.14860624E+00
  1.14860624E+00  1.14860624E+00 -9.67786353E+00  1.02609771E+01 -3.71917143E+00
 -3.71917143E+00  1.14860624E+00  1.14860624E+00  1.14860624E+00  1.14860624E+00
  1.14860624E+00  1.14860624E+00 -9.67786353E+00  1.02609771E+01 -3.71917143E+00
 -3.71917143E+00  1.14860624E+00  1.14860624E+00  1.14860624E+00  1.14860624E+00
  1.14860624E+00  1.14860624E+00 -9.67786353E+00  1.02609771E+01 -3.71917143E+00
 -3.71917143E+00  1.14860624E+00  1.14860624E+00  1.14860624E+00  1.14860624E+00
  1.14860624E+00  1.14860624E+00 -9.67786353E+00  1.02609771E+01 -3.71917143E+00
 -3.71917143E+00  1.14860624E+00  1.14860624E+00  1.14860624E+00  1.14860624E+00
  1.14860624E+00  1.14860624E+00 -9.67786353E+00  1.02609771E+01 -3.71917143E+00
 -3.71917143E+00  1.14860624E+00  1.14860624E+00  1.14860624E+00  1.14860624E+00
  1.14860624E+00  1.14860624E+00 -9.67786353E+00  1.02609771E+01 -3.71917143E+00
 -3.71917143E+00  1.14860624E+00  1.14860624E+00  1.14860624E+00  1.14860624E+00
  1.14860624E+00  1.14860624E+00 -9.67786353E+00  1.02609771E+01 -3.71917143E+00
 -3.71917143E+00  1.14860624E+00  1.14860624E+00  1.14860624E+00  1.14860624E+00
  1.14860624E+00  1.14860624E+00 -9.67786353E+00  1.02609771E+01 -3.71917143E+00
 -3.71917143E+00  1.14860624E+00  1.14860624E+00  1.14860624E+00  1.14860624E+00
  1.14860624E+00  1.14860624E+00 -9.67786353E+00  1.02609771E+01 -3.71917143E+00
 -3.71917143E+00  1.14860624E+00  1.14860624E+00  1.14860624E+00  1.14860624E+00
  1.14860624E+00  1.14860624E+00 -9.67786353E+00  1.02609771E+01 -3.71917143E+00
 -3.71917143E+00  1.14860624E+00  1.14860624E+00  1.14860624E+00  1.14860624E+00
  1.14860624E+00  1.14860624E+00 -9.67786353E+00  1.02609771E+01 -3.71917143E+00
 -3.71917143E+00  1.14860624E+00  1.14860624E+00  1.14860624E+00  1.14860624E+00
  1.14860624E+00  1.14860624E+00 -9.67786353E+00  1.02609771E+01 -3.71917143E+00
 -3.71917143E+00  1.14860624E+00  1.14860624E+00  1.14860624E+00  1.14860624E+00
  1.14860624E+00  1.14860624E+00 -9.67786353E+00  1.02609771E+01 -3.71917143E+00
 -3.71917143E+00  1.14860624E+00  1.14860624E+00  1.14860624E+00  1.14860624E+00
  1.14860624E+00  1.14860624E+00 -9.67786353E+00  1.02609771E+01 -3.71917143E+00
 -3.71917143E+00  1.14860624E+00  1.14860624E+00  1.14860624E+00  1.14860624E+00
  1.14860624E+00  1.14860624E+00 -9.67786353E+00  1.02609771E+01 -3.71917143E+00
 -3.71917143E+00  1.14860624E+00  1.14860624E+00  1.14860624E+00  1.14860624E+00
  1.14860624E+00  1.14860624E+00 -9.67786353E+00  1.02609771E+01 -3.71917143E+00
 -3.71917143E+00  1.14860624E+00  1.14860624E+00  1.14860624E+00  1.14860624E+00
  1.14860624E+00  1.14860624E+00 -9.67786353E+00  1.02609771E+01 -3.71917143E+00
 -3.71917143E+00  1.14860624E+00  1.14860624E+00  1.14860624E+00  1.14860624E+00
  1.14860624E+00  1.14860624E+00 -9.67786353E+00  1.02609771E+01 -3.71917143E+00
 -3.71917143E+00  1.14860624E+00  1.14860624E+00  1.14860624E+00  1.14860624E+00
  1.14860624E+00  1.14860624E+00 -9.67786353E+00  1.02609771E+01 -3.71917143E+00
 -3.71917143E+00  1.14860624E+00  1.14860624E+00  1.14860624E+00  1.14860624E+00
  1.14860624E+00  1.14860624E+00 -9.67786353E+00  1.02609771E+01 -3.71917143E+00
 -3.71917143E+00  1.14860624E+00  1.14860624E+00  1.14860624E+00  1.14860624E+00
  1.14860624E+00  1.14860624E+00 -9.67786353E+00  1.02609771E+01 -3.71917143E+00
 -3.71917143E+00  1.14860624E+00  1.14860624E+00  1.14860624E+00  1.14860624E+00
  1.14860624E+00  1.14860624E+00 -9.67786353E+00  1.02609771E+01 -3.71917143E+00
 -3.71917143E+00  1.14860624E+00  1.14860624E+00  1.14860624E+00  1.14860624E+00
  1.14860624E+00  1.14860624E+00 -9.67786353E+00  1.02609771E+01 -3.71917143E+00
 -3.71917143E+00  1.14860624E+00  1.14860624E+00  1.14860624E+00  1.14860624E+00
  1.14860624E+00  1.14860624E+00 -9.67786353E+00  1.02609771E+01 -3.71917143E+00
 -3.71917143E+00  1.14860624E+00  1.14860624E+00  1.14860624E+00  1.14860624E+00
  1.14860624E+00  1.14860624E+00 -9.67786353E+00  1.02609771E+01 -3.71917143E+00
 -3.71917143E+00  1.14860624E+00  1.14860624E+00  1.14860624E+00  1.14860624E+00
  1.14860624E+00  1.14860624E+00 -9.67786353E+00  1.02609771E+01 -3.71917143E+00
 -3.71917143E+00  1.14860624E+00  1.14860624E+00  1.14860624E+00  1.14860624E+00
  1.14860624E+00  1.14860624E+00 -9.67786353E+00  1.02609771E+01 -3.71917143E+00
 -3.71917143E+00  1.14860624E+00  1.14860624E+00  1.14860624E+00  1.14860624E+00
  1.14860624E+00  1.14860624E+00 -9.67786353E+00  1.02609771E+01 -3.71917143E+00
 -3.71917143E+00  1.14860624E+00  1.14860624E+00  1.14860624E+00  1.14860624E+00
  1.14860624E+00  1.14860624E+00 -9.67786353E+00  1.02609771E+01 -3.71917143E+00
 -3.71917143E+00  1.14860624E+00  1.14860624E+00  1.14860624E+00  1.14860624E+00
  1.14860624E+00  1.14860624E+00 -9.67786353E+00  1.02609771E+01 -3.71917143E+00
 -3.71917143E+00  1.14860624E+00  1.14860624E+00  1.14860624E+00  1.14860624E+00
  1.14860624E+00  1.14860624E+00 -9.67786353E+00  1.02609771E+01 -3.71917143E+00
 -3.71917143E+00  1.14860624E+00  1.14860624E+00  1.14860624E+00  1.14860624E+00
  1.14860624E+00  1.14860624E+00 -9.67786353E+00  1.02609771E+01 -3.71917143E+00
 -3.71917143E+00  1.14860624E+00  1.14860624E+00  1.14860624E+00  1.14860624E+00
  1.14860624E+00  1.14860624E+00 -9.67786353E+00  1.02609771E+01 -3.71917143E+00
 -3.71917143E+00  1.14860624E+00  1.14860624E+00  1.14860624E+00  1.14860624E+00
  1.14860624E+00  1.14860624E+00 -9.67786353E+00  1.02609771E+01 -3.71917143E+00
 -3.71917143E+00  1.14860624E+00  1.14860624E+00  1.14860624E+00  1.14860624E+00
  1.14860624E+00  1.14860624E+00 -9.67786353E+00  1.02609771E+01 -3.71917143E+00
 -3.71917143E+00  1.14860624E+00  1.14860624E+00  1.14860624E+00  1.14860624E+00
  1.14860624E+00  1.14860624E+00 -9.67786353E+00  1.02609771E+01 -3.71917143E+00
 -3.71917143E+00  1.14860624E+00  1.14860624E+00  1.14860624E+00  1.14860624E+00
  1.14860624E+00  1.14860624E+00 -9.67786353E+00  1.02609771E+01 -3.71917143E+00
 -3.71917143E+00  1.14860624E+00  1.14860624E+00  1.14860624E+00  1.14860624E+00
  1.14860624E+00  1.14860624E+00 -9.67786353E+00  1.02609771E+01 -3.71917143E+00
 -3.71917143E+00  1.14860624E+00  1.14860624E+00  1.14860624E+00  1.14860624E+00
  1.14860624E+00  1.14860624E+00 -9.67786353E+00  1.02609771E+01 -3.71917143E+00
 -3.71917143E+00  1.14860624E+00  1.14860624E+00  1.14860624E+00  1.14860624E+00
  1.14860624E+00  1.14860624E+00 -9.67786353E+00  1.02609771E+01 -3.71917143E+00
 -3.71917143E+00  1.14860624E+00  1.14860624E+00  1.14860624E+00  1.14860624E+00
  1.14860624E+00  1.14860624E+00 -9.67786353E+00  1.02609771E+01 -3.71917143E+00
 -3.71917143E+00  1.14860624E+00  1.14860624E+00  1.14860624E+00  1.14860624E+00
  1.14860624E+00  1.14860624E+00 -9.67786353E+00  1.02609771E+01 -3.71917143E+00
 -3.71917143E+00  1.14860624E+00  1.14860624E+00  1.14860624E+00  1.14860624E+00
  1.14860624E+00  1.14860624E+00 -9.67786353E+00  1.02609771E+01 -3.71917143E+00
 -3.71917143E+00  1.14860624E+00  1.14860624E+00  1.14860624E+00  1.14860624E+00
  1.14860624E+00  1.14860624E+00 -9.67786353E+00  1.02609771E+01 -3.71917143E+00
 -3.71917143E+00  1.14860624E+00  1.14860624E+00  1.14860624E+00  1.14860624E+00
  1.14860624E+00  1.14860624E+00 -9.67786353E+00  1.02609771E+01 -3.71917143E+00
 -3.71917143E+00  1.14860624E+00  1.14860624E+00  1.14860624E+00  1.14860624E+00
  1.14860624E+00  1.14860624E+00 -9.67786353E+00  1.02609771E+01 -3.71917143E+00
 -3.71917143E+00  1.14860624E+00  1.14860624E+00  1.14860624E+00  1.14860624E+00
  1.14860624E+00  1.14860624E+00 -9.67786353E+00  1.02609771E+01 -3.71917143E+00
 -3.71917143E+00  1.14860624E+00  1.14860624E+00  1.14860624E+00  1.14860624E+00
  1.14860624E+00  1.14860624E+00 -9.67786353E+00  1.02609771E+01 -3.71917143E+00
 -3.71917143E+00  1.14860624E+00  1.14860624E+00  1.14860624E+00  1.14860624E+00
  1.14860624E+00  1.14860624E+00 -9.67786353E+00  1.02609771E+01 -3.71917143E+00
 -3.71917143E+00  1.14860624E+00  1.14860624E+00  1.14860624E+00  1.14860624E+00
  1.14860624E+00  1.14860624E+00 -9.67786353E+00  1.02609771E+01 -3.71917143E+00
 -3.71917143E+00  1.14860624E+00  1.14860624E+00  1.14860624E+00  1.14860624E+00
  1.14860624E+00  1.14860624E+00 -9.67786353E+00  1.02609771E+01 -3.71917143E+00
 -3.71917143E+00  1.14860624E+00  1.14860624E+00  1.14860624E+00  1.14860624E+00
  1.14860624E+00  1.14860624E+00 -9.67786353E+00  1.02609771E+01 -3.71917143E+00
 -3.71917143E+00  1.14860624E+00  1.14860624E+00  1.14860624E+00  1.14860624E+00
  1.14860624E+00  1.14860624E+00 -9.67786353E+00  1.02609771E+01 -3.71917143E+00
 -3.71917143E+00  1.14860624E+00  1.14860624E+00  1.14860624E+00  1.14860624E+00
  1.14860624E+00  1.14860624E+00 -9.67786353E+00  1.02609771E+01 -3.71917143E+00
 -3.71917143E+00  1.14860624E+00  1.14860624E+00  1.14860624E+00  1.14860624E+00
  1.14860624E+00  1.14860624E+00 -9.67786353E+00  1.02609771E+01 -3.71917143E+00
 -3.71917143E+00  1.14860624E+00  1.14860624E+00  1.14860624E+00  1.14860624E+00
  1.14860624E+00  1.14860624E+00 -9.67786353E+00  1.02609771E+01 -3.71917143E+00
 -3.71917143E+00  1.14860624E+00  1.14860624E+00  1.14860624E+00  1.14860624E+00
  1.14860624E+00  1.14860624E+00 -9.67786353E+00  1.02609771E+01 -3.71917143E+00
 -3.71917143E+00  1.14860624E+00  1.14860624E+00  1.14860624E+00  1.14860624E+00
  1.14860624E+00  1.14860624E+00 -9.67786353E+00  1.02609771E+01 -3.71917143E+00
 -3.71917143E+00  1.14860624E+00  1.14860624E+00  1.14860624E+00  1.14860624E+00
  1.14860624E+00  1.14860624E+00 -9.67786353E+00  1.02609771E+01 -3.71917143E+00
 -3.71917143E+00  1.14860624E+00  1.14860624E+00  1.14860624E+00  1.14860624E+00
  1.14860624E+00  1.14860624E+00 -9.67786353E+00  1.02609771E+01 -3.71917143E+00
 -3.71917143E+00  1.14860624E+00  1.14860624E+00  1.14860624E+00  1.14860624E+00
  1.14860624E+00  1.14860624E+00 -9.67786353E+00  1.02609771E+01 -3.71917143E+00
 -3.71917143E+00  1.14860624E+00  1.14860624E+00  1.14860624E+00  1.14860624E+00
  1.14860624E+00  1.14860624E+00 -9.67786353E+00  1.02609771E+01 -3.71917143E+00
 -3.71917143E+00  1.14860624E+00  1.14860624E+00  1.14860624E+00  1.14860624E+00
  1.14860624E+00  1.14860624E+00 -9.67786353E+00  1.02609771E+01 -3.71917143E+00
 -3.71917143E+00  1.14860624E+00  1.14860624E+00  1.14860624E+00  1.14860624E+00
  1.14860624E+00  1.14860624E+00 -9.67786353E+00  1.02609771E+01 -3.71917143E+00
 -3.71917143E+00  1.14860624E+00  1.14860624E+00  1.14860624E+00  1.14860624E+00
  1.14860624E+00  1.14860624E+00 -9.67786353E+00  1.02609771E+01 -3.71917143E+00
 -3.71917143E+00  1.14860624E+00  1.14860624E+00  1.14860624E+00  1.14860624E+00
  1.14860624E+00  1.14860624E+00 -9.67786353E+00  1.02609771E+01 -3.71917143E+00
 -3.71917143E+00  1.14860624E+00  1.14860624E+00  1.14860624E+00  1.14860624E+00
  1.14860624E+00  1.14860624E+00 -9.67786353E+00  1.02609771E+01 -3.71917143E+00
 -3.71917143E+00  1.14860624E+00  1.14860624E+00  1.14860624E+00  1.14860624E+00
  1.14860624E+00  1.14860624E+00 -9.67786353E+00  1.02609771E+01 -3.71917143E+00
 -3.71917143E+00  1.14860624E+00  1.14860624E+00  1.14860624E+00  1.14860624E+00
  1.14860624E+00  1.14860624E+00 -9.67786353E+00  1.02609771E+01 -3.71917143E+00
 -3.71917143E+00  1.14860624E+00  1.14860624E+00  1.14860624E+00  1.14860624E+00
  1.14860624E+00  1.14860624E+00 -9.67786353E+00  1.02609771E+01 -3.71917143E+00
 -3.71917143E+00  1.14860624E+00  1.14860624E+00  1.14860624E+00  1.14860624E+00
  1.14860624E+00  1.14860624E+00 -9.67786353E+00  1.02609771E+01 -3.71917143E+00
 -3.71917143E+00  1.14860624E+00  1.14860624E+00  1.14860624E+00  1.14860624E+00
  1.14860624E+00  1.14860624E+00 -9.67786353E+00  1.02609771E+01 -3.71917143E+00
 -3.71917143E+00  1.14860624E+00  1.14860624E+00  1.14860624E+00  1.14860624E+00
  1.14860624E+00  1.14860624E+00 -9.67786353E+00  1.02609771E+01 -3.71917143E+00
 -3.71917143E+00  1.14860624E+00  1.14860624E+00  1.14860624E+00  1.14860624E+00
  1.14860624E+00  1.14860624E+00 -9.67786353E+00  1.02609771E+01 -3.71917143E+00
 -3.71917143E+00  1.14860624E+00  1.14860624E+00  1.14860624E+00  1.14860624E+00
  1.14860624E+00  1.14860624E+00 -9.67786353E+00  1.02609771E+01 -3.71917143E+00
 -3.71917143E+00  1.14860624E+00  1.14860624E+00  1.14860624E+00  1.14860624E+00
  1.14860624E+00  1.14860624E+00 -9.67786353E+00  1.02609771E+01 -3.71917143E+00
 -3.71917143E+00  1.14860624E+00  1.14860624E+00  1.14860624E+00  1.14860624E+00
  1.14860624E+00  1.14860624E+00 -9.67786353E+00  1.02609771E+01 -3.71917143E+00
 -3.71917143E+00  1.14860624E+00  1.14860624E+00  1.14860624E+00  1.14860624E+00
  1.14860624E+00  1.14860624E+00 -9.67786353E+00  1.02609771E+01 -3.71917143E+00
 -3.71917143E+00  1.14860624E+00  1.14860624E+00  1.14860624E+00  1.14860624E+00
  1.14860624E+00  1.14860624E+00 -9.67786353E+00  1.02609771E+01 -3.71917143E+00
 -3.71917143E+00  1.14860624E+00  1.14860624E+00  1.14860624E+00  1.14860624E+00
  1.14860624E+00  1.14860624E+00 -9.67786353E+00  1.02609771E+01 -3.71917143E+00
 -3.71917143E+00  1.14860624E+00  1.14860624E+00  1.14860624E+00  1.14860624E+00
  1.14860624E+00  1.14860624E+00 -9.67786353E+00  1.02609771E+01 -3.71917143E+00
 -3.71917143E+00  1.14860624E+00  1.14860624E+00  1.14860624E+00  1.14860624E+00
  1.14860624E+00  1.14860624E+00 -9.67786353E+00  1.02609771E+01 -3.71917143E+00
 -3.71917143E+00  1.14860624E+00  1.14860624E+00  1.14860624E+00  1.14860624E+00
  1.14860624E+00  1.14860624E+00 -9.67786353E+00  1.02609771E+01 -3.71917143E+00
 -3.71917143E+00  1.14860624E+00  1.14860624E+00  1.14860624E+00  1.14860624E+00
  1.14860624E+00  1.14860624E+00 -9.67786353E+00  1.02609771E+01 -3.71917143E+00
 -3.71917143E+00  1.14860624E+00  1.14860624E+00  1.14860624E+00  1.14860624E+00
  1.14860624E+00  1.14860624E+00 -9.67786353E+00  1.02609771E+01 -3.71917143E+00
 -3.71917143E+00  1.14860624E+00  1.14860624E+00  1.14860624E+00  1.14860624E+00
  1.14860624E+00  1.14860624E+00 -9.67786353E+00  1.02609771E+01 -3.71917143E+00
 -3.71917143E+00  1.14860624E+00  1.14860624E+00  1.14860624E+00  1.14860624E+00
  1.14860624E+00  1.14860624E+00 -9.67786353E+00  1.02609771E+01 -3.71917143E+00
 -3.71917143E+00  1.14860624E+00  1.14860624E+00  1.14860624E+00  1.14860624E+00
  1.14860624E+00  1.14860624E+00 -9.67786353E+00  1.02609771E+01 -3.71917143E+00
 -3.71917143E+00  1.14860624E+00  1.14860624E+00  1.14860624E+00  1.14860624E+00
  1.14860624E+00  1.14860624E+00 -9.67786353E+00  1.02609771E+01 -3.71917143E+00
 -3.71917143E+00  1.14860624E+00  1.14860624E+00  1.14860624E+00  1.14860624E+00
  1.14860624E+00  1.14860624E+00 -9.67786353E+00  1.02609771E+01 -3.71917143E+00
 -3.71917143E+00  1.14860624E+00  1.14860624E+00  1.14860624E+00  1.14860624E+00
  1.14860624E+00  1.14860624E+00 -9.67786353E+00  1.02609771E+01 -3.71917143E+00
 -3.71917143E+00  1.14860624E+00  1.14860624E+00  1.14860624E+00  1.14860624E+00
  1.14860624E+00  1.14860624E+00 -9.67786353E+00  1.02609771E+01 -3.71917143E+00
 -3.71917143E+00  1.14860624E+00  1.14860624E+00  1.14860624E+00  1.14860624E+00
  1.14860624E+00  1.14860624E+00 -9.67786353E+00  1.02609771E+01 -3.71917143E+00
 -3.71917143E+00  1.14860624E+00  1.14860624E+00  1.14860624E+00  1.14860624E+00
  1.14860624E+00  1.14860624E+00 -9.67786353E+00  1.02609771E+01 -3.71917143E+00
 -3.71917143E+00  1.14860624E+00  1.14860624E+00  1.14860624E+00  1.14860624E+00
  1.14860624E+00  1.14860624E+00 -9.67786353E+00  1.02609771E+01 -3.71917143E+00
 -3.71917143E+00  1.14860624E+00  1.14860624E+00  1.14860624E+00  1.14860624E+00
  1.14860624E+00  1.14860624E+00 -9.67786353E+00  1.02609771E+01 -3.71917143E+00
 -3.71917143E+00  1.14860624E+00  1.14860624E+00  1.14860624E+00  1.14860624E+00
  1.14860624E+00  1.14860624E+00 -9.67786353E+00  1.02609771E+01 -3.71917143E+00
 -3.71917143E+00  1.14860624E+00  1.14860624E+00  1.14860624E+00  1.14860624E+00
  1.14860624E+00  1.14860624E+00 -9.67786353E+00  1.02609771E+01 -3.71917143E+00
 -3.71917143E+00  1.14860624E+00  1.14860624E+00  1.14860624E+00  1.14860624E+00
  1.14860624E+00  1.14860624E+00 -9.67786353E+00  1.02609771E+01 -3.71917143E+00
 -3.71917143E+00  1.14860624E+00  1.14860624E+00  1.14860624E+00  1.14860624E+00
  1.14860624E+00  1.14860624E+00 -9.67786353E+00  1.02609771E+01 -3.71917143E+00
 -3.71917143E+00  1.14860624E+00  1.14860624E+00  1.14860624E+00  1.14860624E+00
  1.14860624E+00  1.14860624E+00 -9.67786353E+00  1.02609771E+01 -3.71917143E+00
 -3.71917143E+00  1.14860624E+00  1.14860624E+00  1.14860624E+00  1.14860624E+00
  1.14860624E+00  1.14860624E+00 -9.67786353E+00  1.02609771E+01 -3.71917143E+00
 -3.71917143E+00  1.14860624E+00  1.14860624E+00  1.14860624E+00  1.14860624E+00
  1.14860624E+00  1.14860624E+00 -9.67786353E+00  1.02609771E+01 -3.71917143E+00
 -3.71917143E+00  1.14860624E+00  1.14860624E+00  1.14860624E+00  1.14860624E+00
  1.14860624E+00  1.14860624E+00 -9.67786353E+00  1.02609771E+01 -3.71917143E+00
 -3.71917143E+00  1.14860624E+00  1.14860624E+00  1.14860624E+00  1.14860624E+00
  1.14860624E+00  1.14860624E+00 -9.67786353E+00  1.02609771E+01 -3.71917143E+00
 -3.71917143E+00  1.14860624E+00  1.14860624E+00  1.14860624E+00  1.14860624E+00
  1.14860624E+00  1.14860624E+00 -9.67786353E+00  1.02609771E+01 -3.71917143E+00
 -3.71917143E+00  1.14860624E+00  1.14860624E+00  1.14860624E+00  1.14860624E+00
  1.14860624E+00  1.14860624E+00 -9.67786353E+00  1.02609771E+01 -3.71917143E+00
 -3.71917143E+00  1.14860624E+00  1.14860624E+00  1.14860624E+00  1.14860624E+00
  1.14860624E+00  1.14860624E+00 -9.67786353E+00  1.02609771E+01 -3.71917143E+00
 -3.71917143E+00  1.14860624E+00  1.14860624E+00  1.14860624E+00  1.14860624E+00
  1.14860624E+00  1.14860624E+00 -9.67786353E+00  1.02609771E+01 -3.71917143E+00
 -3.71917143E+00  1.14860624E+00  1.14860624E+00  1.14860624E+00  1.14860624E+00
  1.14860624E+00  1.14860624E+00 -9.67786353E+00  1.02609771E+01 -3.71917143E+00
 -3.71917143E+00  1.14860624E+00  1.14860624E+00  1.14860624E+00  1.14860624E+00
  1.14860624E+00  1.14860624E+00 -9.67786353E+00  1.02609771E+01 -3.71917143E+00
 -3.71917143E+00  1.14860624E+00  1.14860624E+00  1.14860624E+00  1.14860624E+00
  1.14860624E+00  1.14860624E+00 -9.67786353E+00  1.02609771E+01 -3.71917143E+00
 -3.71917143E+00  1.14860624E+00  1.14860624E+00  1.14860624E+00  1.14860624E+00
  1.14860624E+00  1.14860624E+00 -9.67786353E+00  1.02609771E+01 -3.71917143E+00
 -3.71917143E+00  1.14860624E+00  1.14860624E+00  1.14860624E+00  1.14860624E+00
  1.14860624E+00  1.14860624E+00 -9.67786353E+00  1.02609771E+01 -3.71917143E+00
 -3.71917143E+00  1.14860624E+00  1.14860624E+00  1.14860624E+00  1.14860624E+00
  1.14860624E+00  1.14860624E+00 -9.67786353E+00  1.02609771E+01 -3.71917143E+00
 -3.71917143E+00  1.14860624E+00  1.14860624E+00  1.14860624E+00  1.14860624E+00
  1.14860624E+00  1.14860624E+00 -9.67786353E+00  1.02609771E+01 -3.71917143E+00
 -3.71917143E+00  1.14860624E+00  1.14860624E+00  1.14860624E+00  1.14860624E+00
  1.14860624E+00  1.14860624E+00 -9.67786353E+00  1.02609771E+01 -3.71917143E+00
 -3.71917143E+00  1.14860624E+00  1.14860624E+00  1.14860624E+00  1.14860624E+00
  1.14860624E+00  1.14860624E+00 -9.67786353E+00  1.02609771E+01 -3.71917143E+00
 -3.71917143E+00  1.14860624E+00  1.14860624E+00  1.14860624E+00  1.14860624E+00
  1.14860624E+00  1.14860624E+00 -9.67786353E+00  1.02609771E+01 -3.71917143E+00
 -3.71917143E+00  1.14860624E+00  1.14860624E+00  1.14860624E+00  1.14860624E+00
  1.14860624E+00  1.14860624E+00 -9.67786353E+00  1.02609771E+01 -3.71917143E+00
 -3.71917143E+00  1.14860624E+00  1.14860624E+00  1.14860624E+00  1.14860624E+00
  1.14860624E+00  1.14860624E+00 -9.67786353E+00  1.02609771E+01 -3.71917143E+00
 -3.71917143E+00  1.14860624E+00  1.14860624E+00  1.14860624E+00  1.14860624E+00
  1.14860624E+00  1.14860624E+00 -9.67786353E+00  1.02609771E+01 -3.71917143E+00
 -3.71917143E+00  1.14860624E+00  1.14860624E+00  1.14860624E+00  1.14860624E+00
  1.14860624E+00  1.14860624E+00 -9.67786353E+00  1.02609771E+01 -3.71917143E+00
 -3.71917143E+00  1.14860624E+00  1.14860624E+00  1.14860624E+00  1.14860624E+00
  1.14860624E+00  1.14860624E+00 -9.67786353E+00  1.02609771E+01 -3.71917143E+00
 -3.71917143E+00  1.14860624E+00  1.14860624E+00  1.14860624E+00  1.14860624E+00
  1.14860624E+00  1.14860624E+00 -9.67786353E+00  1.02609771E+01 -3.71917143E+00
 -3.71917143E+00  1.14860624E+00  1.14860624E+00  1.14860624E+00  1.14860624E+00
  1.14860624E+00  1.14860624E+00 -9.67786353E+00  1.02609771E+01 -3.71917143E+00
 -3.71917143E+00  1.14860624E+00  1.14860624E+00  1.14860624E+00  1.14860624E+00
  1.14860624E+00  1.14860624E+00 -9.67786353E+00  1.02609771E+01 -3.71917143E+00
 -3.71917143E+00  1.14860624E+00  1.14860624E+00  1.14860624E+00  1.14860624E+00
  1.14860624E+00  1.14860624E+00 -9.67786353E+00  1.02609771E+01 -3.71917143E+00
 -3.71917143E+00  1.14860624E+00  1.14860624E+00  1.14860624E+00  1.14860624E+00
  1.14860624E+00  1.14860624E+00 -9.67786353E+00  1.02609771E+01 -3.71917143E+00
 -3.71917143E+00  1.14860624E+00  1.14860624E+00  1.14860624E+00  1.14860624E+00
  1.14860624E+00  1.14860624E+00 -9.67786353E+00  1.02609771E+01 -3.71917143E+00
 -3.71917143E+00  1.14860624E+00  1.14860624E+00  1.14860624E+00  1.14860624E+00
  1.14860624E+00  1.14860624E+00 -9.67786353E+00  1.02609771E+01 -3.71917143E+00
 -3.71917143E+00  1.14860624E+00  1.14860624E+00  1.14860624E+00  1.14860624E+00
  1.14860624E+00  1.14860624E+00 -9.67786353E+00  1.02609771E+01 -3.71917143E+00
 -3.71917143E+00  1.14860624E+00  1.14860624E+00  1.14860624E+00  1.14860624E+00
  1.14860624E+00  1.14860624E+00 -9.67786353E+00  1.02609771E+01 -3.71917143E+00
 -3.71917143E+00  1.14860624E+00  1.14860624E+00  1.14860624E+00  1.14860624E+00
  1.14860624E+00  1.14860624E+00 -9.67786353E+00  1.02609771E+01 -3.71917143E+00
 -3.71917143E+00  1.14860624E+00  1.14860624E+00  1.14860624E+00  1.14860624E+00
  1.14860624E+00  1.14860624E+00 -9.67786353E+00  1.02609771E+01 -3.71917143E+00
 -3.71917143E+00  1.14860624E+00  1.14860624E+00  1.14860624E+00  1.14860624E+00
  1.14860624E+00  1.14860624E+00 -9.67786353E+00  1.02609771E+01 -3.71917143E+00
 -3.71917143E+00  1.14860624E+00  1.14860624E+00  1.14860624E+00  1.14860624E+00
  1.14860624E+00  1.14860624E+00 -9.67786353E+00  1.02609771E+01 -3.71917143E+00
 -3.71917143E+00  1.14860624E+00  1.14860624E+00  1.14860624E+00  1.14860624E+00
  1.14860624E+00  1.14860624E+00 -9.67786353E+00  1.02609771E+01 -3.71917143E+00
 -3.71917143E+00  1.14860624E+00  1.14860624E+00  1.14860624E+00  1.14860624E+00
  1.14860624E+00  1.14860624E+00 -9.67786353E+00  1.02609771E+01 -3.71917143E+00
 -3.71917143E+00  1.14860624E+00  1.14860624E+00  1.14860624E+00  1.14860624E+00
  1.14860624E+00  1.14860624E+00 -9.67786353E+00  1.02609771E+01 -3.71917143E+00
 -3.71917143E+00  1.14860624E+00  1.14860624E+00  1.14860624E+00  1.14860624E+00
  1.14860624E+00  1.14860624E+00 -9.67786353E+00  1.02609771E+01 -3.71917143E+00
 -3.71917143E+00  1.14860624E+00  1.14860624E+00  1.14860624E+00  1.14860624E+00
  1.14860624E+00  1.14860624E+00 -9.67786353E+00  1.02609771E+01 -3.71917143E+00
 -3.71917143E+00  1.14860624E+00  1.14860624E+00  1.14860624E+00  1.14860624E+00
  1.14860624E+00  1.14860624E+00 -9.67786353E+00  1.02609771E+01 -3.71917143E+00
 -3.71917143E+00  1.14860624E+00  1.14860624E+00  1.14860624E+00  1.14860624E+00
  1.14860624E+00  1.14860624E+00 -9.67786353E+00  1.02609771E+01 -3.71917143E+00
 -3.71917143E+00  1.14860624E+00  1.14860624E+00  1.14860624E+00  1.14860624E+00
  1.14860624E+00  1.14860624E+00 -9.67786353E+00  1.02609771E+01 -3.71917143E+00
 -3.71917143E+00  1.14860624E+00  1.14860624E+00  1.14860624E+00  1.14860624E+00
  1.14860624E+00  1.14860624E+00 -9.67786353E+00  1.02609771E+01 -3.71917143E+00
 -3.71917143E+00  1.14860624E+00  1.14860624E+00  1.14860624E+00  1.14860624E+00
  1.14860624E+00  1.14860624E+00 -9.67786353E+00  1.02609771E+01 -3.71917143E+00
 -3.71917143E+00  1.14860624E+00  1.14860624E+00  1.14860624E+00  1.14860624E+00
  1.14860624E+00  1.14860624E+00 -9.67786353E+00  1.02609771E+01 -3.71917143E+00
 -3.71917143E+00  1.14860624E+00  1.14860624E+00  1.14860624E+00  1.14860624E+00
  1.14860624E+00  1.14860624E+00 -9.67786353E+00  1.02609771E+01 -3.71917143E+00
 -3.71917143E+00  1.14860624E+00  1.14860624E+00  1.14860624E+00  1.14860624E+00
  1.14860624E+00  1.14860624E+00 -9.67786353E+00  1.02609771E+01 -3.71917143E+00
 -3.71917143E+00  1.14860624E+00  1.14860624E+00  1.14860624E+00  1.14860624E+00
  1.14860624E+00  1.14860624E+00 -9.67786353E+00  1.02609771E+01 -3.71917143E+00
 -3.71917143E+00  1.14860624E+00  1.14860624E+00  1.14860624E+00  1.14860624E+00
  1.14860624E+00  1.14860624E+00 -9.67786353E+00  1.02609771E+01 -3.71917143E+00
 -3.71917143E+00  1.14860624E+00  1.14860624E+00  1.14860624E+00  1.14860624E+00
  1.14860624E+00  1.14860624E+00 -9.67786353E+00  1.02609771E+01 -3.71917143E+00
 -3.71917143E+00  1.14860624E+00  1.14860624E+00  1.14860624E+00  1.14860624E+00
  1.14860624E+00  1.14860624E+00 -9.67786353E+00  1.02609771E+01 -3.71917143E+00
 -3.71917143E+00  1.14860624E+00  1.14860624E+00  1.14860624E+00  1.14860624E+00
  1.14860624E+00  1.14860624E+00 -9.67786353E+00  1.02609771E+01 -3.71917143E+00
 -3.71917143E+00  1.14860624E+00  1.14860624E+00  1.14860624E+00  1.14860624E+00
  1.14860624E+00  1.14860624E+00 -9.67786353E+00  1.02609771E+01 -3.71917143E+00
 -3.71917143E+00  1.14860624E+00  1.14860624E+00  1.14860624E+00  1.14860624E+00
  1.14860624E+00  1.14860624E+00 -9.67786353E+00  1.02609771E+01 -3.71917143E+00
 -3.71917143E+00  1.14860624E+00  1.14860624E+00  1.14860624E+00  1.14860624E+00
  1.14860624E+00  1.14860624E+00 -9.67786353E+00  1.02609771E+01 -3.71917143E+00
 -3.71917143E+00  1.14860624E+00  1.14860624E+00  1.14860624E+00  1.14860624E+00
  1.14860624E+00  1.14860624E+00 -9.67786353E+00  1.02609771E+01 -3.71917143E+00
 -3.71917143E+00  1.14860624E+00  1.14860624E+00  1.14860624E+00  1.14860624E+00
  1.14860624E+00  1.14860624E+00 -9.67786353E+00  1.02609771E+01 -3.71917143E+00
 -3.71917143E+00  1.14860624E+00  1.14860624E+00  1.14860624E+00  1.14860624E+00
  1.14860624E+00  1.14860624E+00 -9.67786353E+00  1.02609771E+01 -3.71917143E+00
 -3.71917143E+00  1.14860624E+00  1.14860624E+00  1.14860624E+00  1.14860624E+00
  1.14860624E+00  1.14860624E+00 -9.67786353E+00  1.02609771E+01 -3.71917143E+00
 -3.71917143E+00  1.14860624E+00  1.14860624E+00  1.14860624E+00  1.14860624E+00
  1.14860624E+00  1.14860624E+00 -9.67786353E+00  1.02609771E+01 -3.71917143E+00
 -3.71917143E+00  1.14860624E+00  1.14860624E+00  1.14860624E+00  1.14860624E+00
  1.14860624E+00  1.14860624E+00 -9.67786353E+00  1.02609771E+01 -3.71917143E+00
 -3.71917143E+00  1.14860624E+00  1.14860624E+00  1.14860624E+00  1.14860624E+00
  1.14860624E+00  1.14860624E+00 -9.67786353E+00  1.02609771E+01 -3.71917143E+00
 -3.71917143E+00  1.14860624E+00  1.14860624E+00  1.14860624E+00  1.14860624E+00
  1.14860624E+00  1.14860624E+00 -9.67786353E+00  1.02609771E+01 -3.71917143E+00
 -3.71917143E+00  1.14860624E+00  1.14860624E+00  1.14860624E+00  1.14860624E+00
  1.14860624E+00  1.14860624E+00 -9.67786353E+00  1.02609771E+01 -3.71917143E+00
 -3.71917143E+00  1.14860624E+00  1.14860624E+00  1.14860624E+00  1.14860624E+00
  1.14860624E+00  1.14860624E+00 -9.67786353E+00  1.02609771E+01 -3.71917143E+00
 -3.71917143E+00  1.14860624E+00  1.14860624E+00  1.14860624E+00  1.14860624E+00
  1.14860624E+00  1.14860624E+00 -9.67786353E+00  1.02609771E+01 -3.71917143E+00
 -3.71917143E+00  1.14860624E+00  1.14860624E+00  1.14860624E+00  1.14860624E+00
  1.14860624E+00  1.14860624E+00 -9.67786353E+00  1.02609771E+01 -3.71917143E+00
 -3.71917143E+00  1.14860624E+00  1.14860624E+00  1.14860624E+00  1.14860624E+00
  1.14860624E+00  1.14860624E+00 -9.67786353E+00  1.02609771E+01 -3.71917143E+00
 -3.71917143E+00  1.14860624E+00  1.14860624E+00  1.14860624E+00  1.14860624E+00
  1.14860624E+00  1.14860624E+00 -9.67786353E+00  1.02609771E+01 -3.71917143E+00
 -3.71917143E+00  1.14860624E+00  1.14860624E+00  1.14860624E+00  1.14860624E+00
  1.14860624E+00  1.14860624E+00 -9.67786353E+00  1.02609771E+01 -3.71917143E+00
 -3.71917143E+00  1.14860624E+00  1.14860624E+00  1.14860624E+00  1.14860624E+00
  1.14860624E+00  1.14860624E+00 -9.67786353E+00  1.02609771E+01 -3.71917143E+00
 -3.71917143E+00  1.14860624E+00  1.14860624E+00  1.14860624E+00  1.14860624E+00
  1.14860624E+00  1.14860624E+00 -9.67786353E+00  1.02609771E+01 -3.71917143E+00
 -3.71917143E+00  1.14860624E+00  1.14860624E+00  1.14860624E+00  1.14860624E+00
  1.14860624E+00  1.14860624E+00 -9.67786353E+00  1.02609771E+01 -3.71917143E+00
 -3.71917143E+00  1.14860624E+00  1.14860624E+00  1.14860624E+00  1.14860624E+00
  1.14860624E+00  1.14860624E+00 -9.67786353E+00  1.02609771E+01 -3.71917143E+00
 -3.71917143E+00  1.14860624E+00  1.14860624E+00  1.14860624E+00  1.14860624E+00
  1.14860624E+00  1.14860624E+00 -9.67786353E+00  1.02609771E+01 -3.71917143E+00
 -3.71917143E+00  1.14860624E+00  1.14860624E+00  1.14860624E+00  1.14860624E+00
  1.14860624E+00  1.14860624E+00 -9.67786353E+00  1.02609771E+01 -3.71917143E+00
 -3.71917143E+00  1.14860624E+00  1.14860624E+00  1.14860624E+00  1.14860624E+00
  1.14860624E+00  1.14860624E+00 -9.67786353E+00  1.02609771E+01 -3.71917143E+00
 -3.71917143E+00  1.14860624E+00  1.14860624E+00  1.14860624E+00  1.14860624E+00
  1.14860624E+00  1.14860624E+00 -9.67786353E+00  1.02609771E+01 -3.71917143E+00
 -3.71917143E+00  1.14860624E+00  1.14860624E+00  1.14860624E+00  1.14860624E+00
  1.14860624E+00  1.14860624E+00 -9.67786353E+00  1.02609771E+01 -3.71917143E+00
 -3.71917143E+00  1.14860624E+00  1.14860624E+00  1.14860624E+00  1.14860624E+00
  1.14860624E+00  1.14860624E+00 -9.67786353E+00  1.02609771E+01 -3.71917143E+00
 -3.71917143E+00  1.14860624E+00  1.14860624E+00  1.14860624E+00  1.14860624E+00
  1.14860624E+00  1.14860624E+00 -9.67786353E+00  1.02609771E+01 -3.71917143E+00
 -3.71917143E+00  1.14860624E+00  1.14860624E+00  1.14860624E+00  1.14860624E+00
  1.14860624E+00  1.14860624E+00 -9.67786353E+00  1.02609771E+01 -3.71917143E+00
 -3.71917143E+00  1.14860624E+00  1.14860624E+00  1.14860624E+00  1.14860624E+00
  1.14860624E+00  1.14860624E+00 -9.67786353E+00  1.02609771E+01 -3.71917143E+00
 -3.71917143E+00  1.14860624E+00  1.14860624E+00  1.14860624E+00  1.14860624E+00
  1.14860624E+00  1.14860624E+00 -9.67786353E+00  1.02609771E+01 -3.71917143E+00
 -3.71917143E+00  1.14860624E+00  1.14860624E+00  1.14860624E+00  1.14860624E+00
  1.14860624E+00  1.14860624E+00 -9.67786353E+00  1.02609771E+01 -3.71917143E+00
 -3.71917143E+00  1.14860624E+00  1.14860624E+00  1.14860624E+00  1.14860624E+00
  1.14860624E+00  1.14860624E+00 -9.67786353E+00  1.02609771E+01 -3.71917143E+00
 -3.71917143E+00  1.14860624E+00  1.14860624E+00  1.14860624E+00  1.14860624E+00
  1.14860624E+00  1.14860624E+00 -9.67786353E+00  1.02609771E+01 -3.71917143E+00
 -3.71917143E+00  1.14860624E+00  1.14860624E+00  1.14860624E+00  1.14860624E+00
  1.14860624E+00  1.14860624E+00 -9.67786353E+00  1.02609771E+01 -3.71917143E+00
 -3.71917143E+00  1.14860624E+00  1.14860624E+00  1.14860624E+00  1.14860624E+00
  1.14860624E+00  1.14860624E+00 -9.67786353E+00  1.02609771E+01 -3.71917143E+00
 -3.71917143E+00  1.14860624E+00  1.14860624E+00  1.14860624E+00  1.14860624E+00
  1.14860624E+00  1.14860624E+00 -9.67786353E+00  1.02609771E+01 -3.71917143E+00
 -3.71917143E+00  1.14860624E+00  1.14860624E+00  1.14860624E+00  1.14860624E+00
  1.14860624E+00  1.14860624E+00 -9.67786353E+00  1.02609771E+01 -3.71917143E+00
 -3.71917143E+00  1.14860624E+00  1.14860624E+00  1.14860624E+00  1.14860624E+00
  1.14860624E+00  1.14860624E+00 -9.67786353E+00  1.02609771E+01 -3.71917143E+00
 -3.71917143E+00  1.14860624E+00  1.14860624E+00  1.14860624E+00  1.14860624E+00
  1.14860624E+00  1.14860624E+00 -9.67786353E+00  1.02609771E+01 -3.71917143E+00
 -3.71917143E+00  1.14860624E+00  1.14860624E+00  1.14860624E+00  1.14860624E+00
  1.14860624E+00  1.14860624E+00 -9.67786353E+00  1.02609771E+01 -3.71917143E+00
 -3.71917143E+00  1.14860624E+00  1.14860624E+00  1.14860624E+00  1.14860624E+00
  1.14860624E+00  1.14860624E+00 -9.67786353E+00  1.02609771E+01 -3.71917143E+00
 -3.71917143E+00  1.14860624E+00  1.14860624E+00  1.14860624E+00  1.14860624E+00
  1.14860624E+00  1.14860624E+00 -9.67786353E+00  1.02609771E+01 -3.71917143E+00
 -3.71917143E+00  1.14860624E+00  1.14860624E+00  1.14860624E+00  1.14860624E+00
  1.14860624E+00  1.14860624E+00 -9.67786353E+00  1.02609771E+01 -3.71917143E+00
 -3.71917143E+00  1.14860624E+00  1.14860624E+00  1.14860624E+00  1.14860624E+00
  1.14860624E+00  1.14860624E+00 -9.67786353E+00  1.02609771E+01 -3.71917143E+00
 -3.71917143E+00  1.14860624E+00  1.14860624E+00  1.14860624E+00  1.14860624E+00
  1.14860624E+00  1.14860624E+00 -9.67786353E+00  1.02609771E+01 -3.71917143E+00
 -3.71917143E+00  1.14860624E+00  1.14860624E+00  1.14860624E+00  1.14860624E+00
  1.14860624E+00  1.14860624E+00 -9.67786353E+00  1.02609771E+01 -3.71917143E+00
 -3.71917143E+00  1.14860624E+00  1.14860624E+00  1.14860624E+00  1.14860624E+00
  1.14860624E+00  1.14860624E+00 -9.67786353E+00  1.02609771E+01 -3.71917143E+00
 -3.71917143E+00  1.14860624E+00  1.14860624E+00  1.14860624E+00  1.14860624E+00
  1.14860624E+00  1.14860624E+00 -9.67786353E+00  1.02609771E+01 -3.71917143E+00
 -3.71917143E+00  1.14860624E+00  1.14860624E+00  1.14860624E+00  1.14860624E+00
  1.14860624E+00  1.14860624E+00 -9.67786353E+00  1.02609771E+01 -3.71917143E+00
 -3.71917143E+00  1.14860624E+00  1.14860624E+00  1.14860624E+00  1.14860624E+00
  1.14860624E+00  1.14860624E+00 -9.67786353E+00  1.02609771E+01 -3.71917143E+00
 -3.71917143E+00  1.14860624E+00  1.14860624E+00  1.14860624E+00  1.14860624E+00
  1.14860624E+00  1.14860624E+00 -9.67786353E+00  1.02609771E+01 -3.71917143E+00
 -3.71917143E+00  1.14860624E+00  1.14860624E+00  1.14860624E+00  1.14860624E+00
  1.14860624E+00  1.14860624E+00 -9.67786353E+00  1.02609771E+01 -3.71917143E+00
 -3.71917143E+00  1.14860624E+00  1.14860624E+00  1.14860624E+00  1.14860624E+00
  1.14860624E+00  1.14860624E+00 -9.67786353E+00  1.02609771E+01 -3.71917143E+00
 -3.71917143E+00  1.14860624E+00  1.14860624E+00  1.14860624E+00  1.14860624E+00
  1.14860624E+00  1.14860624E+00 -9.67786353E+00  1.02609771E+01 -3.71917143E+00
 -3.71917143E+00  1.14860624E+00  1.14860624E+00  1.14860624E+00  1.14860624E+00
  1.14860624E+00  1.14860624E+00 -9.67786353E+00  1.02609771E+01 -3.71917143E+00
 -3.71917143E+00  1.14860624E+00  1.14860624E+00  1.14860624E+00  1.14860624E+00
  1.14860624E+00  1.14860624E+00 -9.67786353E+00  1.02609771E+01 -3.71917143E+00
 -3.71917143E+00  1.14860624E+00  1.14860624E+00  1.14860624E+00  1.14860624E+00
  1.14860624E+00  1.14860624E+00 -9.67786353E+00  1.02609771E+01 -3.71917143E+00
 -3.71917143E+00  1.14860624E+00  1.14860624E+00  1.14860624E+00  1.14860624E+00
  1.14860624E+00  1.14860624E+00 -9.67786353E+00  1.02609771E+01 -3.71917143E+00
 -3.71917143E+00  1.14860624E+00  1.14860624E+00  1.14860624E+00  1.14860624E+00
  1.14860624E+00  1.14860624E+00 -9.67786353E+00  1.02609771E+01 -3.71917143E+00
 -3.71917143E+00  1.14860624E+00  1.14860624E+00  1.14860624E+00  1.14860624E+00
  1.14860624E+00  1.14860624E+00 -9.67786353E+00  1.02609771E+01 -3.71917143E+00
 -3.71917143E+00  1.14860624E+00  1.14860624E+00  1.14860624E+00  1.14860624E+00
  1.14860624E+00  1.14860624E+00 -9.67786353E+00  1.02609771E+01 -3.71917143E+00
 -3.71917143E+00  1.14860624E+00  1.14860624E+00  1.14860624E+00  1.14860624E+00
  1.14860624E+00  1.14860624E+00 -9.67786353E+00  1.02609771E+01 -3.71917143E+00
 -3.71917143E+00  1.14860624E+00  1.14860624E+00  1.14860624E+00  1.14860624E+00
  1.14860624E+00  1.14860624E+00 -9.67786353E+00  1.02609771E+01 -3.71917143E+00
 -3.71917143E+00  1.14860624E+00  1.14860624E+00  1.14860624E+00  1.14860624E+00
  1.14860624E+00  1.14860624E+00 -9.67786353E+00  1.02609771E+01 -3.71917143E+00
 -3.71917143E+00  1.14860624E+00  1.14860624E+00  1.14860624E+00  1.14860624E+00
  1.14860624E+00  1.14860624E+00 -9.67786353E+00  1.02609771E+01 -3.71917143E+00
 -3.71917143E+00  1.14860624E+00  1.14860624E+00  1.14860624E+00  1.14860624E+00
  1.14860624E+00  1.14860624E+00 -9.67786353E+00  1.02609771E+01 -3.71917143E+00
 -3.71917143E+00  1.14860624E+00  1.14860624E+00  1.14860624E+00  1.14860624E+00
  1.14860624E+00  1.14860624E+00 -9.67786353E+00  1.02609771E+01 -3.71917143E+00
 -3.71917143E+00  1.14860624E+00  1.14860624E+00  1.14860624E+00  1.14860624E+00
  1.14860624E+00  1.14860624E+00 -9.67786353E+00  1.02609771E+01 -3.71917143E+00
 -3.71917143E+00  1.14860624E+00  1.14860624E+00  1.14860624E+00  1.14860624E+00
  1.14860624E+00  1.14860624E+00 -9.67786353E+00  1.02609771E+01 -3.71917143E+00
 -3.71917143E+00  1.14860624E+00  1.14860624E+00  1.14860624E+00  1.14860624E+00
  1.14860624E+00  1.14860624E+00 -9.67786353E+00  1.02609771E+01 -3.71917143E+00
 -3.71917143E+00  1.14860624E+00  1.14860624E+00  1.14860624E+00  1.14860624E+00
  1.14860624E+00  1.14860624E+00 -9.67786353E+00  1.02609771E+01 -3.71917143E+00
 -3.71917143E+00  1.14860624E+00  1.14860624E+00  1.14860624E+00  1.14860624E+00
  1.14860624E+00  1.14860624E+00 -9.67786353E+00  1.02609771E+01 -3.71917143E+00
 -3.71917143E+00  1.14860624E+00  1.14860624E+00  1.14860624E+00  1.14860624E+00
  1.14860624E+00  1.14860624E+00 -9.67786353E+00  1.02609771E+01 -3.71917143E+00
 -3.71917143E+00  1.14860624E+00  1.14860624E+00  1.14860624E+00  1.14860624E+00
  1.14860624E+00  1.14860624E+00 -9.67786353E+00  1.02609771E+01 -3.71917143E+00
 -3.71917143E+00  1.14860624E+00  1.14860624E+00  1.14860624E+00  1.14860624E+00
  1.14860624E+00  1.14860624E+00 -9.67786353E+00  1.02609771E+01 -3.71917143E+00
 -3.71917143E+00  1.14860624E+00  1.14860624E+00  1.14860624E+00  1.14860624E+00
  1.14860624E+00  1.14860624E+00 -9.67786353E+00  1.02609771E+01 -3.71917143E+00
 -3.71917143E+00  1.14860624E+00  1.14860624E+00  1.14860624E+00  1.14860624E+00
  1.14860624E+00  1.14860624E+00 -9.67786353E+00  1.02609771E+01 -3.71917143E+00
 -3.71917143E+00  1.14860624E+00  1.14860624E+00  1.14860624E+00  1.14860624E+00
  1.14860624E+00  1.14860624E+00 -9.67786353E+00  1.02609771E+01 -3.71917143E+00
 -3.71917143E+00  1.14860624E+00  1.14860624E+00  1.14860624E+00  1.14860624E+00
  1.14860624E+00  1.14860624E+00 -9.67786353E+00  1.02609771E+01 -3.71917143E+00
 -3.71917143E+00  1.14860624E+00  1.14860624E+00  1.14860624E+00  1.14860624E+00
  1.14860624E+00  1.14860624E+00 -9.67786353E+00  1.02609771E+01 -3.71917143E+00
 -3.71917143E+00  1.14860624E+00  1.14860624E+00  1.14860624E+00  1.14860624E+00
  1.14860624E+00  1.14860624E+00 -9.67786353E+00  1.02609771E+01 -3.71917143E+00
 -3.71917143E+00  1.14860624E+00  1.14860624E+00  1.14860624E+00  1.14860624E+00
  1.14860624E+00  1.14860624E+00 -9.67786353E+00  1.02609771E+01 -3.71917143E+00
 -3.71917143E+00  1.14860624E+00  1.14860624E+00  1.14860624E+00  1.14860624E+00
  1.14860624E+00  1.14860624E+00 -9.67786353E+00  1.02609771E+01 -3.71917143E+00
 -3.71917143E+00  1.14860624E+00  1.14860624E+00  1.14860624E+00  1.14860624E+00
  1.14860624E+00  1.14860624E+00 -9.67786353E+00  1.02609771E+01 -3.71917143E+00
 -3.71917143E+00  1.14860624E+00  1.14860624E+00  1.14860624E+00  1.14860624E+00
  1.14860624E+00  1.14860624E+00 -9.67786353E+00  1.02609771E+01 -3.71917143E+00
 -3.71917143E+00  1.14860624E+00  1.14860624E+00  1.14860624E+00  1.14860624E+00
  1.14860624E+00  1.14860624E+00 -9.67786353E+00  1.02609771E+01 -3.71917143E+00
 -3.71917143E+00  1.14860624E+00  1.14860624E+00  1.14860624E+00  1.14860624E+00
  1.14860624E+00  1.14860624E+00 -9.67786353E+00  1.02609771E+01 -3.71917143E+00
 -3.71917143E+00  1.14860624E+00  1.14860624E+00  1.14860624E+00  1.14860624E+00
  1.14860624E+00  1.14860624E+00 -9.67786353E+00  1.02609771E+01 -3.71917143E+00
 -3.71917143E+00  1.14860624E+00  1.14860624E+00  1.14860624E+00  1.14860624E+00
  1.14860624E+00  1.14860624E+00 -9.67786353E+00  1.02609771E+01 -3.71917143E+00
 -3.71917143E+00  1.14860624E+00  1.14860624E+00  1.14860624E+00  1.14860624E+00
  1.14860624E+00  1.14860624E+00 -9.67786353E+00  1.02609771E+01 -3.71917143E+00
 -3.71917143E+00  1.14860624E+00  1.14860624E+00  1.14860624E+00  1.14860624E+00
  1.14860624E+00  1.14860624E+00 -9.67786353E+00  1.02609771E+01 -3.71917143E+00
 -3.71917143E+00  1.14860624E+00  1.14860624E+00  1.14860624E+00  1.14860624E+00
  1.14860624E+00  1.14860624E+00 -9.67786353E+00  1.02609771E+01 -3.71917143E+00
 -3.71917143E+00  1.14860624E+00  1.14860624E+00  1.14860624E+00  1.14860624E+00
  1.14860624E+00  1.14860624E+00 -9.67786353E+00  1.02609771E+01 -3.71917143E+00
 -3.71917143E+00  1.14860624E+00  1.14860624E+00  1.14860624E+00  1.14860624E+00
  1.14860624E+00  1.14860624E+00 -9.67786353E+00  1.02609771E+01 -3.71917143E+00
 -3.71917143E+00  1.14860624E+00  1.14860624E+00  1.14860624E+00  1.14860624E+00
  1.14860624E+00  1.14860624E+00 -9.67786353E+00  1.02609771E+01 -3.71917143E+00
 -3.71917143E+00  1.14860624E+00  1.14860624E+00  1.14860624E+00  1.14860624E+00
  1.14860624E+00  1.14860624E+00 -9.67786353E+00  1.02609771E+01 -3.71917143E+00
 -3.71917143E+00  1.14860624E+00  1.14860624E+00  1.14860624E+00  1.14860624E+00
  1.14860624E+00  1.14860624E+00 -9.67786353E+00  1.02609771E+01 -3.71917143E+00
 -3.71917143E+00  1.14860624E+00  1.14860624E+00  1.14860624E+00  1.14860624E+00
  1.14860624E+00  1.14860624E+00 -9.67786353E+00  1.02609771E+01 -3.71917143E+00
 -3.71917143E+00  1.14860624E+00  1.14860624E+00  1.14860624E+00  1.14860624E+00
  1.14860624E+00  1.14860624E+00 -9.67786353E+00  1.02609771E+01 -3.71917143E+00
 -3.71917143E+00  1.14860624E+00  1.14860624E+00  1.14860624E+00  1.14860624E+00
  1.14860624E+00  1.14860624E+00 -9.67786353E+00  1.02609771E+01 -3.71917143E+00
 -3.71917143E+00  1.14860624E+00  1.14860624E+00  1.14860624E+00  1.14860624E+00
  1.14860624E+00  1.14860624E+00 -9.67786353E+00  1.02609771E+01 -3.71917143E+00
 -3.71917143E+00  1.14860624E+00  1.14860624E+00  1.14860624E+00  1.14860624E+00
  1.14860624E+00  1.14860624E+00 -9.67786353E+00  1.02609771E+01 -3.71917143E+00
 -3.71917143E+00  1.14860624E+00  1.14860624E+00  1.14860624E+00  1.14860624E+00
  1.14860624E+00  1.14860624E+00 -9.67786353E+00  1.02609771E+01 -3.71917143E+00
 -3.71917143E+00  1.14860624E+00  1.14860624E+00  1.14860624E+00  1.14860624E+00
  1.14860624E+00  1.14860624E+00 -9.67786353E+00  1.02609771E+01 -3.71917143E+00
 -3.71917143E+00  1.14860624E+00  1.14860624E+00  1.14860624E+00  1.14860624E+00
  1.14860624E+00  1.14860624E+00 -9.67786353E+00  1.02609771E+01 -3.71917143E+00
 -3.71917143E+00  1.14860624E+00  1.14860624E+00  1.14860624E+00  1.14860624E+00
  1.14860624E+00  1.14860624E+00 -9.67786353E+00  1.02609771E+01 -3.71917143E+00
 -3.71917143E+00  1.14860624E+00  1.14860624E+00  1.14860624E+00  1.14860624E+00
  1.14860624E+00  1.14860624E+00 -9.67786353E+00  1.02609771E+01 -3.71917143E+00
 -3.71917143E+00  1.14860624E+00  1.14860624E+00  1.14860624E+00  1.14860624E+00
  1.14860624E+00  1.14860624E+00 -9.67786353E+00  1.02609771E+01 -3.71917143E+00
 -3.71917143E+00  1.14860624E+00  1.14860624E+00  1.14860624E+00  1.14860624E+00
  1.14860624E+00  1.14860624E+00 -9.67786353E+00  1.02609771E+01 -3.71917143E+00
 -3.71917143E+00  1.14860624E+00  1.14860624E+00  1.14860624E+00  1.14860624E+00
  1.14860624E+00  1.14860624E+00 -9.67786353E+00  1.02609771E+01 -3.71917143E+00
 -3.71917143E+00  1.14860624E+00  1.14860624E+00  1.14860624E+00  1.14860624E+00
  1.14860624E+00  1.14860624E+00 -9.67786353E+00  1.02609771E+01 -3.71917143E+00
 -3.71917143E+00  1.14860624E+00  1.14860624E+00  1.14860624E+00  1.14860624E+00
  1.14860624E+00  1.14860624E+00 -9.67786353E+00  1.02609771E+01 -3.71917143E+00
 -3.71917143E+00  1.14860624E+00  1.14860624E+00  1.14860624E+00  1.14860624E+00
  1.14860624E+00  1.14860624E+00 -9.67786353E+00  1.02609771E+01 -3.71917143E+00
 -3.71917143E+00  1.14860624E+00  1.14860624E+00  1.14860624E+00  1.14860624E+00
  1.14860624E+00  1.14860624E+00 -9.67786353E+00  1.02609771E+01 -3.71917143E+00
 -3.71917143E+00  1.14860624E+00  1.14860624E+00  1.14860624E+00  1.14860624E+00
  1.14860624E+00  1.14860624E+00 -9.67786353E+00  1.02609771E+01 -3.71917143E+00
 -3.71917143E+00  1.14860624E+00  1.14860624E+00  1.14860624E+00  1.14860624E+00
  1.14860624E+00  1.14860624E+00 -9.67786353E+00  1.02609771E+01 -3.71917143E+00
 -3.71917143E+00  1.14860624E+00  1.14860624E+00  1.14860624E+00  1.14860624E+00
  1.14860624E+00  1.14860624E+00 -9.67786353E+00  1.02609771E+01 -3.71917143E+00
 -3.71917143E+00  1.14860624E+00  1.14860624E+00  1.14860624E+00  1.14860624E+00
  1.14860624E+00  1.14860624E+00 -9.67786353E+00  1.02609771E+01 -3.71917143E+00
 -3.71917143E+00  1.14860624E+00  1.14860624E+00  1.14860624E+00  1.14860624E+00
  1.14860624E+00  1.14860624E+00 -9.67786353E+00  1.02609771E+01 -3.71917143E+00
 -3.71917143E+00  1.14860624E+00  1.14860624E+00  1.14860624E+00  1.14860624E+00
  1.14860624E+00  1.14860624E+00 -9.67786353E+00  1.02609771E+01 -3.71917143E+00
 -3.71917143E+00  1.14860624E+00  1.14860624E+00  1.14860624E+00  1.14860624E+00
  1.14860624E+00  1.14860624E+00 -9.67786353E+00  1.02609771E+01 -3.71917143E+00
 -3.71917143E+00  1.14860624E+00  1.14860624E+00  1.14860624E+00  1.14860624E+00
  1.14860624E+00  1.14860624E+00 -9.67786353E+00  1.02609771E+01 -3.71917143E+00
 -3.71917143E+00  1.14860624E+00  1.14860624E+00  1.14860624E+00  1.14860624E+00
  1.14860624E+00  1.14860624E+00 -9.67786353E+00  1.02609771E+01 -3.71917143E+00
 -3.71917143E+00  1.14860624E+00  1.14860624E+00  1.14860624E+00  1.14860624E+00
  1.14860624E+00  1.14860624E+00 -9.67786353E+00  1.02609771E+01 -3.71917143E+00
 -3.71917143E+00  1.14860624E+00  1.14860624E+00  1.14860624E+00  1.14860624E+00
  1.14860624E+00  1.14860624E+00 -9.67786353E+00  1.02609771E+01 -3.71917143E+00
 -3.71917143E+00  1.14860624E+00  1.14860624E+00  1.14860624E+00  1.14860624E+00
  1.14860624E+00  1.14860624E+00 -9.67786353E+00  1.02609771E+01 -3.71917143E+00
 -3.71917143E+00  1.14860624E+00  1.14860624E+00  1.14860624E+00  1.14860624E+00
  1.14860624E+00  1.14860624E+00 -9.67786353E+00  1.02609771E+01 -3.71917143E+00
 -3.71917143E+00  1.14860624E+00  1.14860624E+00  1.14860624E+00  1.14860624E+00
  1.14860624E+00  1.14860624E+00 -9.67786353E+00  1.02609771E+01 -3.71917143E+00
 -3.71917143E+00  1.14860624E+00  1.14860624E+00  1.14860624E+00  1.14860624E+00
  1.14860624E+00  1.14860624E+00 -9.67786353E+00  1.02609771E+01 -3.71917143E+00
 -3.71917143E+00  1.14860624E+00  1.14860624E+00  1.14860624E+00  1.14860624E+00
  1.14860624E+00  1.14860624E+00 -9.67786353E+00  1.02609771E+01 -3.71917143E+00
 -3.71917143E+00  1.14860624E+00  1.14860624E+00  1.14860624E+00  1.14860624E+00
  1.14860624E+00  1.14860624E+00 -9.67786353E+00  1.02609771E+01 -3.71917143E+00
 -3.71917143E+00  1.14860624E+00  1.14860624E+00  1.14860624E+00  1.14860624E+00
  1.14860624E+00  1.14860624E+00 -9.67786353E+00  1.02609771E+01 -3.71917143E+00
 -3.71917143E+00  1.14860624E+00  1.14860624E+00  1.14860624E+00  1.14860624E+00
  1.14860624E+00  1.14860624E+00 -9.67786353E+00  1.02609771E+01 -3.71917143E+00
 -3.71917143E+00  1.14860624E+00  1.14860624E+00  1.14860624E+00  1.14860624E+00
  1.14860624E+00  1.14860624E+00 -9.67786353E+00  1.02609771E+01 -3.71917143E+00
 -3.71917143E+00  1.14860624E+00  1.14860624E+00  1.14860624E+00  1.14860624E+00
  1.14860624E+00  1.14860624E+00 -9.67786353E+00  1.02609771E+01 -3.71917143E+00
 -3.71917143E+00  1.14860624E+00  1.14860624E+00  1.14860624E+00  1.14860624E+00
  1.14860624E+00  1.14860624E+00 -9.67786353E+00  1.02609771E+01 -3.71917143E+00
 -3.71917143E+00  1.14860624E+00  1.14860624E+00  1.14860624E+00  1.14860624E+00
  1.14860624E+00  1.14860624E+00 -9.67786353E+00  1.02609771E+01 -3.71917143E+00
 -3.71917143E+00  1.14860624E+00  1.14860624E+00  1.14860624E+00  1.14860624E+00
  1.14860624E+00  1.14860624E+00 -9.67786353E+00  1.02609771E+01 -3.71917143E+00
 -3.71917143E+00  1.14860624E+00  1.14860624E+00  1.14860624E+00  1.14860624E+00
  1.14860624E+00  1.14860624E+00 -9.67786353E+00  1.02609771E+01 -3.71917143E+00
 -3.71917143E+00  1.14860624E+00  1.14860624E+00  1.14860624E+00  1.14860624E+00
  1.14860624E+00  1.14860624E+00 -9.67786353E+00  1.02609771E+01 -3.71917143E+00
 -3.71917143E+00  1.14860624E+00  1.14860624E+00  1.14860624E+00  1.14860624E+00
  1.14860624E+00  1.14860624E+00 -9.67786353E+00  1.02609771E+01 -3.71917143E+00
 -3.71917143E+00  1.14860624E+00  1.14860624E+00  1.14860624E+00  1.14860624E+00
  1.14860624E+00  1.14860624E+00 -9.67786353E+00  1.02609771E+01 -3.71917143E+00
 -3.71917143E+00  1.14860624E+00  1.14860624E+00  1.14860624E+00  1.14860624E+00
  1.14860624E+00  1.14860624E+00 -9.67786353E+00  1.02609771E+01 -3.71917143E+00
 -3.71917143E+00  1.14860624E+00  1.14860624E+00  1.14860624E+00  1.14860624E+00
  1.14860624E+00  1.14860624E+00 -9.67786353E+00  1.02609771E+01 -3.71917143E+00
 -3.71917143E+00  1.14860624E+00  1.14860624E+00  1.14860624E+00  1.14860624E+00
  1.14860624E+00  1.14860624E+00 -9.67786353E+00  1.02609771E+01 -3.71917143E+00
 -3.71917143E+00  1.14860624E+00  1.14860624E+00  1.14860624E+00  1.14860624E+00
  1.14860624E+00  1.14860624E+00 -9.67786353E+00  1.02609771E+01 -3.71917143E+00
 -3.71917143E+00  1.14860624E+00  1.14860624E+00  1.14860624E+00  1.14860624E+00
  1.14860624E+00  1.14860624E+00 -9.67786353E+00  1.02609771E+01 -3.71917143E+00
 -3.71917143E+00  1.14860624E+00  1.14860624E+00  1.14860624E+00  1.14860624E+00
  1.14860624E+00  1.14860624E+00 -9.67786353E+00  1.02609771E+01 -3.71917143E+00
 -3.71917143E+00  1.14860624E+00  1.14860624E+00  1.14860624E+00  1.14860624E+00
  1.14860624E+00  1.14860624E+00 -9.67786353E+00  1.02609771E+01 -3.71917143E+00
 -3.71917143E+00  1.14860624E+00  1.14860624E+00  1.14860624E+00  1.14860624E+00
  1.14860624E+00  1.14860624E+00 -9.67786353E+00  1.02609771E+01 -3.71917143E+00
 -3.71917143E+00  1.14860624E+00  1.14860624E+00  1.14860624E+00  1.14860624E+00
  1.14860624E+00  1.14860624E+00 -9.67786353E+00  1.02609771E+01 -3.71917143E+00
 -3.71917143E+00  1.14860624E+00  1.14860624E+00  1.14860624E+00  1.14860624E+00
  1.14860624E+00  1.14860624E+00 -9.67786353E+00  1.02609771E+01 -3.71917143E+00
 -3.71917143E+00  1.14860624E+00  1.14860624E+00  1.14860624E+00  1.14860624E+00
  1.14860624E+00  1.14860624E+00 -9.67786353E+00  1.02609771E+01 -3.71917143E+00
 -3.71917143E+00  1.14860624E+00  1.14860624E+00  1.14860624E+00  1.14860624E+00
  1.14860624E+00  1.14860624E+00 -9.67786353E+00  1.02609771E+01 -3.71917143E+00
 -3.71917143E+00  1.14860624E+00  1.14860624E+00  1.14860624E+00  1.14860624E+00
  1.14860624E+00  1.14860624E+00 -9.67786353E+00  1.02609771E+01 -3.71917143E+00
 -3.71917143E+00  1.14860624E+00  1.14860624E+00  1.14860624E+00  1.14860624E+00
  1.14860624E+00  1.14860624E+00 -9.67786353E+00  1.02609771E+01 -3.71917143E+00
 -3.71917143E+00  1.14860624E+00  1.14860624E+00  1.14860624E+00  1.14860624E+00
  1.14860624E+00  1.14860624E+00 -9.67786353E+00  1.02609771E+01 -3.71917143E+00
 -3.71917143E+00  1.14860624E+00  1.14860624E+00  1.14860624E+00  1.14860624E+00
  1.14860624E+00  1.14860624E+00 -9.67786353E+00  1.02609771E+01 -3.71917143E+00
 -3.71917143E+00  1.14860624E+00  1.14860624E+00  1.14860624E+00  1.14860624E+00
  1.14860624E+00  1.14860624E+00 -9.67786353E+00  1.02609771E+01 -3.71917143E+00
 -3.71917143E+00  1.14860624E+00  1.14860624E+00  1.14860624E+00  1.14860624E+00
  1.14860624E+00  1.14860624E+00 -9.67786353E+00  1.02609771E+01 -3.71917143E+00
 -3.71917143E+00  1.14860624E+00  1.14860624E+00  1.14860624E+00  1.14860624E+00
  1.14860624E+00  1.14860624E+00 -9.67786353E+00  1.02609771E+01 -3.71917143E+00
 -3.71917143E+00  1.14860624E+00  1.14860624E+00  1.14860624E+00  1.14860624E+00
  1.14860624E+00  1.14860624E+00 -9.67786353E+00  1.02609771E+01 -3.71917143E+00
 -3.71917143E+00  1.14860624E+00  1.14860624E+00  1.14860624E+00  1.14860624E+00
  1.14860624E+00  1.14860624E+00 -9.67786353E+00  1.02609771E+01 -3.71917143E+00
 -3.71917143E+00  1.14860624E+00  1.14860624E+00  1.14860624E+00  1.14860624E+00
  1.14860624E+00  1.14860624E+00 -9.67786353E+00  1.02609771E+01 -3.71917143E+00
 -3.71917143E+00  1.14860624E+00  1.14860624E+00  1.14860624E+00  1.14860624E+00
  1.14860624E+00  1.14860624E+00 -9.67786353E+00  1.02609771E+01 -3.71917143E+00
 -3.71917143E+00  1.14860624E+00  1.14860624E+00  1.14860624E+00  1.14860624E+00
  1.14860624E+00  1.14860624E+00 -9.67786353E+00  1.02609771E+01 -3.71917143E+00
 -3.71917143E+00  1.14860624E+00  1.14860624E+00  1.14860624E+00  1.14860624E+00
  1.14860624E+00  1.14860624E+00 -9.67786353E+00  1.02609771E+01 -3.71917143E+00
 -3.71917143E+00  1.14860624E+00  1.14860624E+00  1.14860624E+00  1.14860624E+00
  1.14860624E+00  1.14860624E+00 -9.67786353E+00  1.02609771E+01 -3.71917143E+00
 -3.71917143E+00  1.14860624E+00  1.14860624E+00  1.14860624E+00  1.14860624E+00
  1.14860624E+00  1.14860624E+00
%FLAG ATOMIC_NUMBER                                                             
%FORMAT(10I8)                                                                   
       8       8       7       7       6       6       6       6       6       6
       6       6       6       6       6       6       6       6       6       6
       6       6       6       6       1       1       1       1       1       1
       1       1       1       1       1       1       1       1       1       1
       1       1       8       6       6       6       1       1       1       1
       1       1       8       6       6       6       1       1       1       1
       1       1       8       6       6       6       1       1       1       1
       1       1       8       6       6       6       1       1       1       1
       1       1       8       6       6       6       1       1       1       1
       1       1       8       6       6       6       1       1       1       1
       1       1       8       6       6       6       1       1       1       1
       1       1       8       6       6       6       1       1       1       1
       1       1       8       6       6       6       1       1       1       1
       1       1       8       6       6       6       1       1       1       1
       1       1       8       6       6       6       1       1       1       1
       1       1       8       6       6       6       1       1       1       1
       1       1       8       6       6       6       1       1       1       1
       1       1       8       6       6       6       1       1       1       1
       1       1       8       6       6       6       1       1       1       1
       1       1       8       6       6       6       1       1       1       1
       1       1       8       6       6       6       1       1       1       1
       1       1       8       6       6       6       1       1       1       1
       1       1       8       6       6       6       1       1       1       1
       1       1       8       6       6       6       1       1       1       1
       1       1       8       6       6       6       1       1       1       1
       1       1       8       6       6       6       1       1       1       1
       1       1       8       6       6       6       1       1       1       1
       1       1       8       6       6       6       1       1       1       1
       1       1       8       6       6       6       1       1       1       1
       1       1       8       6       6       6       1       1       1       1
       1       1       8       6       6       6       1       1       1       1
       1       1       8       6       6       6       1       1       1       1
       1       1       8       6       6       6       1       1       1       1
       1       1       8       6       6       6       1       1       1       1
       1       1       8       6       6       6       1       1       1       1
       1       1       8       6       6       6       1       1       1       1
       1       1       8       6       6       6       1       1       1       1
       1       1       8       6       6       6       1       1       1       1
       1       1       8       6       6       6       1       1       1       1
       1       1       8       6       6       6       1       1       1       1
       1       1       8       6       6       6       1       1       1       1
       1       1       8       6       6       6       1       1       1       1
       1       1       8       6       6       6       1       1       1       1
       1       1       8       6       6       6       1       1       1       1
       1       1       8       6       6       6       1       1       1       1
       1       1       8       6       6       6       1       1       1       1
       1       1       8       6       6       6       1       1       1       1
       1       1       8       6       6       6       1       1       1       1
       1       1       8       6       6       6       1       1       1       1
       1       1       8       6       6       6       1       1       1       1
       1       1       8       6       6       6       1       1       1       1
       1       1       8       6       6       6       1       1       1       1
       1       1       8       6       6       6       1       1       1       1
       1       1       8       6       6       6       1       1       1       1
       1       1       8       6       6       6       1       1       1       1
       1       1       8       6       6       6       1       1       1       1
       1       1       8       6       6       6       1       1       1       1
       1       1       8       6       6       6       1       1       1       1
       1       1       8       6       6       6       1       1       1       1
       1       1       8       6       6       6       1       1       1       1
       1       1       8       6       6       6       1       1       1       1
       1       1       8       6       6       6       1       1       1       1
       1       1       8       6       6       6       1       1       1       1
       1       1       8       6       6       6       1       1       1       1
       1       1       8       6       6       6       1       1       1       1
       1       1       8       6       6       6       1       1       1       1
       1       1       8       6       6       6       1       1       1       1
       1       1       8       6       6       6       1       1       1       1
       1       1       8       6       6       6       1       1       1       1
       1       1       8       6       6       6       1       1       1       1
       1       1       8       6       6       6       1       1       1       1
       1       1       8       6       6       6       1       1       1       1
       1       1       8       6       6       6       1       1       1       1
       1       1       8       6       6       6       1       1       1       1
       1       1       8       6       6       6       1       1       1       1
       1       1       8       6       6       6       1       1       1       1
       1       1       8       6       6       6       1       1       1       1
       1       1       8       6       6       6       1       1       1       1
       1       1       8       6       6       6       1       1       1       1
       1       1       8       6       6       6       1       1       1       1
       1       1       8       6       6       6       1       1       1       1
       1       1       8       6       6       6       1       1       1       1
       1       1       8       6       6       6       1       1       1       1
       1       1       8       6       6       6       1       1       1       1
       1       1       8       6       6       6       1       1       1       1
       1       1       8       6       6       6       1       1       1       1
       1       1       8       6       6       6       1       1       1       1
       1       1       8       6       6       6       1       1       1       1
       1       1       8       6       6       6       1       1       1       1
       1       1       8       6       6       6       1       1       1       1
       1       1       8       6       6       6       1       1       1       1
       1       1       8       6       6       6       1       1       1       1
       1       1       8       6       6       6       1       1       1       1
       1       1       8       6       6       6       1       1       1       1
       1       1       8       6       6       6       1       1       1       1
       1       1       8       6       6       6       1       1       1       1
       1       1       8       6       6       6       1       1       1       1
       1       1       8       6       6       6       1       1       1       1
       1       1       8       6       6       6       1       1       1       1
       1       1       8       6       6       6       1       1       1       1
       1       1       8       6       6       6       1       1       1       1
       1       1       8       6       6       6       1       1       1       1
       1       1       8       6       6       6       1       1       1       1
       1       1       8       6       6       6       1       1       1       1
       1       1       8       6       6       6       1       1       1       1
       1       1       8       6       6       6       1       1       1       1
       1       1       8       6       6       6       1       1       1       1
       1       1       8       6       6       6       1       1       1       1
       1       1       8       6       6       6       1       1       1       1
       1       1       8       6       6       6       1       1       1       1
       1       1       8       6       6       6       1       1       1       1
       1       1       8       6       6       6       1       1       1       1
       1       1       8       6       6       6       1       1       1       1
       1       1       8       6       6       6       1       1       1       1
       1       1       8       6       6       6       1       1       1       1
       1       1       8       6       6       6       1       1       1       1
       1       1       8       6       6       6       1       1       1       1
       1       1       8       6       6       6       1       1       1       1
       1       1       8       6       6       6       1       1       1       1
       1       1       8       6       6       6       1       1       1       1
       1       1       8       6       6       6       1       1       1       1
       1       1       8       6       6       6       1       1       1       1
       1       1       8       6       6       6       1       1       1       1
       1       1       8       6       6       6       1       1       1       1
       1       1       8       6       6       6       1       1       1       1
       1       1       8       6       6       6       1       1       1       1
       1       1       8       6       6       6       1       1       1       1
       1       1       8       6       6       6       1       1       1       1
       1       1       8       6       6       6       1       1       1       1
       1       1       8       6       6       6       1       1       1       1
       1       1       8       6       6       6       1       1       1       1
       1       1       8       6       6       6       1       1       1       1
       1       1       8       6       6       6       1       1       1       1
       1       1       8       6       6       6       1       1       1       1
       1       1       8       6       6       6       1       1       1       1
       1       1       8       6       6       6       1       1       1       1
       1       1       8       6       6       6       1       1       1       1
       1       1       8       6       6       6       1       1       1       1
       1       1       8       6       6       6       1       1       1       1
       1       1       8       6       6       6       1       1       1       1
       1       1       8       6       6       6       1       1       1       1
       1       1       8       6       6       6       1       1       1       1
       1       1       8       6       6       6       1       1       1       1
       1       1       8       6       6       6       1       1       1       1
       1       1       8       6       6       6       1       1       1       1
       1       1       8       6       6       6       1       1       1       1
       1       1       8       6       6       6       1       1       1       1
       1       1       8       6       6       6       1       1       1       1
       1       1       8       6       6       6       1       1       1       1
       1       1       8       6       6       6       1       1       1       1
       1       1       8       6       6       6       1       1       1       1
       1       1       8       6       6       6       1       1       1       1
       1       1       8       6       6       6       1       1       1       1
       1       1       8       6       6       6       1       1       1       1
       1       1       8       6       6       6       1       1       1       1
       1       1       8       6       6       6       1       1       1       1
       1       1       8       6       6       6       1       1       1       1
       1       1       8       6       6       6       1       1       1       1
       1       1       8       6       6       6       1       1       1       1
       1       1       8       6       6       6       1       1       1       1
       1       1       8       6       6       6       1       1       1       1
       1       1       8       6       6       6       1       1       1       1
       1       1       8       6       6       6       1       1       1       1
       1       1       8       6       6       6       1       1       1       1
       1       1       8       6       6       6       1       1       1       1
       1       1       8       6       6       6       1       1       1       1
       1       1       8       6       6       6       1       1       1       1
       1       1       8       6       6       6       1       1       1       1
       1       1       8       6       6       6       1       1       1       1
       1       1       8       6       6       6       1       1       1       1
       1       1       8       6       6       6       1       1       1       1
       1       1       8       6       6       6       1       1       1       1
       1       1       8       6       6       6       1       1       1       1
       1       1       8       6       6       6       1       1       1       1
       1       1       8       6       6       6       1       1       1       1
       1       1       8       6       6       6       1       1       1       1
       1       1       8       6       6       6       1       1       1       1
       1       1       8       6       6       6       1       1       1       1
       1       1       8       6       6       6       1       1       1       1
       1       1       8       6       6       6       1       1       1       1
       1       1       8       6       6       6       1       1       1       1
       1       1       8       6       6       6       1       1       1       1
       1       1       8       6       6       6       1       1       1       1
       1       1       8       6       6       6       1       1       1       1
       1       1       8       6       6       6       1       1       1       1
       1       1       8       6       6       6       1       1       1       1
       1       1       8       6       6       6       1       1       1       1
       1       1       8       6       6       6       1       1       1       1
       1       1       8       6       6       6       1       1       1       1
       1       1       8       6       6       6       1       1       1       1
       1       1       8       6       6       6       1       1       1       1
       1       1       8       6       6       6       1       1       1       1
       1       1       8       6       6       6       1       1       1       1
       1       1       8       6       6       6       1       1       1       1
       1       1       8       6       6       6       1       1       1       1
       1       1       8       6       6       6       1       1       1       1
       1       1       8       6       6       6       1       1       1       1
       1       1       8       6       6       6       1       1       1       1
       1       1       8       6       6       6       1       1       1       1
       1       1       8       6       6       6       1       1       1       1
       1       1       8       6       6       6       1       1       1       1
       1       1       8       6       6       6       1       1       1       1
       1       1       8       6       6       6       1       1       1       1
       1       1       8       6       6       6       1       1       1       1
       1       1       8       6       6       6       1       1       1       1
       1       1       8       6       6       6       1       1       1       1
       1       1       8       6       6       6       1       1       1       1
       1       1       8       6       6       6       1       1       1       1
       1       1       8       6       6       6       1       1       1       1
       1       1       8       6       6       6       1       1       1       1
       1       1       8       6       6       6       1       1       1       1
       1       1       8       6       6       6       1       1       1       1
       1       1       8       6       6       6       1       1       1       1
       1       1       8       6       6       6       1       1       1       1
       1       1       8       6       6       6       1       1       1       1
       1       1       8       6       6       6       1       1       1       1
       1       1       8       6       6       6       1       1       1       1
       1       1       8       6       6       6       1       1       1       1
       1       1       8       6       6       6       1       1       1       1
       1       1       8       6       6       6       1       1       1       1
       1       1       8       6       6       6       1       1       1       1
       1       1       8       6       6       6       1       1       1       1
       1       1       8       6       6       6       1       1       1       1
       1       1       8       6       6       6       1       1       1       1
       1       1       8       6       6       6       1       1       1       1
       1       1       8       6       6       6       1       1       1       1
       1       1       8       6       6       6       1       1       1       1
       1       1       8       6       6       6       1       1       1       1
       1       1       8       6       6       6       1       1       1       1
       1       1       8       6       6       6       1       1       1       1
       1       1       8       6       6       6       1       1       1       1
       1       1       8       6       6       6       1       1       1       1
       1       1       8       6       6       6       1       1       1       1
       1       1       8       6       6       6       1       1       1       1
       1       1       8       6       6       6       1       1       1       1
       1       1       8       6       6       6       1       1       1       1
       1       1       8       6       6       6       1       1       1       1
       1       1       8       6       6       6       1       1       1       1
       1       1       8       6       6       6       1       1       1       1
       1       1       8       6       6       6       1       1       1       1
       1       1       8       6       6       6       1       1       1       1
       1       1       8       6       6       6       1       1       1       1
       1       1       8       6       6       6       1       1       1       1
       1       1       8       6       6       6       1       1       1       1
       1       1       8       6       6       6       1       1       1       1
       1       1       8       6       6       6       1       1       1       1
       1       1       8       6       6       6       1       1       1       1
       1       1       8       6       6       6       1       1       1       1
       1       1       8       6       6       6       1       1       1       1
       1       1       8       6       6       6       1       1       1       1
       1       1       8       6       6       6       1       1       1       1
       1       1       8       6       6       6       1       1       1       1
       1       1       8       6       6       6       1       1       1       1
       1       1       8       6       6       6       1       1       1       1
       1       1       8       6       6       6       1       1       1       1
       1       1       8       6       6       6       1       1       1       1
       1       1       8       6       6       6       1       1       1       1
       1       1       8       6       6       6       1       1       1       1
       1       1       8       6       6       6       1       1       1       1
       1       1       8       6       6       6       1       1       1       1
       1       1       8       6       6       6       1       1       1       1
       1       1       8       6       6       6       1       1       1       1
       1       1       8       6       6       6       1       1       1       1
       1       1       8       6       6       6       1       1       1       1
       1       1       8       6       6       6       1       1       1       1
       1       1       8       6       6       6       1       1       1       1
       1       1       8       6       6       6       1       1       1       1
       1       1       8       6       6       6       1       1       1       1
       1       1       8       6       6       6       1       1       1       1
       1       1       8       6       6       6       1       1       1       1
       1       1       8       6       6       6       1       1       1       1
       1       1       8       6       6       6       1       1       1       1
       1       1       8       6       6       6       1       1       1       1
       1       1       8       6       6       6       1       1       1       1
       1       1       8       6       6       6       1       1       1       1
       1       1       8       6       6       6       1       1       1       1
       1       1       8       6       6       6       1       1       1       1
       1       1       8       6       6       6       1       1       1       1
       1       1       8       6       6       6       1       1       1       1
       1       1       8       6       6       6       1       1       1       1
       1       1       8       6       6       6       1       1       1       1
       1       1       8       6       6       6       1       1       1       1
       1       1       8       6       6       6       1       1       1       1
       1       1       8       6       6       6       1       1       1       1
       1       1       8       6       6       6       1       1       1       1
       1       1       8       6       6       6       1       1       1       1
       1       1       8       6       6       6       1       1       1       1
       1       1       8       6       6       6       1       1       1       1
       1       1       8       6       6       6       1       1       1       1
       1       1       8       6       6       6       1       1       1       1
       1       1       8       6       6       6       1       1       1       1
       1       1       8       6       6       6       1       1       1       1
       1       1       8       6       6       6       1       1       1       1
       1       1       8       6       6       6       1       1       1       1
       1       1       8       6       6       6       1       1       1       1
       1       1       8       6       6       6       1       1       1       1
       1       1       8       6       6       6       1       1       1       1
       1       1       8       6       6       6       1       1       1       1
       1       1       8       6       6       6       1       1       1       1
       1       1       8       6       6       6       1       1       1       1
       1       1       8       6       6       6       1       1       1       1
       1       1       8       6       6       6       1       1       1       1
       1       1       8       6       6       6       1       1       1       1
       1       1       8       6       6       6       1       1       1       1
       1       1       8       6       6       6       1       1       1       1
       1       1       8       6       6       6       1       1       1       1
       1       1       8       6       6       6       1       1       1       1
       1       1       8       6       6       6       1       1       1       1
       1       1       8       6       6       6       1       1       1       1
       1       1       8       6       6       6       1       1       1       1
       1       1       8       6       6       6       1       1       1       1
       1       1       8       6       6       6       1       1       1       1
       1       1       8       6       6       6       1       1       1       1
       1       1       8       6       6       6       1       1       1       1
       1       1       8       6       6       6       1       1       1       1
       1       1       8       6       6       6       1       1       1       1
       1       1       8       6       6       6       1       1       1       1
       1       1       8       6       6       6       1       1       1       1
       1       1       8       6       6       6       1       1       1       1
       1       1       8       6       6       6       1       1       1       1
       1       1       8       6       6       6       1       1       1       1
       1       1       8       6       6       6       1       1       1       1
       1       1       8       6       6       6       1       1       1       1
       1       1       8       6       6       6       1       1       1       1
       1       1       8       6       6       6       1       1       1       1
       1       1       8       6       6       6       1       1       1       1
       1       1       8       6       6       6       1       1       1       1
       1       1       8       6       6       6       1       1       1       1
       1       1       8       6       6       6       1       1       1       1
       1       1       8       6       6       6       1       1       1       1
       1       1       8       6       6       6       1       1       1       1
       1       1       8       6       6       6       1       1       1       1
       1       1       8       6       6       6       1       1       1       1
       1       1       8       6       6       6       1       1       1       1
       1       1       8       6       6       6       1       1       1       1
       1       1       8       6       6       6       1       1       1       1
       1       1       8       6       6       6       1       1       1       1
       1       1       8       6       6       6       1       1       1       1
       1       1       8       6       6       6       1       1       1       1
       1       1       8       6       6       6       1       1       1       1
       1       1       8       6       6       6       1       1       1       1
       1       1       8       6       6       6       1       1       1       1
       1       1       8       6       6       6       1       1       1       1
       1       1       8       6       6       6       1       1       1       1
       1       1
%FLAG MASS                                                                      
%FORMAT(5E16.8)                                                                 
  1.60000000E+01  1.60000000E+01  1.40100000E+01  1.40100000E+01  1.20100000E+01
  1.20100000E+01  1.20100000E+01  1.20100000E+01  1.20100000E+01  1.20100000E+01
  1.20100000E+01  1.20100000E+01  1.20100000E+01  1.20100000E+01  1.20100000E+01
  1.20100000E+01  1.20100000E+01  1.20100000E+01  1.20100000E+01  1.20100000E+01
  1.20100000E+01  1.20100000E+01  1.20100000E+01  1.20100000E+01  1.00800000E+00
  1.00800000E+00  1.00800000E+00  1.00800000E+00  1.00800000E+00  1.00800000E+00
  1.00800000E+00  1.00800000E+00  1.00800000E+00  1.00800000E+00  1.00800000E+00
  1.00800000E+00  1.00800000E+00  1.00800000E+00  1.00800000E+00  1.00800000E+00
  1.00800000E+00  1.00800000E+00  1.60000000E+01  1.20100000E+01  1.20100000E+01
  1.20100000E+01  1.00800000E+00  1.00800000E+00  1.00800000E+00  1.00800000E+00
  1.00800000E+00  1.00800000E+00  1.60000000E+01  1.20100000E+01  1.20100000E+01
  1.20100000E+01  1.00800000E+00  1.00800000E+00  1.00800000E+00  1.00800000E+00
  1.00800000E+00  1.00800000E+00  1.60000000E+01  1.20100000E+01  1.20100000E+01
  1.20100000E+01  1.00800000E+00  1.00800000E+00  1.00800000E+00  1.00800000E+00
  1.00800000E+00  1.00800000E+00  1.60000000E+01  1.20100000E+01  1.20100000E+01
  1.20100000E+01  1.00800000E+00  1.00800000E+00  1.00800000E+00  1.00800000E+00
  1.00800000E+00  1.00800000E+00  1.60000000E+01  1.20100000E+01  1.20100000E+01
  1.20100000E+01  1.00800000E+00  1.00800000E+00  1.00800000E+00  1.00800000E+00
  1.00800000E+00  1.00800000E+00  1.60000000E+01  1.20100000E+01  1.20100000E+01
  1.20100000E+01  1.00800000E+00  1.00800000E+00  1.00800000E+00  1.00800000E+00
  1.00800000E+00  1.00800000E+00  1.60000000E+01  1.20100000E+01  1.20100000E+01
  1.20100000E+01  1.00800000E+00  1.00800000E+00  1.00800000E+00  1.00800000E+00
  1.00800000E+00  1.00800000E+00  1.60000000E+01  1.20100000E+01  1.20100000E+01
  1.20100000E+01  1.00800000E+00  1.00800000E+00  1.00800000E+00  1.00800000E+00
  1.00800000E+00  1.00800000E+00  1.60000000E+01  1.20100000E+01  1.20100000E+01
  1.20100000E+01  1.00800000E+00  1.00800000E+00  1.00800000E+00  1.00800000E+00
  1.00800000E+00  1.00800000E+00  1.60000000E+01  1.20100000E+01  1.20100000E+01
  1.20100000E+01  1.00800000E+00  1.00800000E+00  1.00800000E+00  1.00800000E+00
  1.00800000E+00  1.00800000E+00  1.60000000E+01  1.20100000E+01  1.20100000E+01
  1.20100000E+01  1.00800000E+00  1.00800000E+00  1.00800000E+00  1.00800000E+00
  1.00800000E+00  1.00800000E+00  1.60000000E+01  1.20100000E+01  1.20100000E+01
  1.20100000E+01  1.00800000E+00  1.00800000E+00  1.00800000E+00  1.00800000E+00
  1.00800000E+00  1.00800000E+00  1.60000000E+01  1.20100000E+01  1.20100000E+01
  1.20100000E+01  1.00800000E+00  1.00800000E+00  1.00800000E+00  1.00800000E+00
  1.00800000E+00  1.00800000E+00  1.60000000E+01  1.20100000E+01  1.20100000E+01
  1.20100000E+01  1.00800000E+00  1.00800000E+00  1.00800000E+00  1.00800000E+00
  1.00800000E+00  1.00800000E+00  1.60000000E+01  1.20100000E+01  1.20100000E+01
  1.20100000E+01  1.00800000E+00  1.00800000E+00  1.00800000E+00  1.00800000E+00
  1.00800000E+00  1.00800000E+00  1.60000000E+01  1.20100000E+01  1.20100000E+01
  1.20100000E+01  1.00800000E+00  1.00800000E+00  1.00800000E+00  1.00800000E+00
  1.00800000E+00  1.00800000E+00  1.60000000E+01  1.20100000E+01  1.20100000E+01
  1.20100000E+01  1.00800000E+00  1.00800000E+00  1.00800000E+00  1.00800000E+00
  1.00800000E+00  1.00800000E+00  1.60000000E+01  1.20100000E+01  1.20100000E+01
  1.20100000E+01  1.00800000E+00  1.00800000E+00  1.00800000E+00  1.00800000E+00
  1.00800000E+00  1.00800000E+00  1.60000000E+01  1.20100000E+01  1.20100000E+01
  1.20100000E+01  1.00800000E+00  1.00800000E+00  1.00800000E+00  1.00800000E+00
  1.00800000E+00  1.00800000E+00  1.60000000E+01  1.20100000E+01  1.20100000E+01
  1.20100000E+01  1.00800000E+00  1.00800000E+00  1.00800000E+00  1.00800000E+00
  1.00800000E+00  1.00800000E+00  1.60000000E+01  1.20100000E+01  1.20100000E+01
  1.20100000E+01  1.00800000E+00  1.00800000E+00  1.00800000E+00  1.00800000E+00
  1.00800000E+00  1.00800000E+00  1.60000000E+01  1.20100000E+01  1.20100000E+01
  1.20100000E+01  1.00800000E+00  1.00800000E+00  1.00800000E+00  1.00800000E+00
  1.00800000E+00  1.00800000E+00  1.60000000E+01  1.20100000E+01  1.20100000E+01
  1.20100000E+01  1.00800000E+00  1.00800000E+00  1.00800000E+00  1.00800000E+00
  1.00800000E+00  1.00800000E+00  1.60000000E+01  1.20100000E+01  1.20100000E+01
  1.20100000E+01  1.00800000E+00  1.00800000E+00  1.00800000E+00  1.00800000E+00
  1.00800000E+00  1.00800000E+00  1.60000000E+01  1.20100000E+01  1.20100000E+01
  1.20100000E+01  1.00800000E+00  1.00800000E+00  1.00800000E+00  1.00800000E+00
  1.00800000E+00  1.00800000E+00  1.60000000E+01  1.20100000E+01  1.20100000E+01
  1.20100000E+01  1.00800000E+00  1.00800000E+00  1.00800000E+00  1.00800000E+00
  1.00800000E+00  1.00800000E+00  1.60000000E+01  1.20100000E+01  1.20100000E+01
  1.20100000E+01  1.00800000E+00  1.00800000E+00  1.00800000E+00  1.00800000E+00
  1.00800000E+00  1.00800000E+00  1.60000000E+01  1.20100000E+01  1.20100000E+01
  1.20100000E+01  1.00800000E+00  1.00800000E+00  1.00800000E+00  1.00800000E+00
  1.00800000E+00  1.00800000E+00  1.60000000E+01  1.20100000E+01  1.20100000E+01
  1.20100000E+01  1.00800000E+00  1.00800000E+00  1.00800000E+00  1.00800000E+00
  1.00800000E+00  1.00800000E+00  1.60000000E+01  1.20100000E+01  1.20100000E+01
  1.20100000E+01  1.00800000E+00  1.00800000E+00  1.00800000E+00  1.00800000E+00
  1.00800000E+00  1.00800000E+00  1.60000000E+01  1.20100000E+01  1.20100000E+01
  1.20100000E+01  1.00800000E+00  1.00800000E+00  1.00800000E+00  1.00800000E+00
  1.00800000E+00  1.00800000E+00  1.60000000E+01  1.20100000E+01  1.20100000E+01
  1.20100000E+01  1.00800000E+00  1.00800000E+00  1.00800000E+00  1.00800000E+00
  1.00800000E+00  1.00800000E+00  1.60000000E+01  1.20100000E+01  1.20100000E+01
  1.20100000E+01  1.00800000E+00  1.00800000E+00  1.00800000E+00  1.00800000E+00
  1.00800000E+00  1.00800000E+00  1.60000000E+01  1.20100000E+01  1.20100000E+01
  1.20100000E+01  1.00800000E+00  1.00800000E+00  1.00800000E+00  1.00800000E+00
  1.00800000E+00  1.00800000E+00  1.60000000E+01  1.20100000E+01  1.20100000E+01
  1.20100000E+01  1.00800000E+00  1.00800000E+00  1.00800000E+00  1.00800000E+00
  1.00800000E+00  1.00800000E+00  1.60000000E+01  1.20100000E+01  1.20100000E+01
  1.20100000E+01  1.00800000E+00  1.00800000E+00  1.00800000E+00  1.00800000E+00
  1.00800000E+00  1.00800000E+00  1.60000000E+01  1.20100000E+01  1.20100000E+01
  1.20100000E+01  1.00800000E+00  1.00800000E+00  1.00800000E+00  1.00800000E+00
  1.00800000E+00  1.00800000E+00  1.60000000E+01  1.20100000E+01  1.20100000E+01
  1.20100000E+01  1.00800000E+00  1.00800000E+00  1.00800000E+00  1.00800000E+00
  1.00800000E+00  1.00800000E+00  1.60000000E+01  1.20100000E+01  1.20100000E+01
  1.20100000E+01  1.00800000E+00  1.00800000E+00  1.00800000E+00  1.00800000E+00
  1.00800000E+00  1.00800000E+00  1.60000000E+01  1.20100000E+01  1.20100000E+01
  1.20100000E+01  1.00800000E+00  1.00800000E+00  1.00800000E+00  1.00800000E+00
  1.00800000E+00  1.00800000E+00  1.60000000E+01  1.20100000E+01  1.20100000E+01
  1.20100000E+01  1.00800000E+00  1.00800000E+00  1.00800000E+00  1.00800000E+00
  1.00800000E+00  1.00800000E+00  1.60000000E+01  1.20100000E+01  1.20100000E+01
  1.20100000E+01  1.00800000E+00  1.00800000E+00  1.00800000E+00  1.00800000E+00
  1.00800000E+00  1.00800000E+00  1.60000000E+01  1.20100000E+01  1.20100000E+01
  1.20100000E+01  1.00800000E+00  1.00800000E+00  1.00800000E+00  1.00800000E+00
  1.00800000E+00  1.00800000E+00  1.60000000E+01  1.20100000E+01  1.20100000E+01
  1.20100000E+01  1.00800000E+00  1.00800000E+00  1.00800000E+00  1.00800000E+00
  1.00800000E+00  1.00800000E+00  1.60000000E+01  1.20100000E+01  1.20100000E+01
  1.20100000E+01  1.00800000E+00  1.00800000E+00  1.00800000E+00  1.00800000E+00
  1.00800000E+00  1.00800000E+00  1.60000000E+01  1.20100000E+01  1.20100000E+01
  1.20100000E+01  1.00800000E+00  1.00800000E+00  1.00800000E+00  1.00800000E+00
  1.00800000E+00  1.00800000E+00  1.60000000E+01  1.20100000E+01  1.20100000E+01
  1.20100000E+01  1.00800000E+00  1.00800000E+00  1.00800000E+00  1.00800000E+00
  1.00800000E+00  1.00800000E+00  1.60000000E+01  1.20100000E+01  1.20100000E+01
  1.20100000E+01  1.00800000E+00  1.00800000E+00  1.00800000E+00  1.00800000E+00
  1.00800000E+00  1.00800000E+00  1.60000000E+01  1.20100000E+01  1.20100000E+01
  1.20100000E+01  1.00800000E+00  1.00800000E+00  1.00800000E+00  1.00800000E+00
  1.00800000E+00  1.00800000E+00  1.60000000E+01  1.20100000E+01  1.20100000E+01
  1.20100000E+01  1.00800000E+00  1.00800000E+00  1.00800000E+00  1.00800000E+00
  1.00800000E+00  1.00800000E+00  1.60000000E+01  1.20100000E+01  1.20100000E+01
  1.20100000E+01  1.00800000E+00  1.00800000E+00  1.00800000E+00  1.00800000E+00
  1.00800000E+00  1.00800000E+00  1.60000000E+01  1.20100000E+01  1.20100000E+01
  1.20100000E+01  1.00800000E+00  1.00800000E+00  1.00800000E+00  1.00800000E+00
  1.00800000E+00  1.00800000E+00  1.60000000E+01  1.20100000E+01  1.20100000E+01
  1.20100000E+01  1.00800000E+00  1.00800000E+00  1.00800000E+00  1.00800000E+00
  1.00800000E+00  1.00800000E+00  1.60000000E+01  1.20100000E+01  1.20100000E+01
  1.20100000E+01  1.00800000E+00  1.00800000E+00  1.00800000E+00  1.00800000E+00
  1.00800000E+00  1.00800000E+00  1.60000000E+01  1.20100000E+01  1.20100000E+01
  1.20100000E+01  1.00800000E+00  1.00800000E+00  1.00800000E+00  1.00800000E+00
  1.00800000E+00  1.00800000E+00  1.60000000E+01  1.20100000E+01  1.20100000E+01
  1.20100000E+01  1.00800000E+00  1.00800000E+00  1.00800000E+00  1.00800000E+00
  1.00800000E+00  1.00800000E+00  1.60000000E+01  1.20100000E+01  1.20100000E+01
  1.20100000E+01  1.00800000E+00  1.00800000E+00  1.00800000E+00  1.00800000E+00
  1.00800000E+00  1.00800000E+00  1.60000000E+01  1.20100000E+01  1.20100000E+01
  1.20100000E+01  1.00800000E+00  1.00800000E+00  1.00800000E+00  1.00800000E+00
  1.00800000E+00  1.00800000E+00  1.60000000E+01  1.20100000E+01  1.20100000E+01
  1.20100000E+01  1.00800000E+00  1.00800000E+00  1.00800000E+00  1.00800000E+00
  1.00800000E+00  1.00800000E+00  1.60000000E+01  1.20100000E+01  1.20100000E+01
  1.20100000E+01  1.00800000E+00  1.00800000E+00  1.00800000E+00  1.00800000E+00
  1.00800000E+00  1.00800000E+00  1.60000000E+01  1.20100000E+01  1.20100000E+01
  1.20100000E+01  1.00800000E+00  1.00800000E+00  1.00800000E+00  1.00800000E+00
  1.00800000E+00  1.00800000E+00  1.60000000E+01  1.20100000E+01  1.20100000E+01
  1.20100000E+01  1.00800000E+00  1.00800000E+00  1.00800000E+00  1.00800000E+00
  1.00800000E+00  1.00800000E+00  1.60000000E+01  1.20100000E+01  1.20100000E+01
  1.20100000E+01  1.00800000E+00  1.00800000E+00  1.00800000E+00  1.00800000E+00
  1.00800000E+00  1.00800000E+00  1.60000000E+01  1.20100000E+01  1.20100000E+01
  1.20100000E+01  1.00800000E+00  1.00800000E+00  1.00800000E+00  1.00800000E+00
  1.00800000E+00  1.00800000E+00  1.60000000E+01  1.20100000E+01  1.20100000E+01
  1.20100000E+01  1.00800000E+00  1.00800000E+00  1.00800000E+00  1.00800000E+00
  1.00800000E+00  1.00800000E+00  1.60000000E+01  1.20100000E+01  1.20100000E+01
  1.20100000E+01  1.00800000E+00  1.00800000E+00  1.00800000E+00  1.00800000E+00
  1.00800000E+00  1.00800000E+00  1.60000000E+01  1.20100000E+01  1.20100000E+01
  1.20100000E+01  1.00800000E+00  1.00800000E+00  1.00800000E+00  1.00800000E+00
  1.00800000E+00  1.00800000E+00  1.60000000E+01  1.20100000E+01  1.20100000E+01
  1.20100000E+01  1.00800000E+00  1.00800000E+00  1.00800000E+00  1.00800000E+00
  1.00800000E+00  1.00800000E+00  1.60000000E+01  1.20100000E+01  1.20100000E+01
  1.20100000E+01  1.00800000E+00  1.00800000E+00  1.00800000E+00  1.00800000E+00
  1.00800000E+00  1.00800000E+00  1.60000000E+01  1.20100000E+01  1.20100000E+01
  1.20100000E+01  1.00800000E+00  1.00800000E+00  1.00800000E+00  1.00800000E+00
  1.00800000E+00  1.00800000E+00  1.60000000E+01  1.20100000E+01  1.20100000E+01
  1.20100000E+01  1.00800000E+00  1.00800000E+00  1.00800000E+00  1.00800000E+00
  1.00800000E+00  1.00800000E+00  1.60000000E+01  1.20100000E+01  1.20100000E+01
  1.20100000E+01  1.00800000E+00  1.00800000E+00  1.00800000E+00  1.00800000E+00
  1.00800000E+00  1.00800000E+00  1.60000000E+01  1.20100000E+01  1.20100000E+01
  1.20100000E+01  1.00800000E+00  1.00800000E+00  1.00800000E+00  1.00800000E+00
  1.00800000E+00  1.00800000E+00  1.60000000E+01  1.20100000E+01  1.20100000E+01
  1.20100000E+01  1.00800000E+00  1.00800000E+00  1.00800000E+00  1.00800000E+00
  1.00800000E+00  1.00800000E+00  1.60000000E+01  1.20100000E+01  1.20100000E+01
  1.20100000E+01  1.00800000E+00  1.00800000E+00  1.00800000E+00  1.00800000E+00
  1.00800000E+00  1.00800000E+00  1.60000000E+01  1.20100000E+01  1.20100000E+01
  1.20100000E+01  1.00800000E+00  1.00800000E+00  1.00800000E+00  1.00800000E+00
  1.00800000E+00  1.00800000E+00  1.60000000E+01  1.20100000E+01  1.20100000E+01
  1.20100000E+01  1.00800000E+00  1.00800000E+00  1.00800000E+00  1.00800000E+00
  1.00800000E+00  1.00800000E+00  1.60000000E+01  1.20100000E+01  1.20100000E+01
  1.20100000E+01  1.00800000E+00  1.00800000E+00  1.00800000E+00  1.00800000E+00
  1.00800000E+00  1.00800000E+00  1.60000000E+01  1.20100000E+01  1.20100000E+01
  1.20100000E+01  1.00800000E+00  1.00800000E+00  1.00800000E+00  1.00800000E+00
  1.00800000E+00  1.00800000E+00  1.60000000E+01  1.20100000E+01  1.20100000E+01
  1.20100000E+01  1.00800000E+00  1.00800000E+00  1.00800000E+00  1.00800000E+00
  1.00800000E+00  1.00800000E+00  1.60000000E+01  1.20100000E+01  1.20100000E+01
  1.20100000E+01  1.00800000E+00  1.00800000E+00  1.00800000E+00  1.00800000E+00
  1.00800000E+00  1.00800000E+00  1.60000000E+01  1.20100000E+01  1.20100000E+01
  1.20100000E+01  1.00800000E+00  1.00800000E+00  1.00800000E+00  1.00800000E+00
  1.00800000E+00  1.00800000E+00  1.60000000E+01  1.20100000E+01  1.20100000E+01
  1.20100000E+01  1.00800000E+00  1.00800000E+00  1.00800000E+00  1.00800000E+00
  1.00800000E+00  1.00800000E+00  1.60000000E+01  1.20100000E+01  1.20100000E+01
  1.20100000E+01  1.00800000E+00  1.00800000E+00  1.00800000E+00  1.00800000E+00
  1.00800000E+00  1.00800000E+00  1.60000000E+01  1.20100000E+01  1.20100000E+01
  1.20100000E+01  1.00800000E+00  1.00800000E+00  1.00800000E+00  1.00800000E+00
  1.00800000E+00  1.00800000E+00  1.60000000E+01  1.20100000E+01  1.20100000E+01
  1.20100000E+01  1.00800000E+00  1.00800000E+00  1.00800000E+00  1.00800000E+00
  1.00800000E+00  1.00800000E+00  1.60000000E+01  1.20100000E+01  1.20100000E+01
  1.20100000E+01  1.00800000E+00  1.00800000E+00  1.00800000E+00  1.00800000E+00
  1.00800000E+00  1.00800000E+00  1.60000000E+01  1.20100000E+01  1.20100000E+01
  1.20100000E+01  1.00800000E+00  1.00800000E+00  1.00800000E+00  1.00800000E+00
  1.00800000E+00  1.00800000E+00  1.60000000E+01  1.20100000E+01  1.20100000E+01
  1.20100000E+01  1.00800000E+00  1.00800000E+00  1.00800000E+00  1.00800000E+00
  1.00800000E+00  1.00800000E+00  1.60000000E+01  1.20100000E+01  1.20100000E+01
  1.20100000E+01  1.00800000E+00  1.00800000E+00  1.00800000E+00  1.00800000E+00
  1.00800000E+00  1.00800000E+00  1.60000000E+01  1.20100000E+01  1.20100000E+01
  1.20100000E+01  1.00800000E+00  1.00800000E+00  1.00800000E+00  1.00800000E+00
  1.00800000E+00  1.00800000E+00  1.60000000E+01  1.20100000E+01  1.20100000E+01
  1.20100000E+01  1.00800000E+00  1.00800000E+00  1.00800000E+00  1.00800000E+00
  1.00800000E+00  1.00800000E+00  1.60000000E+01  1.20100000E+01  1.20100000E+01
  1.20100000E+01  1.00800000E+00  1.00800000E+00  1.00800000E+00  1.00800000E+00
  1.00800000E+00  1.00800000E+00  1.60000000E+01  1.20100000E+01  1.20100000E+01
  1.20100000E+01  1.00800000E+00  1.00800000E+00  1.00800000E+00  1.00800000E+00
  1.00800000E+00  1.00800000E+00  1.60000000E+01  1.20100000E+01  1.20100000E+01
  1.20100000E+01  1.00800000E+00  1.00800000E+00  1.00800000E+00  1.00800000E+00
  1.00800000E+00  1.00800000E+00  1.60000000E+01  1.20100000E+01  1.20100000E+01
  1.20100000E+01  1.00800000E+00  1.00800000E+00  1.00800000E+00  1.00800000E+00
  1.00800000E+00  1.00800000E+00  1.60000000E+01  1.20100000E+01  1.20100000E+01
  1.20100000E+01  1.00800000E+00  1.00800000E+00  1.00800000E+00  1.00800000E+00
  1.00800000E+00  1.00800000E+00  1.60000000E+01  1.20100000E+01  1.20100000E+01
  1.20100000E+01  1.00800000E+00  1.00800000E+00  1.00800000E+00  1.00800000E+00
  1.00800000E+00  1.00800000E+00  1.60000000E+01  1.20100000E+01  1.20100000E+01
  1.20100000E+01  1.00800000E+00  1.00800000E+00  1.00800000E+00  1.00800000E+00
  1.00800000E+00  1.00800000E+00  1.60000000E+01  1.20100000E+01  1.20100000E+01
  1.20100000E+01  1.00800000E+00  1.00800000E+00  1.00800000E+00  1.00800000E+00
  1.00800000E+00  1.00800000E+00  1.60000000E+01  1.20100000E+01  1.20100000E+01
  1.20100000E+01  1.00800000E+00  1.00800000E+00  1.00800000E+00  1.00800000E+00
  1.00800000E+00  1.00800000E+00  1.60000000E+01  1.20100000E+01  1.20100000E+01
  1.20100000E+01  1.00800000E+00  1.00800000E+00  1.00800000E+00  1.00800000E+00
  1.00800000E+00  1.00800000E+00  1.60000000E+01  1.20100000E+01  1.20100000E+01
  1.20100000E+01  1.00800000E+00  1.00800000E+00  1.00800000E+00  1.00800000E+00
  1.00800000E+00  1.00800000E+00  1.60000000E+01  1.20100000E+01  1.20100000E+01
  1.20100000E+01  1.00800000E+00  1.00800000E+00  1.00800000E+00  1.00800000E+00
  1.00800000E+00  1.00800000E+00  1.60000000E+01  1.20100000E+01  1.20100000E+01
  1.20100000E+01  1.00800000E+00  1.00800000E+00  1.00800000E+00  1.00800000E+00
  1.00800000E+00  1.00800000E+00  1.60000000E+01  1.20100000E+01  1.20100000E+01
  1.20100000E+01  1.00800000E+00  1.00800000E+00  1.00800000E+00  1.00800000E+00
  1.00800000E+00  1.00800000E+00  1.60000000E+01  1.20100000E+01  1.20100000E+01
  1.20100000E+01  1.00800000E+00  1.00800000E+00  1.00800000E+00  1.00800000E+00
  1.00800000E+00  1.00800000E+00  1.60000000E+01  1.20100000E+01  1.20100000E+01
  1.20100000E+01  1.00800000E+00  1.00800000E+00  1.00800000E+00  1.00800000E+00
  1.00800000E+00  1.00800000E+00  1.60000000E+01  1.20100000E+01  1.20100000E+01
  1.20100000E+01  1.00800000E+00  1.00800000E+00  1.00800000E+00  1.00800000E+00
  1.00800000E+00  1.00800000E+00  1.60000000E+01  1.20100000E+01  1.20100000E+01
  1.20100000E+01  1.00800000E+00  1.00800000E+00  1.00800000E+00  1.00800000E+00
  1.00800000E+00  1.00800000E+00  1.60000000E+01  1.20100000E+01  1.20100000E+01
  1.20100000E+01  1.00800000E+00  1.00800000E+00  1.00800000E+00  1.00800000E+00
  1.00800000E+00  1.00800000E+00  1.60000000E+01  1.20100000E+01  1.20100000E+01
  1.20100000E+01  1.00800000E+00  1.00800000E+00  1.00800000E+00  1.00800000E+00
  1.00800000E+00  1.00800000E+00  1.60000000E+01  1.20100000E+01  1.20100000E+01
  1.20100000E+01  1.00800000E+00  1.00800000E+00  1.00800000E+00  1.00800000E+00
  1.00800000E+00  1.00800000E+00  1.60000000E+01  1.20100000E+01  1.20100000E+01
  1.20100000E+01  1.00800000E+00  1.00800000E+00  1.00800000E+00  1.00800000E+00
  1.00800000E+00  1.00800000E+00  1.60000000E+01  1.20100000E+01  1.20100000E+01
  1.20100000E+01  1.00800000E+00  1.00800000E+00  1.00800000E+00  1.00800000E+00
  1.00800000E+00  1.00800000E+00  1.60000000E+01  1.20100000E+01  1.20100000E+01
  1.20100000E+01  1.00800000E+00  1.00800000E+00  1.00800000E+00  1.00800000E+00
  1.00800000E+00  1.00800000E+00  1.60000000E+01  1.20100000E+01  1.20100000E+01
  1.20100000E+01  1.00800000E+00  1.00800000E+00  1.00800000E+00  1.00800000E+00
  1.00800000E+00  1.00800000E+00  1.60000000E+01  1.20100000E+01  1.20100000E+01
  1.20100000E+01  1.00800000E+00  1.00800000E+00  1.00800000E+00  1.00800000E+00
  1.00800000E+00  1.00800000E+00  1.60000000E+01  1.20100000E+01  1.20100000E+01
  1.20100000E+01  1.00800000E+00  1.00800000E+00  1.00800000E+00  1.00800000E+00
  1.00800000E+00  1.00800000E+00  1.60000000E+01  1.20100000E+01  1.20100000E+01
  1.20100000E+01  1.00800000E+00  1.00800000E+00  1.00800000E+00  1.00800000E+00
  1.00800000E+00  1.00800000E+00  1.60000000E+01  1.20100000E+01  1.20100000E+01
  1.20100000E+01  1.00800000E+00  1.00800000E+00  1.00800000E+00  1.00800000E+00
  1.00800000E+00  1.00800000E+00  1.60000000E+01  1.20100000E+01  1.20100000E+01
  1.20100000E+01  1.00800000E+00  1.00800000E+00  1.00800000E+00  1.00800000E+00
  1.00800000E+00  1.00800000E+00  1.60000000E+01  1.20100000E+01  1.20100000E+01
  1.20100000E+01  1.00800000E+00  1.00800000E+00  1.00800000E+00  1.00800000E+00
  1.00800000E+00  1.00800000E+00  1.60000000E+01  1.20100000E+01  1.20100000E+01
  1.20100000E+01  1.00800000E+00  1.00800000E+00  1.00800000E+00  1.00800000E+00
  1.00800000E+00  1.00800000E+00  1.60000000E+01  1.20100000E+01  1.20100000E+01
  1.20100000E+01  1.00800000E+00  1.00800000E+00  1.00800000E+00  1.00800000E+00
  1.00800000E+00  1.00800000E+00  1.60000000E+01  1.20100000E+01  1.20100000E+01
  1.20100000E+01  1.00800000E+00  1.00800000E+00  1.00800000E+00  1.00800000E+00
  1.00800000E+00  1.00800000E+00  1.60000000E+01  1.20100000E+01  1.20100000E+01
  1.20100000E+01  1.00800000E+00  1.00800000E+00  1.00800000E+00  1.00800000E+00
  1.00800000E+00  1.00800000E+00  1.60000000E+01  1.20100000E+01  1.20100000E+01
  1.20100000E+01  1.00800000E+00  1.00800000E+00  1.00800000E+00  1.00800000E+00
  1.00800000E+00  1.00800000E+00  1.60000000E+01  1.20100000E+01  1.20100000E+01
  1.20100000E+01  1.00800000E+00  1.00800000E+00  1.00800000E+00  1.00800000E+00
  1.00800000E+00  1.00800000E+00  1.60000000E+01  1.20100000E+01  1.20100000E+01
  1.20100000E+01  1.00800000E+00  1.00800000E+00  1.00800000E+00  1.00800000E+00
  1.00800000E+00  1.00800000E+00  1.60000000E+01  1.20100000E+01  1.20100000E+01
  1.20100000E+01  1.00800000E+00  1.00800000E+00  1.00800000E+00  1.00800000E+00
  1.00800000E+00  1.00800000E+00  1.60000000E+01  1.20100000E+01  1.20100000E+01
  1.20100000E+01  1.00800000E+00  1.00800000E+00  1.00800000E+00  1.00800000E+00
  1.00800000E+00  1.00800000E+00  1.60000000E+01  1.20100000E+01  1.20100000E+01
  1.20100000E+01  1.00800000E+00  1.00800000E+00  1.00800000E+00  1.00800000E+00
  1.00800000E+00  1.00800000E+00  1.60000000E+01  1.20100000E+01  1.20100000E+01
  1.20100000E+01  1.00800000E+00  1.00800000E+00  1.00800000E+00  1.00800000E+00
  1.00800000E+00  1.00800000E+00  1.60000000E+01  1.20100000E+01  1.20100000E+01
  1.20100000E+01  1.00800000E+00  1.00800000E+00  1.00800000E+00  1.00800000E+00
  1.00800000E+00  1.00800000E+00  1.60000000E+01  1.20100000E+01  1.20100000E+01
  1.20100000E+01  1.00800000E+00  1.00800000E+00  1.00800000E+00  1.00800000E+00
  1.00800000E+00  1.00800000E+00  1.60000000E+01  1.20100000E+01  1.20100000E+01
  1.20100000E+01  1.00800000E+00  1.00800000E+00  1.00800000E+00  1.00800000E+00
  1.00800000E+00  1.00800000E+00  1.60000000E+01  1.20100000E+01  1.20100000E+01
  1.20100000E+01  1.00800000E+00  1.00800000E+00  1.00800000E+00  1.00800000E+00
  1.00800000E+00  1.00800000E+00  1.60000000E+01  1.20100000E+01  1.20100000E+01
  1.20100000E+01  1.00800000E+00  1.00800000E+00  1.00800000E+00  1.00800000E+00
  1.00800000E+00  1.00800000E+00  1.60000000E+01  1.20100000E+01  1.20100000E+01
  1.20100000E+01  1.00800000E+00  1.00800000E+00  1.00800000E+00  1.00800000E+00
  1.00800000E+00  1.00800000E+00  1.60000000E+01  1.20100000E+01  1.20100000E+01
  1.20100000E+01  1.00800000E+00  1.00800000E+00  1.00800000E+00  1.00800000E+00
  1.00800000E+00  1.00800000E+00  1.60000000E+01  1.20100000E+01  1.20100000E+01
  1.20100000E+01  1.00800000E+00  1.00800000E+00  1.00800000E+00  1.00800000E+00
  1.00800000E+00  1.00800000E+00  1.60000000E+01  1.20100000E+01  1.20100000E+01
  1.20100000E+01  1.00800000E+00  1.00800000E+00  1.00800000E+00  1.00800000E+00
  1.00800000E+00  1.00800000E+00  1.60000000E+01  1.20100000E+01  1.20100000E+01
  1.20100000E+01  1.00800000E+00  1.00800000E+00  1.00800000E+00  1.00800000E+00
  1.00800000E+00  1.00800000E+00  1.60000000E+01  1.20100000E+01  1.20100000E+01
  1.20100000E+01  1.00800000E+00  1.00800000E+00  1.00800000E+00  1.00800000E+00
  1.00800000E+00  1.00800000E+00  1.60000000E+01  1.20100000E+01  1.20100000E+01
  1.20100000E+01  1.00800000E+00  1.00800000E+00  1.00800000E+00  1.00800000E+00
  1.00800000E+00  1.00800000E+00  1.60000000E+01  1.20100000E+01  1.20100000E+01
  1.20100000E+01  1.00800000E+00  1.00800000E+00  1.00800000E+00  1.00800000E+00
  1.00800000E+00  1.00800000E+00  1.60000000E+01  1.20100000E+01  1.20100000E+01
  1.20100000E+01  1.00800000E+00  1.00800000E+00  1.00800000E+00  1.00800000E+00
  1.00800000E+00  1.00800000E+00  1.60000000E+01  1.20100000E+01  1.20100000E+01
  1.20100000E+01  1.00800000E+00  1.00800000E+00  1.00800000E+00  1.00800000E+00
  1.00800000E+00  1.00800000E+00  1.60000000E+01  1.20100000E+01  1.20100000E+01
  1.20100000E+01  1.00800000E+00  1.00800000E+00  1.00800000E+00  1.00800000E+00
  1.00800000E+00  1.00800000E+00  1.60000000E+01  1.20100000E+01  1.20100000E+01
  1.20100000E+01  1.00800000E+00  1.00800000E+00  1.00800000E+00  1.00800000E+00
  1.00800000E+00  1.00800000E+00  1.60000000E+01  1.20100000E+01  1.20100000E+01
  1.20100000E+01  1.00800000E+00  1.00800000E+00  1.00800000E+00  1.00800000E+00
  1.00800000E+00  1.00800000E+00  1.60000000E+01  1.20100000E+01  1.20100000E+01
  1.20100000E+01  1.00800000E+00  1.00800000E+00  1.00800000E+00  1.00800000E+00
  1.00800000E+00  1.00800000E+00  1.60000000E+01  1.20100000E+01  1.20100000E+01
  1.20100000E+01  1.00800000E+00  1.00800000E+00  1.00800000E+00  1.00800000E+00
  1.00800000E+00  1.00800000E+00  1.60000000E+01  1.20100000E+01  1.20100000E+01
  1.20100000E+01  1.00800000E+00  1.00800000E+00  1.00800000E+00  1.00800000E+00
  1.00800000E+00  1.00800000E+00  1.60000000E+01  1.20100000E+01  1.20100000E+01
  1.20100000E+01  1.00800000E+00  1.00800000E+00  1.00800000E+00  1.00800000E+00
  1.00800000E+00  1.00800000E+00  1.60000000E+01  1.20100000E+01  1.20100000E+01
  1.20100000E+01  1.00800000E+00  1.00800000E+00  1.00800000E+00  1.00800000E+00
  1.00800000E+00  1.00800000E+00  1.60000000E+01  1.20100000E+01  1.20100000E+01
  1.20100000E+01  1.00800000E+00  1.00800000E+00  1.00800000E+00  1.00800000E+00
  1.00800000E+00  1.00800000E+00  1.60000000E+01  1.20100000E+01  1.20100000E+01
  1.20100000E+01  1.00800000E+00  1.00800000E+00  1.00800000E+00  1.00800000E+00
  1.00800000E+00  1.00800000E+00  1.60000000E+01  1.20100000E+01  1.20100000E+01
  1.20100000E+01  1.00800000E+00  1.00800000E+00  1.00800000E+00  1.00800000E+00
  1.00800000E+00  1.00800000E+00  1.60000000E+01  1.20100000E+01  1.20100000E+01
  1.20100000E+01  1.00800000E+00  1.00800000E+00  1.00800000E+00  1.00800000E+00
  1.00800000E+00  1.00800000E+00  1.60000000E+01  1.20100000E+01  1.20100000E+01
  1.20100000E+01  1.00800000E+00  1.00800000E+00  1.00800000E+00  1.00800000E+00
  1.00800000E+00  1.00800000E+00  1.60000000E+01  1.20100000E+01  1.20100000E+01
  1.20100000E+01  1.00800000E+00  1.00800000E+00  1.00800000E+00  1.00800000E+00
  1.00800000E+00  1.00800000E+00  1.60000000E+01  1.20100000E+01  1.20100000E+01
  1.20100000E+01  1.00800000E+00  1.00800000E+00  1.00800000E+00  1.00800000E+00
  1.00800000E+00  1.00800000E+00  1.60000000E+01  1.20100000E+01  1.20100000E+01
  1.20100000E+01  1.00800000E+00  1.00800000E+00  1.00800000E+00  1.00800000E+00
  1.00800000E+00  1.00800000E+00  1.60000000E+01  1.20100000E+01  1.20100000E+01
  1.20100000E+01  1.00800000E+00  1.00800000E+00  1.00800000E+00  1.00800000E+00
  1.00800000E+00  1.00800000E+00  1.60000000E+01  1.20100000E+01  1.20100000E+01
  1.20100000E+01  1.00800000E+00  1.00800000E+00  1.00800000E+00  1.00800000E+00
  1.00800000E+00  1.00800000E+00  1.60000000E+01  1.20100000E+01  1.20100000E+01
  1.20100000E+01  1.00800000E+00  1.00800000E+00  1.00800000E+00  1.00800000E+00
  1.00800000E+00  1.00800000E+00  1.60000000E+01  1.20100000E+01  1.20100000E+01
  1.20100000E+01  1.00800000E+00  1.00800000E+00  1.00800000E+00  1.00800000E+00
  1.00800000E+00  1.00800000E+00  1.60000000E+01  1.20100000E+01  1.20100000E+01
  1.20100000E+01  1.00800000E+00  1.00800000E+00  1.00800000E+00  1.00800000E+00
  1.00800000E+00  1.00800000E+00  1.60000000E+01  1.20100000E+01  1.20100000E+01
  1.20100000E+01  1.00800000E+00  1.00800000E+00  1.00800000E+00  1.00800000E+00
  1.00800000E+00  1.00800000E+00  1.60000000E+01  1.20100000E+01  1.20100000E+01
  1.20100000E+01  1.00800000E+00  1.00800000E+00  1.00800000E+00  1.00800000E+00
  1.00800000E+00  1.00800000E+00  1.60000000E+01  1.20100000E+01  1.20100000E+01
  1.20100000E+01  1.00800000E+00  1.00800000E+00  1.00800000E+00  1.00800000E+00
  1.00800000E+00  1.00800000E+00  1.60000000E+01  1.20100000E+01  1.20100000E+01
  1.20100000E+01  1.00800000E+00  1.00800000E+00  1.00800000E+00  1.00800000E+00
  1.00800000E+00  1.00800000E+00  1.60000000E+01  1.20100000E+01  1.20100000E+01
  1.20100000E+01  1.00800000E+00  1.00800000E+00  1.00800000E+00  1.00800000E+00
  1.00800000E+00  1.00800000E+00  1.60000000E+01  1.20100000E+01  1.20100000E+01
  1.20100000E+01  1.00800000E+00  1.00800000E+00  1.00800000E+00  1.00800000E+00
  1.00800000E+00  1.00800000E+00  1.60000000E+01  1.20100000E+01  1.20100000E+01
  1.20100000E+01  1.00800000E+00  1.00800000E+00  1.00800000E+00  1.00800000E+00
  1.00800000E+00  1.00800000E+00  1.60000000E+01  1.20100000E+01  1.20100000E+01
  1.20100000E+01  1.00800000E+00  1.00800000E+00  1.00800000E+00  1.00800000E+00
  1.00800000E+00  1.00800000E+00  1.60000000E+01  1.20100000E+01  1.20100000E+01
  1.20100000E+01  1.00800000E+00  1.00800000E+00  1.00800000E+00  1.00800000E+00
  1.00800000E+00  1.00800000E+00  1.60000000E+01  1.20100000E+01  1.20100000E+01
  1.20100000E+01  1.00800000E+00  1.00800000E+00  1.00800000E+00  1.00800000E+00
  1.00800000E+00  1.00800000E+00  1.60000000E+01  1.20100000E+01  1.20100000E+01
  1.20100000E+01  1.00800000E+00  1.00800000E+00  1.00800000E+00  1.00800000E+00
  1.00800000E+00  1.00800000E+00  1.60000000E+01  1.20100000E+01  1.20100000E+01
  1.20100000E+01  1.00800000E+00  1.00800000E+00  1.00800000E+00  1.00800000E+00
  1.00800000E+00  1.00800000E+00  1.60000000E+01  1.20100000E+01  1.20100000E+01
  1.20100000E+01  1.00800000E+00  1.00800000E+00  1.00800000E+00  1.00800000E+00
  1.00800000E+00  1.00800000E+00  1.60000000E+01  1.20100000E+01  1.20100000E+01
  1.20100000E+01  1.00800000E+00  1.00800000E+00  1.00800000E+00  1.00800000E+00
  1.00800000E+00  1.00800000E+00  1.60000000E+01  1.20100000E+01  1.20100000E+01
  1.20100000E+01  1.00800000E+00  1.00800000E+00  1.00800000E+00  1.00800000E+00
  1.00800000E+00  1.00800000E+00  1.60000000E+01  1.20100000E+01  1.20100000E+01
  1.20100000E+01  1.00800000E+00  1.00800000E+00  1.00800000E+00  1.00800000E+00
  1.00800000E+00  1.00800000E+00  1.60000000E+01  1.20100000E+01  1.20100000E+01
  1.20100000E+01  1.00800000E+00  1.00800000E+00  1.00800000E+00  1.00800000E+00
  1.00800000E+00  1.00800000E+00  1.60000000E+01  1.20100000E+01  1.20100000E+01
  1.20100000E+01  1.00800000E+00  1.00800000E+00  1.00800000E+00  1.00800000E+00
  1.00800000E+00  1.00800000E+00  1.60000000E+01  1.20100000E+01  1.20100000E+01
  1.20100000E+01  1.00800000E+00  1.00800000E+00  1.00800000E+00  1.00800000E+00
  1.00800000E+00  1.00800000E+00  1.60000000E+01  1.20100000E+01  1.20100000E+01
  1.20100000E+01  1.00800000E+00  1.00800000E+00  1.00800000E+00  1.00800000E+00
  1.00800000E+00  1.00800000E+00  1.60000000E+01  1.20100000E+01  1.20100000E+01
  1.20100000E+01  1.00800000E+00  1.00800000E+00  1.00800000E+00  1.00800000E+00
  1.00800000E+00  1.00800000E+00  1.60000000E+01  1.20100000E+01  1.20100000E+01
  1.20100000E+01  1.00800000E+00  1.00800000E+00  1.00800000E+00  1.00800000E+00
  1.00800000E+00  1.00800000E+00  1.60000000E+01  1.20100000E+01  1.20100000E+01
  1.20100000E+01  1.00800000E+00  1.00800000E+00  1.00800000E+00  1.00800000E+00
  1.00800000E+00  1.00800000E+00  1.60000000E+01  1.20100000E+01  1.20100000E+01
  1.20100000E+01  1.00800000E+00  1.00800000E+00  1.00800000E+00  1.00800000E+00
  1.00800000E+00  1.00800000E+00  1.60000000E+01  1.20100000E+01  1.20100000E+01
  1.20100000E+01  1.00800000E+00  1.00800000E+00  1.00800000E+00  1.00800000E+00
  1.00800000E+00  1.00800000E+00  1.60000000E+01  1.20100000E+01  1.20100000E+01
  1.20100000E+01  1.00800000E+00  1.00800000E+00  1.00800000E+00  1.00800000E+00
  1.00800000E+00  1.00800000E+00  1.60000000E+01  1.20100000E+01  1.20100000E+01
  1.20100000E+01  1.00800000E+00  1.00800000E+00  1.00800000E+00  1.00800000E+00
  1.00800000E+00  1.00800000E+00  1.60000000E+01  1.20100000E+01  1.20100000E+01
  1.20100000E+01  1.00800000E+00  1.00800000E+00  1.00800000E+00  1.00800000E+00
  1.00800000E+00  1.00800000E+00  1.60000000E+01  1.20100000E+01  1.20100000E+01
  1.20100000E+01  1.00800000E+00  1.00800000E+00  1.00800000E+00  1.00800000E+00
  1.00800000E+00  1.00800000E+00  1.60000000E+01  1.20100000E+01  1.20100000E+01
  1.20100000E+01  1.00800000E+00  1.00800000E+00  1.00800000E+00  1.00800000E+00
  1.00800000E+00  1.00800000E+00  1.60000000E+01  1.20100000E+01  1.20100000E+01
  1.20100000E+01  1.00800000E+00  1.00800000E+00  1.00800000E+00  1.00800000E+00
  1.00800000E+00  1.00800000E+00  1.60000000E+01  1.20100000E+01  1.20100000E+01
  1.20100000E+01  1.00800000E+00  1.00800000E+00  1.00800000E+00  1.00800000E+00
  1.00800000E+00  1.00800000E+00  1.60000000E+01  1.20100000E+01  1.20100000E+01
  1.20100000E+01  1.00800000E+00  1.00800000E+00  1.00800000E+00  1.00800000E+00
  1.00800000E+00  1.00800000E+00  1.60000000E+01  1.20100000E+01  1.20100000E+01
  1.20100000E+01  1.00800000E+00  1.00800000E+00  1.00800000E+00  1.00800000E+00
  1.00800000E+00  1.00800000E+00  1.60000000E+01  1.20100000E+01  1.20100000E+01
  1.20100000E+01  1.00800000E+00  1.00800000E+00  1.00800000E+00  1.00800000E+00
  1.00800000E+00  1.00800000E+00  1.60000000E+01  1.20100000E+01  1.20100000E+01
  1.20100000E+01  1.00800000E+00  1.00800000E+00  1.00800000E+00  1.00800000E+00
  1.00800000E+00  1.00800000E+00  1.60000000E+01  1.20100000E+01  1.20100000E+01
  1.20100000E+01  1.00800000E+00  1.00800000E+00  1.00800000E+00  1.00800000E+00
  1.00800000E+00  1.00800000E+00  1.60000000E+01  1.20100000E+01  1.20100000E+01
  1.20100000E+01  1.00800000E+00  1.00800000E+00  1.00800000E+00  1.00800000E+00
  1.00800000E+00  1.00800000E+00  1.60000000E+01  1.20100000E+01  1.20100000E+01
  1.20100000E+01  1.00800000E+00  1.00800000E+00  1.00800000E+00  1.00800000E+00
  1.00800000E+00  1.00800000E+00  1.60000000E+01  1.20100000E+01  1.20100000E+01
  1.20100000E+01  1.00800000E+00  1.00800000E+00  1.00800000E+00  1.00800000E+00
  1.00800000E+00  1.00800000E+00  1.60000000E+01  1.20100000E+01  1.20100000E+01
  1.20100000E+01  1.00800000E+00  1.00800000E+00  1.00800000E+00  1.00800000E+00
  1.00800000E+00  1.00800000E+00  1.60000000E+01  1.20100000E+01  1.20100000E+01
  1.20100000E+01  1.00800000E+00  1.00800000E+00  1.00800000E+00  1.00800000E+00
  1.00800000E+00  1.00800000E+00  1.60000000E+01  1.20100000E+01  1.20100000E+01
  1.20100000E+01  1.00800000E+00  1.00800000E+00  1.00800000E+00  1.00800000E+00
  1.00800000E+00  1.00800000E+00  1.60000000E+01  1.20100000E+01  1.20100000E+01
  1.20100000E+01  1.00800000E+00  1.00800000E+00  1.00800000E+00  1.00800000E+00
  1.00800000E+00  1.00800000E+00  1.60000000E+01  1.20100000E+01  1.20100000E+01
  1.20100000E+01  1.00800000E+00  1.00800000E+00  1.00800000E+00  1.00800000E+00
  1.00800000E+00  1.00800000E+00  1.60000000E+01  1.20100000E+01  1.20100000E+01
  1.20100000E+01  1.00800000E+00  1.00800000E+00  1.00800000E+00  1.00800000E+00
  1.00800000E+00  1.00800000E+00  1.60000000E+01  1.20100000E+01  1.20100000E+01
  1.20100000E+01  1.00800000E+00  1.00800000E+00  1.00800000E+00  1.00800000E+00
  1.00800000E+00  1.00800000E+00  1.60000000E+01  1.20100000E+01  1.20100000E+01
  1.20100000E+01  1.00800000E+00  1.00800000E+00  1.00800000E+00  1.00800000E+00
  1.00800000E+00  1.00800000E+00  1.60000000E+01  1.20100000E+01  1.20100000E+01
  1.20100000E+01  1.00800000E+00  1.00800000E+00  1.00800000E+00  1.00800000E+00
  1.00800000E+00  1.00800000E+00  1.60000000E+01  1.20100000E+01  1.20100000E+01
  1.20100000E+01  1.00800000E+00  1.00800000E+00  1.00800000E+00  1.00800000E+00
  1.00800000E+00  1.00800000E+00  1.60000000E+01  1.20100000E+01  1.20100000E+01
  1.20100000E+01  1.00800000E+00  1.00800000E+00  1.00800000E+00  1.00800000E+00
  1.00800000E+00  1.00800000E+00  1.60000000E+01  1.20100000E+01  1.20100000E+01
  1.20100000E+01  1.00800000E+00  1.00800000E+00  1.00800000E+00  1.00800000E+00
  1.00800000E+00  1.00800000E+00  1.60000000E+01  1.20100000E+01  1.20100000E+01
  1.20100000E+01  1.00800000E+00  1.00800000E+00  1.00800000E+00  1.00800000E+00
  1.00800000E+00  1.00800000E+00  1.60000000E+01  1.20100000E+01  1.20100000E+01
  1.20100000E+01  1.00800000E+00  1.00800000E+00  1.00800000E+00  1.00800000E+00
  1.00800000E+00  1.00800000E+00  1.60000000E+01  1.20100000E+01  1.20100000E+01
  1.20100000E+01  1.00800000E+00  1.00800000E+00  1.00800000E+00  1.00800000E+00
  1.00800000E+00  1.00800000E+00  1.60000000E+01  1.20100000E+01  1.20100000E+01
  1.20100000E+01  1.00800000E+00  1.00800000E+00  1.00800000E+00  1.00800000E+00
  1.00800000E+00  1.00800000E+00  1.60000000E+01  1.20100000E+01  1.20100000E+01
  1.20100000E+01  1.00800000E+00  1.00800000E+00  1.00800000E+00  1.00800000E+00
  1.00800000E+00  1.00800000E+00  1.60000000E+01  1.20100000E+01  1.20100000E+01
  1.20100000E+01  1.00800000E+00  1.00800000E+00  1.00800000E+00  1.00800000E+00
  1.00800000E+00  1.00800000E+00  1.60000000E+01  1.20100000E+01  1.20100000E+01
  1.20100000E+01  1.00800000E+00  1.00800000E+00  1.00800000E+00  1.00800000E+00
  1.00800000E+00  1.00800000E+00  1.60000000E+01  1.20100000E+01  1.20100000E+01
  1.20100000E+01  1.00800000E+00  1.00800000E+00  1.00800000E+00  1.00800000E+00
  1.00800000E+00  1.00800000E+00  1.60000000E+01  1.20100000E+01  1.20100000E+01
  1.20100000E+01  1.00800000E+00  1.00800000E+00  1.00800000E+00  1.00800000E+00
  1.00800000E+00  1.00800000E+00  1.60000000E+01  1.20100000E+01  1.20100000E+01
  1.20100000E+01  1.00800000E+00  1.00800000E+00  1.00800000E+00  1.00800000E+00
  1.00800000E+00  1.00800000E+00  1.60000000E+01  1.20100000E+01  1.20100000E+01
  1.20100000E+01  1.00800000E+00  1.00800000E+00  1.00800000E+00  1.00800000E+00
  1.00800000E+00  1.00800000E+00  1.60000000E+01  1.20100000E+01  1.20100000E+01
  1.20100000E+01  1.00800000E+00  1.00800000E+00  1.00800000E+00  1.00800000E+00
  1.00800000E+00  1.00800000E+00  1.60000000E+01  1.20100000E+01  1.20100000E+01
  1.20100000E+01  1.00800000E+00  1.00800000E+00  1.00800000E+00  1.00800000E+00
  1.00800000E+00  1.00800000E+00  1.60000000E+01  1.20100000E+01  1.20100000E+01
  1.20100000E+01  1.00800000E+00  1.00800000E+00  1.00800000E+00  1.00800000E+00
  1.00800000E+00  1.00800000E+00  1.60000000E+01  1.20100000E+01  1.20100000E+01
  1.20100000E+01  1.00800000E+00  1.00800000E+00  1.00800000E+00  1.00800000E+00
  1.00800000E+00  1.00800000E+00  1.60000000E+01  1.20100000E+01  1.20100000E+01
  1.20100000E+01  1.00800000E+00  1.00800000E+00  1.00800000E+00  1.00800000E+00
  1.00800000E+00  1.00800000E+00  1.60000000E+01  1.20100000E+01  1.20100000E+01
  1.20100000E+01  1.00800000E+00  1.00800000E+00  1.00800000E+00  1.00800000E+00
  1.00800000E+00  1.00800000E+00  1.60000000E+01  1.20100000E+01  1.20100000E+01
  1.20100000E+01  1.00800000E+00  1.00800000E+00  1.00800000E+00  1.00800000E+00
  1.00800000E+00  1.00800000E+00  1.60000000E+01  1.20100000E+01  1.20100000E+01
  1.20100000E+01  1.00800000E+00  1.00800000E+00  1.00800000E+00  1.00800000E+00
  1.00800000E+00  1.00800000E+00  1.60000000E+01  1.20100000E+01  1.20100000E+01
  1.20100000E+01  1.00800000E+00  1.00800000E+00  1.00800000E+00  1.00800000E+00
  1.00800000E+00  1.00800000E+00  1.60000000E+01  1.20100000E+01  1.20100000E+01
  1.20100000E+01  1.00800000E+00  1.00800000E+00  1.00800000E+00  1.00800000E+00
  1.00800000E+00  1.00800000E+00  1.60000000E+01  1.20100000E+01  1.20100000E+01
  1.20100000E+01  1.00800000E+00  1.00800000E+00  1.00800000E+00  1.00800000E+00
  1.00800000E+00  1.00800000E+00  1.60000000E+01  1.20100000E+01  1.20100000E+01
  1.20100000E+01  1.00800000E+00  1.00800000E+00  1.00800000E+00  1.00800000E+00
  1.00800000E+00  1.00800000E+00  1.60000000E+01  1.20100000E+01  1.20100000E+01
  1.20100000E+01  1.00800000E+00  1.00800000E+00  1.00800000E+00  1.00800000E+00
  1.00800000E+00  1.00800000E+00  1.60000000E+01  1.20100000E+01  1.20100000E+01
  1.20100000E+01  1.00800000E+00  1.00800000E+00  1.00800000E+00  1.00800000E+00
  1.00800000E+00  1.00800000E+00  1.60000000E+01  1.20100000E+01  1.20100000E+01
  1.20100000E+01  1.00800000E+00  1.00800000E+00  1.00800000E+00  1.00800000E+00
  1.00800000E+00  1.00800000E+00  1.60000000E+01  1.20100000E+01  1.20100000E+01
  1.20100000E+01  1.00800000E+00  1.00800000E+00  1.00800000E+00  1.00800000E+00
  1.00800000E+00  1.00800000E+00  1.60000000E+01  1.20100000E+01  1.20100000E+01
  1.20100000E+01  1.00800000E+00  1.00800000E+00  1.00800000E+00  1.00800000E+00
  1.00800000E+00  1.00800000E+00  1.60000000E+01  1.20100000E+01  1.20100000E+01
  1.20100000E+01  1.00800000E+00  1.00800000E+00  1.00800000E+00  1.00800000E+00
  1.00800000E+00  1.00800000E+00  1.60000000E+01  1.20100000E+01  1.20100000E+01
  1.20100000E+01  1.00800000E+00  1.00800000E+00  1.00800000E+00  1.00800000E+00
  1.00800000E+00  1.00800000E+00  1.60000000E+01  1.20100000E+01  1.20100000E+01
  1.20100000E+01  1.00800000E+00  1.00800000E+00  1.00800000E+00  1.00800000E+00
  1.00800000E+00  1.00800000E+00  1.60000000E+01  1.20100000E+01  1.20100000E+01
  1.20100000E+01  1.00800000E+00  1.00800000E+00  1.00800000E+00  1.00800000E+00
  1.00800000E+00  1.00800000E+00  1.60000000E+01  1.20100000E+01  1.20100000E+01
  1.20100000E+01  1.00800000E+00  1.00800000E+00  1.00800000E+00  1.00800000E+00
  1.00800000E+00  1.00800000E+00  1.60000000E+01  1.20100000E+01  1.20100000E+01
  1.20100000E+01  1.00800000E+00  1.00800000E+00  1.00800000E+00  1.00800000E+00
  1.00800000E+00  1.00800000E+00  1.60000000E+01  1.20100000E+01  1.20100000E+01
  1.20100000E+01  1.00800000E+00  1.00800000E+00  1.00800000E+00  1.00800000E+00
  1.00800000E+00  1.00800000E+00  1.60000000E+01  1.20100000E+01  1.20100000E+01
  1.20100000E+01  1.00800000E+00  1.00800000E+00  1.00800000E+00  1.00800000E+00
  1.00800000E+00  1.00800000E+00  1.60000000E+01  1.20100000E+01  1.20100000E+01
  1.20100000E+01  1.00800000E+00  1.00800000E+00  1.00800000E+00  1.00800000E+00
  1.00800000E+00  1.00800000E+00  1.60000000E+01  1.20100000E+01  1.20100000E+01
  1.20100000E+01  1.00800000E+00  1.00800000E+00  1.00800000E+00  1.00800000E+00
  1.00800000E+00  1.00800000E+00  1.60000000E+01  1.20100000E+01  1.20100000E+01
  1.20100000E+01  1.00800000E+00  1.00800000E+00  1.00800000E+00  1.00800000E+00
  1.00800000E+00  1.00800000E+00  1.60000000E+01  1.20100000E+01  1.20100000E+01
  1.20100000E+01  1.00800000E+00  1.00800000E+00  1.00800000E+00  1.00800000E+00
  1.00800000E+00  1.00800000E+00  1.60000000E+01  1.20100000E+01  1.20100000E+01
  1.20100000E+01  1.00800000E+00  1.00800000E+00  1.00800000E+00  1.00800000E+00
  1.00800000E+00  1.00800000E+00  1.60000000E+01  1.20100000E+01  1.20100000E+01
  1.20100000E+01  1.00800000E+00  1.00800000E+00  1.00800000E+00  1.00800000E+00
  1.00800000E+00  1.00800000E+00  1.60000000E+01  1.20100000E+01  1.20100000E+01
  1.20100000E+01  1.00800000E+00  1.00800000E+00  1.00800000E+00  1.00800000E+00
  1.00800000E+00  1.00800000E+00  1.60000000E+01  1.20100000E+01  1.20100000E+01
  1.20100000E+01  1.00800000E+00  1.00800000E+00  1.00800000E+00  1.00800000E+00
  1.00800000E+00  1.00800000E+00  1.60000000E+01  1.20100000E+01  1.20100000E+01
  1.20100000E+01  1.00800000E+00  1.00800000E+00  1.00800000E+00  1.00800000E+00
  1.00800000E+00  1.00800000E+00  1.60000000E+01  1.20100000E+01  1.20100000E+01
  1.20100000E+01  1.00800000E+00  1.00800000E+00  1.00800000E+00  1.00800000E+00
  1.00800000E+00  1.00800000E+00  1.60000000E+01  1.20100000E+01  1.20100000E+01
  1.20100000E+01  1.00800000E+00  1.00800000E+00  1.00800000E+00  1.00800000E+00
  1.00800000E+00  1.00800000E+00  1.60000000E+01  1.20100000E+01  1.20100000E+01
  1.20100000E+01  1.00800000E+00  1.00800000E+00  1.00800000E+00  1.00800000E+00
  1.00800000E+00  1.00800000E+00  1.60000000E+01  1.20100000E+01  1.20100000E+01
  1.20100000E+01  1.00800000E+00  1.00800000E+00  1.00800000E+00  1.00800000E+00
  1.00800000E+00  1.00800000E+00  1.60000000E+01  1.20100000E+01  1.20100000E+01
  1.20100000E+01  1.00800000E+00  1.00800000E+00  1.00800000E+00  1.00800000E+00
  1.00800000E+00  1.00800000E+00  1.60000000E+01  1.20100000E+01  1.20100000E+01
  1.20100000E+01  1.00800000E+00  1.00800000E+00  1.00800000E+00  1.00800000E+00
  1.00800000E+00  1.00800000E+00  1.60000000E+01  1.20100000E+01  1.20100000E+01
  1.20100000E+01  1.00800000E+00  1.00800000E+00  1.00800000E+00  1.00800000E+00
  1.00800000E+00  1.00800000E+00  1.60000000E+01  1.20100000E+01  1.20100000E+01
  1.20100000E+01  1.00800000E+00  1.00800000E+00  1.00800000E+00  1.00800000E+00
  1.00800000E+00  1.00800000E+00  1.60000000E+01  1.20100000E+01  1.20100000E+01
  1.20100000E+01  1.00800000E+00  1.00800000E+00  1.00800000E+00  1.00800000E+00
  1.00800000E+00  1.00800000E+00  1.60000000E+01  1.20100000E+01  1.20100000E+01
  1.20100000E+01  1.00800000E+00  1.00800000E+00  1.00800000E+00  1.00800000E+00
  1.00800000E+00  1.00800000E+00  1.60000000E+01  1.20100000E+01  1.20100000E+01
  1.20100000E+01  1.00800000E+00  1.00800000E+00  1.00800000E+00  1.00800000E+00
  1.00800000E+00  1.00800000E+00  1.60000000E+01  1.20100000E+01  1.20100000E+01
  1.20100000E+01  1.00800000E+00  1.00800000E+00  1.00800000E+00  1.00800000E+00
  1.00800000E+00  1.00800000E+00  1.60000000E+01  1.20100000E+01  1.20100000E+01
  1.20100000E+01  1.00800000E+00  1.00800000E+00  1.00800000E+00  1.00800000E+00
  1.00800000E+00  1.00800000E+00  1.60000000E+01  1.20100000E+01  1.20100000E+01
  1.20100000E+01  1.00800000E+00  1.00800000E+00  1.00800000E+00  1.00800000E+00
  1.00800000E+00  1.00800000E+00  1.60000000E+01  1.20100000E+01  1.20100000E+01
  1.20100000E+01  1.00800000E+00  1.00800000E+00  1.00800000E+00  1.00800000E+00
  1.00800000E+00  1.00800000E+00  1.60000000E+01  1.20100000E+01  1.20100000E+01
  1.20100000E+01  1.00800000E+00  1.00800000E+00  1.00800000E+00  1.00800000E+00
  1.00800000E+00  1.00800000E+00  1.60000000E+01  1.20100000E+01  1.20100000E+01
  1.20100000E+01  1.00800000E+00  1.00800000E+00  1.00800000E+00  1.00800000E+00
  1.00800000E+00  1.00800000E+00  1.60000000E+01  1.20100000E+01  1.20100000E+01
  1.20100000E+01  1.00800000E+00  1.00800000E+00  1.00800000E+00  1.00800000E+00
  1.00800000E+00  1.00800000E+00  1.60000000E+01  1.20100000E+01  1.20100000E+01
  1.20100000E+01  1.00800000E+00  1.00800000E+00  1.00800000E+00  1.00800000E+00
  1.00800000E+00  1.00800000E+00  1.60000000E+01  1.20100000E+01  1.20100000E+01
  1.20100000E+01  1.00800000E+00  1.00800000E+00  1.00800000E+00  1.00800000E+00
  1.00800000E+00  1.00800000E+00  1.60000000E+01  1.20100000E+01  1.20100000E+01
  1.20100000E+01  1.00800000E+00  1.00800000E+00  1.00800000E+00  1.00800000E+00
  1.00800000E+00  1.00800000E+00  1.60000000E+01  1.20100000E+01  1.20100000E+01
  1.20100000E+01  1.00800000E+00  1.00800000E+00  1.00800000E+00  1.00800000E+00
  1.00800000E+00  1.00800000E+00  1.60000000E+01  1.20100000E+01  1.20100000E+01
  1.20100000E+01  1.00800000E+00  1.00800000E+00  1.00800000E+00  1.00800000E+00
  1.00800000E+00  1.00800000E+00  1.60000000E+01  1.20100000E+01  1.20100000E+01
  1.20100000E+01  1.00800000E+00  1.00800000E+00  1.00800000E+00  1.00800000E+00
  1.00800000E+00  1.00800000E+00  1.60000000E+01  1.20100000E+01  1.20100000E+01
  1.20100000E+01  1.00800000E+00  1.00800000E+00  1.00800000E+00  1.00800000E+00
  1.00800000E+00  1.00800000E+00  1.60000000E+01  1.20100000E+01  1.20100000E+01
  1.20100000E+01  1.00800000E+00  1.00800000E+00  1.00800000E+00  1.00800000E+00
  1.00800000E+00  1.00800000E+00  1.60000000E+01  1.20100000E+01  1.20100000E+01
  1.20100000E+01  1.00800000E+00  1.00800000E+00  1.00800000E+00  1.00800000E+00
  1.00800000E+00  1.00800000E+00  1.60000000E+01  1.20100000E+01  1.20100000E+01
  1.20100000E+01  1.00800000E+00  1.00800000E+00  1.00800000E+00  1.00800000E+00
  1.00800000E+00  1.00800000E+00  1.60000000E+01  1.20100000E+01  1.20100000E+01
  1.20100000E+01  1.00800000E+00  1.00800000E+00  1.00800000E+00  1.00800000E+00
  1.00800000E+00  1.00800000E+00  1.60000000E+01  1.20100000E+01  1.20100000E+01
  1.20100000E+01  1.00800000E+00  1.00800000E+00  1.00800000E+00  1.00800000E+00
  1.00800000E+00  1.00800000E+00  1.60000000E+01  1.20100000E+01  1.20100000E+01
  1.20100000E+01  1.00800000E+00  1.00800000E+00  1.00800000E+00  1.00800000E+00
  1.00800000E+00  1.00800000E+00  1.60000000E+01  1.20100000E+01  1.20100000E+01
  1.20100000E+01  1.00800000E+00  1.00800000E+00  1.00800000E+00  1.00800000E+00
  1.00800000E+00  1.00800000E+00  1.60000000E+01  1.20100000E+01  1.20100000E+01
  1.20100000E+01  1.00800000E+00  1.00800000E+00  1.00800000E+00  1.00800000E+00
  1.00800000E+00  1.00800000E+00  1.60000000E+01  1.20100000E+01  1.20100000E+01
  1.20100000E+01  1.00800000E+00  1.00800000E+00  1.00800000E+00  1.00800000E+00
  1.00800000E+00  1.00800000E+00  1.60000000E+01  1.20100000E+01  1.20100000E+01
  1.20100000E+01  1.00800000E+00  1.00800000E+00  1.00800000E+00  1.00800000E+00
  1.00800000E+00  1.00800000E+00  1.60000000E+01  1.20100000E+01  1.20100000E+01
  1.20100000E+01  1.00800000E+00  1.00800000E+00  1.00800000E+00  1.00800000E+00
  1.00800000E+00  1.00800000E+00  1.60000000E+01  1.20100000E+01  1.20100000E+01
  1.20100000E+01  1.00800000E+00  1.00800000E+00  1.00800000E+00  1.00800000E+00
  1.00800000E+00  1.00800000E+00  1.60000000E+01  1.20100000E+01  1.20100000E+01
  1.20100000E+01  1.00800000E+00  1.00800000E+00  1.00800000E+00  1.00800000E+00
  1.00800000E+00  1.00800000E+00  1.60000000E+01  1.20100000E+01  1.20100000E+01
  1.20100000E+01  1.00800000E+00  1.00800000E+00  1.00800000E+00  1.00800000E+00
  1.00800000E+00  1.00800000E+00  1.60000000E+01  1.20100000E+01  1.20100000E+01
  1.20100000E+01  1.00800000E+00  1.00800000E+00  1.00800000E+00  1.00800000E+00
  1.00800000E+00  1.00800000E+00  1.60000000E+01  1.20100000E+01  1.20100000E+01
  1.20100000E+01  1.00800000E+00  1.00800000E+00  1.00800000E+00  1.00800000E+00
  1.00800000E+00  1.00800000E+00  1.60000000E+01  1.20100000E+01  1.20100000E+01
  1.20100000E+01  1.00800000E+00  1.00800000E+00  1.00800000E+00  1.00800000E+00
  1.00800000E+00  1.00800000E+00  1.60000000E+01  1.20100000E+01  1.20100000E+01
  1.20100000E+01  1.00800000E+00  1.00800000E+00  1.00800000E+00  1.00800000E+00
  1.00800000E+00  1.00800000E+00  1.60000000E+01  1.20100000E+01  1.20100000E+01
  1.20100000E+01  1.00800000E+00  1.00800000E+00  1.00800000E+00  1.00800000E+00
  1.00800000E+00  1.00800000E+00  1.60000000E+01  1.20100000E+01  1.20100000E+01
  1.20100000E+01  1.00800000E+00  1.00800000E+00  1.00800000E+00  1.00800000E+00
  1.00800000E+00  1.00800000E+00  1.60000000E+01  1.20100000E+01  1.20100000E+01
  1.20100000E+01  1.00800000E+00  1.00800000E+00  1.00800000E+00  1.00800000E+00
  1.00800000E+00  1.00800000E+00  1.60000000E+01  1.20100000E+01  1.20100000E+01
  1.20100000E+01  1.00800000E+00  1.00800000E+00  1.00800000E+00  1.00800000E+00
  1.00800000E+00  1.00800000E+00  1.60000000E+01  1.20100000E+01  1.20100000E+01
  1.20100000E+01  1.00800000E+00  1.00800000E+00  1.00800000E+00  1.00800000E+00
  1.00800000E+00  1.00800000E+00  1.60000000E+01  1.20100000E+01  1.20100000E+01
  1.20100000E+01  1.00800000E+00  1.00800000E+00  1.00800000E+00  1.00800000E+00
  1.00800000E+00  1.00800000E+00  1.60000000E+01  1.20100000E+01  1.20100000E+01
  1.20100000E+01  1.00800000E+00  1.00800000E+00  1.00800000E+00  1.00800000E+00
  1.00800000E+00  1.00800000E+00  1.60000000E+01  1.20100000E+01  1.20100000E+01
  1.20100000E+01  1.00800000E+00  1.00800000E+00  1.00800000E+00  1.00800000E+00
  1.00800000E+00  1.00800000E+00  1.60000000E+01  1.20100000E+01  1.20100000E+01
  1.20100000E+01  1.00800000E+00  1.00800000E+00  1.00800000E+00  1.00800000E+00
  1.00800000E+00  1.00800000E+00  1.60000000E+01  1.20100000E+01  1.20100000E+01
  1.20100000E+01  1.00800000E+00  1.00800000E+00  1.00800000E+00  1.00800000E+00
  1.00800000E+00  1.00800000E+00  1.60000000E+01  1.20100000E+01  1.20100000E+01
  1.20100000E+01  1.00800000E+00  1.00800000E+00  1.00800000E+00  1.00800000E+00
  1.00800000E+00  1.00800000E+00  1.60000000E+01  1.20100000E+01  1.20100000E+01
  1.20100000E+01  1.00800000E+00  1.00800000E+00  1.00800000E+00  1.00800000E+00
  1.00800000E+00  1.00800000E+00  1.60000000E+01  1.20100000E+01  1.20100000E+01
  1.20100000E+01  1.00800000E+00  1.00800000E+00  1.00800000E+00  1.00800000E+00
  1.00800000E+00  1.00800000E+00  1.60000000E+01  1.20100000E+01  1.20100000E+01
  1.20100000E+01  1.00800000E+00  1.00800000E+00  1.00800000E+00  1.00800000E+00
  1.00800000E+00  1.00800000E+00  1.60000000E+01  1.20100000E+01  1.20100000E+01
  1.20100000E+01  1.00800000E+00  1.00800000E+00  1.00800000E+00  1.00800000E+00
  1.00800000E+00  1.00800000E+00  1.60000000E+01  1.20100000E+01  1.20100000E+01
  1.20100000E+01  1.00800000E+00  1.00800000E+00  1.00800000E+00  1.00800000E+00
  1.00800000E+00  1.00800000E+00  1.60000000E+01  1.20100000E+01  1.20100000E+01
  1.20100000E+01  1.00800000E+00  1.00800000E+00  1.00800000E+00  1.00800000E+00
  1.00800000E+00  1.00800000E+00  1.60000000E+01  1.20100000E+01  1.20100000E+01
  1.20100000E+01  1.00800000E+00  1.00800000E+00  1.00800000E+00  1.00800000E+00
  1.00800000E+00  1.00800000E+00  1.60000000E+01  1.20100000E+01  1.20100000E+01
  1.20100000E+01  1.00800000E+00  1.00800000E+00  1.00800000E+00  1.00800000E+00
  1.00800000E+00  1.00800000E+00  1.60000000E+01  1.20100000E+01  1.20100000E+01
  1.20100000E+01  1.00800000E+00  1.00800000E+00  1.00800000E+00  1.00800000E+00
  1.00800000E+00  1.00800000E+00  1.60000000E+01  1.20100000E+01  1.20100000E+01
  1.20100000E+01  1.00800000E+00  1.00800000E+00  1.00800000E+00  1.00800000E+00
  1.00800000E+00  1.00800000E+00  1.60000000E+01  1.20100000E+01  1.20100000E+01
  1.20100000E+01  1.00800000E+00  1.00800000E+00  1.00800000E+00  1.00800000E+00
  1.00800000E+00  1.00800000E+00  1.60000000E+01  1.20100000E+01  1.20100000E+01
  1.20100000E+01  1.00800000E+00  1.00800000E+00  1.00800000E+00  1.00800000E+00
  1.00800000E+00  1.00800000E+00  1.60000000E+01  1.20100000E+01  1.20100000E+01
  1.20100000E+01  1.00800000E+00  1.00800000E+00  1.00800000E+00  1.00800000E+00
  1.00800000E+00  1.00800000E+00  1.60000000E+01  1.20100000E+01  1.20100000E+01
  1.20100000E+01  1.00800000E+00  1.00800000E+00  1.00800000E+00  1.00800000E+00
  1.00800000E+00  1.00800000E+00  1.60000000E+01  1.20100000E+01  1.20100000E+01
  1.20100000E+01  1.00800000E+00  1.00800000E+00  1.00800000E+00  1.00800000E+00
  1.00800000E+00  1.00800000E+00  1.60000000E+01  1.20100000E+01  1.20100000E+01
  1.20100000E+01  1.00800000E+00  1.00800000E+00  1.00800000E+00  1.00800000E+00
  1.00800000E+00  1.00800000E+00  1.60000000E+01  1.20100000E+01  1.20100000E+01
  1.20100000E+01  1.00800000E+00  1.00800000E+00  1.00800000E+00  1.00800000E+00
  1.00800000E+00  1.00800000E+00  1.60000000E+01  1.20100000E+01  1.20100000E+01
  1.20100000E+01  1.00800000E+00  1.00800000E+00  1.00800000E+00  1.00800000E+00
  1.00800000E+00  1.00800000E+00  1.60000000E+01  1.20100000E+01  1.20100000E+01
  1.20100000E+01  1.00800000E+00  1.00800000E+00  1.00800000E+00  1.00800000E+00
  1.00800000E+00  1.00800000E+00
%FLAG ATOM_TYPE_INDEX                                                           
%FORMAT(10I8)                                                                   
       1       2       3       4       5       5       5       5       6       6
       5       5       5       5       5       5       5       5       6       6
       5       5       5       5       7       7       7       7       8       8
       8       8       9       9       9       9       9       9       8       8
       8       8       2       5       6       6       9       9       9       9
       9       9       2       5       6       6       9       9       9       9
       9       9       2       5       6       6       9       9       9       9
       9       9       2       5       6       6       9       9       9       9
       9       9       2       5       6       6       9       9       9       9
       9       9       2       5       6       6       9       9       9       9
       9       9       2       5       6       6       9       9       9       9
       9       9       2       5       6       6       9       9       9       9
       9       9       2       5       6       6       9       9       9       9
       9       9       2       5       6       6       9       9       9       9
       9       9       2       5       6       6       9       9       9       9
       9       9       2       5       6       6       9       9       9       9
       9       9       2       5       6       6       9       9       9       9
       9       9       2       5       6       6       9       9       9       9
       9       9       2       5       6       6       9       9       9       9
       9       9       2       5       6       6       9       9       9       9
       9       9       2       5       6       6       9       9       9       9
       9       9       2       5       6       6       9       9       9       9
       9       9       2       5       6       6       9       9       9       9
       9       9       2       5       6       6       9       9       9       9
       9       9       2       5       6       6       9       9       9       9
       9       9       2       5       6       6       9       9       9       9
       9       9       2       5       6       6       9       9       9       9
       9       9       2       5       6       6       9       9       9       9
       9       9       2       5       6       6       9       9       9       9
       9       9       2       5       6       6       9       9       9       9
       9       9       2       5       6       6       9       9       9       9
       9       9       2       5       6       6       9       9       9       9
       9       9       2       5       6       6       9       9       9       9
       9       9       2       5       6       6       9       9       9       9
       9       9       2       5       6       6       9       9       9       9
       9       9       2       5       6       6       9       9       9       9
       9       9       2       5       6       6       9       9       9       9
       9       9       2       5       6       6       9       9       9       9
       9       9       2       5       6       6       9       9       9       9
       9       9       2       5       6       6       9       9       9       9
       9       9       2       5       6       6       9       9       9       9
       9       9       2       5       6       6       9       9       9       9
       9       9       2       5       6       6       9       9       9       9
       9       9       2       5       6       6       9       9       9       9
       9       9       2       5       6       6       9       9       9       9
       9       9       2       5       6       6       9       9       9       9
       9       9       2       5       6       6       9       9       9       9
       9       9       2       5       6       6       9       9       9       9
       9       9       2       5       6       6       9       9       9       9
       9       9       2       5       6       6       9       9       9       9
       9       9       2       5       6       6       9       9       9       9
       9       9       2       5       6       6       9       9       9       9
       9       9       2       5       6       6       9       9       9       9
       9       9       2       5       6       6       9       9       9       9
       9       9       2       5       6       6       9       9       9       9
       9       9       2       5       6       6       9       9       9       9
       9       9       2       5       6       6       9       9       9       9
       9       9       2       5       6       6       9       9       9       9
       9       9       2       5       6       6       9       9       9       9
       9       9       2       5       6       6       9       9       9       9
       9       9       2       5       6       6       9       9       9       9
       9       9       2       5       6       6       9       9       9       9
       9       9       2       5       6       6       9       9       9       9
       9       9       2       5       6       6       9       9       9       9
       9       9       2       5       6       6       9       9       9       9
       9       9       2       5       6       6       9       9       9       9
       9       9       2       5       6       6       9       9       9       9
       9       9       2       5       6       6       9       9       9       9
       9       9       2       5       6       6       9       9       9       9
       9       9       2       5       6       6       9       9       9       9
       9       9       2       5       6       6       9       9       9       9
       9       9       2       5       6       6       9       9       9       9
       9       9       2       5       6       6       9       9       9       9
       9       9       2       5       6       6       9       9       9       9
       9       9       2       5       6       6       9       9       9       9
       9       9       2       5       6       6       9       9       9       9
       9       9       2       5       6       6       9       9       9       9
       9       9       2       5       6       6       9       9       9       9
       9       9       2       5       6       6       9       9       9       9
       9       9       2       5       6       6       9       9       9       9
       9       9       2       5       6       6       9       9       9       9
       9       9       2       5       6       6       9       9       9       9
       9       9       2       5       6       6       9       9       9       9
       9       9       2       5       6       6       9       9       9       9
       9       9       2       5       6       6       9       9       9       9
       9       9       2       5       6       6       9       9       9       9
       9       9       2       5       6       6       9       9       9       9
       9       9       2       5       6       6       9       9       9       9
       9       9       2       5       6       6       9       9       9       9
       9       9       2       5       6       6       9       9       9       9
       9       9       2       5       6       6       9       9       9       9
       9       9       2       5       6       6       9       9       9       9
       9       9       2       5       6       6       9       9       9       9
       9       9       2       5       6       6       9       9       9       9
       9       9       2       5       6       6       9       9       9       9
       9       9       2       5       6       6       9       9       9       9
       9       9       2       5       6       6       9       9       9       9
       9       9       2       5       6       6       9       9       9       9
       9       9       2       5       6       6       9       9       9       9
       9       9       2       5       6       6       9       9       9       9
       9       9       2       5       6       6       9       9       9       9
       9       9       2       5       6       6       9       9       9       9
       9       9       2       5       6       6       9       9       9       9
       9       9       2       5       6       6       9       9       9       9
       9       9       2       5       6       6       9       9       9       9
       9       9       2       5       6       6       9       9       9       9
       9       9       2       5       6       6       9       9       9       9
       9       9       2       5       6       6       9       9       9       9
       9       9       2       5       6       6       9       9       9       9
       9       9       2       5       6       6       9       9       9       9
       9       9       2       5       6       6       9       9       9       9
       9       9       2       5       6       6       9       9       9       9
       9       9       2       5       6       6       9       9       9       9
       9       9       2       5       6       6       9       9       9       9
       9       9       2       5       6       6       9       9       9       9
       9       9       2       5       6       6       9       9       9       9
       9       9       2       5       6       6       9       9       9       9
       9       9       2       5       6       6       9       9       9       9
       9       9       2       5       6       6       9       9       9       9
       9       9       2       5       6       6       9       9       9       9
       9       9       2       5       6       6       9       9       9       9
       9       9       2       5       6       6       9       9       9       9
       9       9       2       5       6       6       9       9       9       9
       9       9       2       5       6       6       9       9       9       9
       9       9       2       5       6       6       9       9       9       9
       9       9       2       5       6       6       9       9       9       9
       9       9       2       5       6       6       9       9       9       9
       9       9       2       5       6       6       9       9       9       9
       9       9       2       5       6       6       9       9       9       9
       9       9       2       5       6       6       9       9       9       9
       9       9       2       5       6       6       9       9       9       9
       9       9       2       5       6       6       9       9       9       9
       9       9       2       5       6       6       9       9       9       9
       9       9       2       5       6       6       9       9       9       9
       9       9       2       5       6       6       9       9       9       9
       9       9       2       5       6       6       9       9       9       9
       9       9       2       5       6       6       9       9       9       9
       9       9       2       5       6       6       9       9       9       9
       9       9       2       5       6       6       9       9       9       9
       9       9       2       5       6       6       9       9       9       9
       9       9       2       5       6       6       9       9       9       9
       9       9       2       5       6       6       9       9       9       9
       9       9       2       5       6       6       9       9       9       9
       9       9       2       5       6       6       9       9       9       9
       9       9       2       5       6       6       9       9       9       9
       9       9       2       5       6       6       9       9       9       9
       9       9       2       5       6       6       9       9       9       9
       9       9       2       5       6       6       9       9       9       9
       9       9       2       5       6       6       9       9       9       9
       9       9       2       5       6       6       9       9       9       9
       9       9       2       5       6       6       9       9       9       9
       9       9       2       5       6       6       9       9       9       9
       9       9       2       5       6       6       9       9       9       9
       9       9       2       5       6       6       9       9       9       9
       9       9       2       5       6       6       9       9       9       9
       9       9       2       5       6       6       9       9       9       9
       9       9       2       5       6       6       9       9       9       9
       9       9       2       5       6       6       9       9       9       9
       9       9       2       5       6       6       9       9       9       9
       9       9       2       5       6       6       9       9       9       9
       9       9       2       5       6       6       9       9       9       9
       9       9       2       5       6       6       9       9       9       9
       9       9       2       5       6       6       9       9       9       9
       9       9       2       5       6       6       9       9       9       9
       9       9       2       5       6       6       9       9       9       9
       9       9       2       5       6       6       9       9       9       9
       9       9       2       5       6       6       9       9       9       9
       9       9       2       5       6       6       9       9       9       9
       9       9       2       5       6       6       9       9       9       9
       9       9       2       5       6       6       9       9       9       9
       9       9       2       5       6       6       9       9       9       9
       9       9       2       5       6       6       9       9       9       9
       9       9       2       5       6       6       9       9       9       9
       9       9       2       5       6       6       9       9       9       9
       9       9       2       5       6       6       9       9       9       9
       9       9       2       5       6       6       9       9       9       9
       9       9       2       5       6       6       9       9       9       9
       9       9       2       5       6       6       9       9       9       9
       9       9       2       5       6       6       9       9       9       9
       9       9       2       5       6       6       9       9       9       9
       9       9       2       5       6       6       9       9       9       9
       9       9       2       5       6       6       9       9       9       9
       9       9       2       5       6       6       9       9       9       9
       9       9       2       5       6       6       9       9       9       9
       9       9       2       5       6       6       9       9       9       9
       9       9       2       5       6       6       9       9       9       9
       9       9       2       5       6       6       9       9       9       9
       9       9       2       5       6       6       9       9       9       9
       9       9       2       5       6       6       9       9       9       9
       9       9       2       5       6       6       9       9       9       9
       9       9       2       5       6       6       9       9       9       9
       9       9       2       5       6       6       9       9       9       9
       9       9       2       5       6       6       9       9       9       9
       9       9       2       5       6       6       9       9       9       9
       9       9       2       5       6       6       9       9       9       9
       9       9       2       5       6       6       9       9       9       9
       9       9       2       5       6       6       9       9       9       9
       9       9       2       5       6       6       9       9       9       9
       9       9       2       5       6       6       9       9       9       9
       9       9       2       5       6       6       9       9       9       9
       9       9       2       5       6       6       9       9       9       9
       9       9       2       5       6       6       9       9       9       9
       9       9       2       5       6       6       9       9       9       9
       9       9       2       5       6       6       9       9       9       9
       9       9       2       5       6       6       9       9       9       9
       9       9       2       5       6       6       9       9       9       9
       9       9       2       5       6       6       9       9       9       9
       9       9       2       5       6       6       9       9       9       9
       9       9       2       5       6       6       9       9       9       9
       9       9       2       5       6       6       9       9       9       9
       9       9       2       5       6       6       9       9       9       9
       9       9       2       5       6       6       9       9       9       9
       9       9       2       5       6       6       9       9       9       9
       9       9       2       5       6       6       9       9       9       9
       9       9       2       5       6       6       9       9       9       9
       9       9       2       5       6       6       9       9       9       9
       9       9       2       5       6       6       9       9       9       9
       9       9       2       5       6       6       9       9       9       9
       9       9       2       5       6       6       9       9       9       9
       9       9       2       5       6       6       9       9       9       9
       9       9       2       5       6       6       9       9       9       9
       9       9       2       5       6       6       9       9       9       9
       9       9       2       5       6       6       9       9       9       9
       9       9       2       5       6       6       9       9       9       9
       9       9       2       5       6       6       9       9       9       9
       9       9       2       5       6       6       9       9       9       9
       9       9       2       5       6       6       9       9       9       9
       9       9       2       5       6       6       9       9       9       9
       9       9       2       5       6       6       9       9       9       9
       9       9       2       5       6       6       9       9       9       9
       9       9       2       5       6       6       9       9       9       9
       9       9       2       5       6       6       9       9       9       9
       9       9       2       5       6       6       9       9       9       9
       9       9       2       5       6       6       9       9       9       9
       9       9       2       5       6       6       9       9       9       9
       9       9       2       5       6       6       9       9       9       9
       9       9       2       5       6       6       9       9       9       9
       9       9       2       5       6       6       9       9       9       9
       9       9       2       5       6       6       9       9       9       9
       9       9       2       5       6       6       9       9       9       9
       9       9       2       5       6       6       9       9       9       9
       9       9       2       5       6       6       9       9       9       9
       9       9       2       5       6       6       9       9       9       9
       9       9       2       5       6       6       9       9       9       9
       9       9       2       5       6       6       9       9       9       9
       9       9       2       5       6       6       9       9       9       9
       9       9       2       5       6       6       9       9       9       9
       9       9       2       5       6       6       9       9       9       9
       9       9       2       5       6       6       9       9       9       9
       9       9       2       5       6       6       9       9       9       9
       9       9       2       5       6       6       9       9       9       9
       9       9       2       5       6       6       9       9       9       9
       9       9       2       5       6       6       9       9       9       9
       9       9       2       5       6       6       9       9       9       9
       9       9       2       5       6       6       9       9       9       9
       9       9       2       5       6       6       9       9       9       9
       9       9       2       5       6       6       9       9       9       9
       9       9       2       5       6       6       9       9       9       9
       9       9       2       5       6       6       9       9       9       9
       9       9       2       5       6       6       9       9       9       9
       9       9       2       5       6       6       9       9       9       9
       9       9       2       5       6       6       9       9       9       9
       9       9       2       5       6       6       9       9       9       9
       9       9       2       5       6       6       9       9       9       9
       9       9       2       5       6       6       9       9       9       9
       9       9       2       5       6       6       9       9       9       9
       9       9       2       5       6       6       9       9       9       9
       9       9       2       5       6       6       9       9       9       9
       9       9       2       5       6       6       9       9       9       9
       9       9       2       5       6       6       9       9       9       9
       9       9       2       5       6       6       9       9       9       9
       9       9       2       5       6       6       9       9       9       9
       9       9       2       5       6       6       9       9       9       9
       9       9       2       5       6       6       9       9       9       9
       9       9       2       5       6       6       9       9       9       9
       9       9       2       5       6       6       9       9       9       9
       9       9       2       5       6       6       9       9       9       9
       9       9       2       5       6       6       9       9       9       9
       9       9       2       5       6       6       9       9       9       9
       9       9       2       5       6       6       9       9       9       9
       9       9       2       5       6       6       9       9       9       9
       9       9       2       5       6       6       9       9       9       9
       9       9       2       5       6       6       9       9       9       9
       9       9       2       5       6       6       9       9       9       9
       9       9       2       5       6       6       9       9       9       9
       9       9       2       5       6       6       9       9       9       9
       9       9       2       5       6       6       9       9       9       9
       9       9       2       5       6       6       9       9       9       9
       9       9       2       5       6       6       9       9       9       9
       9       9       2       5       6       6       9       9       9       9
       9       9       2       5       6       6       9       9       9       9
       9       9       2       5       6       6       9       9       9       9
       9       9       2       5       6       6       9       9       9       9
       9       9       2       5       6       6       9       9       9       9
       9       9       2       5       6       6       9       9       9       9
       9       9       2       5       6       6       9       9       9       9
       9       9       2       5       6       6       9       9       9       9
       9       9       2       5       6       6       9       9       9       9
       9       9       2       5       6       6       9       9       9       9
       9       9       2       5       6       6       9       9       9       9
       9       9       2       5       6       6       9       9       9       9
       9       9       2       5       6       6       9       9       9       9
       9       9       2       5       6       6       9       9       9       9
       9       9       2       5       6       6       9       9       9       9
       9       9       2       5       6       6       9       9       9       9
       9       9       2       5       6       6       9       9       9       9
       9       9       2       5       6       6       9       9       9       9
       9       9       2       5       6       6       9       9       9       9
       9       9       2       5       6       6       9       9       9       9
       9       9       2       5       6       6       9       9       9       9
       9       9       2       5       6       6       9       9       9       9
       9       9       2       5       6       6       9       9       9       9
       9       9       2       5       6       6       9       9       9       9
       9       9       2       5       6       6       9       9       9       9
       9       9       2       5       6       6       9       9       9       9
       9       9       2       5       6       6       9       9       9       9
       9       9       2       5       6       6       9       9       9       9
       9       9       2       5       6       6       9       9       9       9
       9       9       2       5       6       6       9       9       9       9
       9       9       2       5       6       6       9       9       9       9
       9       9       2       5       6       6       9       9       9       9
       9       9       2       5       6       6       9       9       9       9
       9       9       2       5       6       6       9       9       9       9
       9       9       2       5       6       6       9       9       9       9
       9       9       2       5       6       6       9       9       9       9
       9       9       2       5       6       6       9       9       9       9
       9       9       2       5       6       6       9       9       9       9
       9       9       2       5       6       6       9       9       9       9
       9       9       2       5       6       6       9       9       9       9
       9       9       2       5       6       6       9       9       9       9
       9       9       2       5       6       6       9       9       9       9
       9       9       2       5       6       6       9       9       9       9
       9       9       2       5       6       6       9       9       9       9
       9       9       2       5       6       6       9       9       9       9
       9       9       2       5       6       6       9       9       9       9
       9       9       2       5       6       6       9       9       9       9
       9       9       2       5       6       6       9       9       9       9
       9       9       2       5       6       6       9       9       9       9
       9       9       2       5       6       6       9       9       9       9
       9       9       2       5       6       6       9       9       9       9
       9       9       2       5       6       6       9       9       9       9
       9       9       2       5       6       6       9       9       9       9
       9       9       2       5       6       6       9       9       9       9
       9       9       2       5       6       6       9       9       9       9
       9       9
%FLAG NUMBER_EXCLUDED_ATOMS                                                     
%FORMAT(10I8)                                                                   
      13       7      21      12      16       9      12       8      12      11
       5      11       5       4      10       2       3       5       5       5
       6       5       5       4       4       3       4       3       1       1
       1       1       2       1       1       2       1       1       1       1
       1       1       9       8       7       6       2       1       1       2
       1       1       9       8       7       6       2       1       1       2
       1       1       9       8       7       6       2       1       1       2
       1       1       9       8       7       6       2       1       1       2
       1       1       9       8       7       6       2       1       1       2
       1       1       9       8       7       6       2       1       1       2
       1       1       9       8       7       6       2       1       1       2
       1       1       9       8       7       6       2       1       1       2
       1       1       9       8       7       6       2       1       1       2
       1       1       9       8       7       6       2       1       1       2
       1       1       9       8       7       6       2       1       1       2
       1       1       9       8       7       6       2       1       1       2
       1       1       9       8       7       6       2       1       1       2
       1       1       9       8       7       6       2       1       1       2
       1       1       9       8       7       6       2       1       1       2
       1       1       9       8       7       6       2       1       1       2
       1       1       9       8       7       6       2       1       1       2
       1       1       9       8       7       6       2       1       1       2
       1       1       9       8       7       6       2       1       1       2
       1       1       9       8       7       6       2       1       1       2
       1       1       9       8       7       6       2       1       1       2
       1       1       9       8       7       6       2       1       1       2
       1       1       9       8       7       6       2       1       1       2
       1       1       9       8       7       6       2       1       1       2
       1       1       9       8       7       6       2       1       1       2
       1       1       9       8       7       6       2       1       1       2
       1       1       9       8       7       6       2       1       1       2
       1       1       9       8       7       6       2       1       1       2
       1       1       9       8       7       6       2       1       1       2
       1       1       9       8       7       6       2       1       1       2
       1       1       9       8       7       6       2       1       1       2
       1       1       9       8       7       6       2       1       1       2
       1       1       9       8       7       6       2       1       1       2
       1       1       9       8       7       6       2       1       1       2
       1       1       9       8       7       6       2       1       1       2
       1       1       9       8       7       6       2       1       1       2
       1       1       9       8       7       6       2       1       1       2
       1       1       9       8       7       6       2       1       1       2
       1       1       9       8       7       6       2       1       1       2
       1       1       9       8       7       6       2       1       1       2
       1       1       9       8       7       6       2       1       1       2
       1       1       9       8       7       6       2       1       1       2
       1       1       9       8       7       6       2       1       1       2
       1       1       9       8       7       6       2       1       1       2
       1       1       9       8       7       6       2       1       1       2
       1       1       9       8       7       6       2       1       1       2
       1       1       9       8       7       6       2       1       1       2
       1       1       9       8       7       6       2       1       1       2
       1       1       9       8       7       6       2       1       1       2
       1       1       9       8       7       6       2       1       1       2
       1       1       9       8       7       6       2       1       1       2
       1       1       9       8       7       6       2       1       1       2
       1       1       9       8       7       6       2       1       1       2
       1       1       9       8       7       6       2       1       1       2
       1       1       9       8       7       6       2       1       1       2
       1       1       9       8       7       6       2       1       1       2
       1       1       9       8       7       6       2       1       1       2
       1       1       9       8       7       6       2       1       1       2
       1       1       9       8       7       6       2       1       1       2
       1       1       9       8       7       6       2       1       1       2
       1       1       9       8       7       6       2       1       1       2
       1       1       9       8       7       6       2       1       1       2
       1       1       9       8       7       6       2       1       1       2
       1       1       9       8       7       6       2       1       1       2
       1       1       9       8       7       6       2       1       1       2
       1       1       9       8       7       6       2       1       1       2
       1       1       9       8       7       6       2       1       1       2
       1       1       9       8       7       6       2       1       1       2
       1       1       9       8       7       6       2       1       1       2
       1       1       9       8       7       6       2       1       1       2
       1       1       9       8       7       6       2       1       1       2
       1       1       9       8       7       6       2       1       1       2
       1       1       9       8       7       6       2       1       1       2
       1       1       9       8       7       6       2       1       1       2
       1       1       9       8       7       6       2       1       1       2
       1       1       9       8       7       6       2       1       1       2
       1       1       9       8       7       6       2       1       1       2
       1       1       9       8       7       6       2       1       1       2
       1       1       9       8       7       6       2       1       1       2
       1       1       9       8       7       6       2       1       1       2
       1       1       9       8       7       6       2       1       1       2
       1       1       9       8       7       6       2       1       1       2
       1       1       9       8       7       6       2       1       1       2
       1       1       9       8       7       6       2       1       1       2
       1       1       9       8       7       6       2       1       1       2
       1       1       9       8       7       6       2       1       1       2
       1       1       9       8       7       6       2       1       1       2
       1       1       9       8       7       6       2       1       1       2
       1       1       9       8       7       6       2       1       1       2
       1       1       9       8       7       6       2       1       1       2
       1       1       9       8       7       6       2       1       1       2
       1       1       9       8       7       6       2       1       1       2
       1       1       9       8       7       6       2       1       1       2
       1       1       9       8       7       6       2       1       1       2
       1       1       9       8       7       6       2       1       1       2
       1       1       9       8       7       6       2       1       1       2
       1       1       9       8       7       6       2       1       1       2
       1       1       9       8       7       6       2       1       1       2
       1       1       9       8       7       6       2       1       1       2
       1       1       9       8       7       6       2       1       1       2
       1       1       9       8       7       6       2       1       1       2
       1       1       9       8       7       6       2       1       1       2
       1       1       9       8       7       6       2       1       1       2
       1       1       9       8       7       6       2       1       1       2
       1       1       9       8       7       6       2       1       1       2
       1       1       9       8       7       6       2       1       1       2
       1       1       9       8       7       6       2       1       1       2
       1       1       9       8       7       6       2       1       1       2
       1       1       9       8       7       6       2       1       1       2
       1       1       9       8       7       6       2       1       1       2
       1       1       9       8       7       6       2       1       1       2
       1       1       9       8       7       6       2       1       1       2
       1       1       9       8       7       6       2       1       1       2
       1       1       9       8       7       6       2       1       1       2
       1       1       9       8       7       6       2       1       1       2
       1       1       9       8       7       6       2       1       1       2
       1       1       9       8       7       6       2       1       1       2
       1       1       9       8       7       6       2       1       1       2
       1       1       9       8       7       6       2       1       1       2
       1       1       9       8       7       6       2       1       1       2
       1       1       9       8       7       6       2       1       1       2
       1       1       9       8       7       6       2       1       1       2
       1       1       9       8       7       6       2       1       1       2
       1       1       9       8       7       6       2       1       1       2
       1       1       9       8       7       6       2       1       1       2
       1       1       9       8       7       6       2       1       1       2
       1       1       9       8       7       6       2       1       1       2
       1       1       9       8       7       6       2       1       1       2
       1       1       9       8       7       6       2       1       1       2
       1       1       9       8       7       6       2       1       1       2
       1       1       9       8       7       6       2       1       1       2
       1       1       9       8       7       6       2       1       1       2
       1       1       9       8       7       6       2       1       1       2
       1       1       9       8       7       6       2       1       1       2
       1       1       9       8       7       6       2       1       1       2
       1       1       9       8       7       6       2       1       1       2
       1       1       9       8       7       6       2       1       1       2
       1       1       9       8       7       6       2       1       1       2
       1       1       9       8       7       6       2       1       1       2
       1       1       9       8       7       6       2       1       1       2
       1       1       9       8       7       6       2       1       1       2
       1       1       9       8       7       6       2       1       1       2
       1       1       9       8       7       6       2       1       1       2
       1       1       9       8       7       6       2       1       1       2
       1       1       9       8       7       6       2       1       1       2
       1       1       9       8       7       6       2       1       1       2
       1       1       9       8       7       6       2       1       1       2
       1       1       9       8       7       6       2       1       1       2
       1       1       9       8       7       6       2       1       1       2
       1       1       9       8       7       6       2       1       1       2
       1       1       9       8       7       6       2       1       1       2
       1       1       9       8       7       6       2       1       1       2
       1       1       9       8       7       6       2       1       1       2
       1       1       9       8       7       6       2       1       1       2
       1       1       9       8       7       6       2       1       1       2
       1       1       9       8       7       6       2       1       1       2
       1       1       9       8       7       6       2       1       1       2
       1       1       9       8       7       6       2       1       1       2
       1       1       9       8       7       6       2       1       1       2
       1       1       9       8       7       6       2       1       1       2
       1       1       9       8       7       6       2       1       1       2
       1       1       9       8       7       6       2       1       1       2
       1       1       9       8       7       6       2       1       1       2
       1       1       9       8       7       6       2       1       1       2
       1       1       9       8       7       6       2       1       1       2
       1       1       9       8       7       6       2       1       1       2
       1       1       9       8       7       6       2       1       1       2
       1       1       9       8       7       6       2       1       1       2
       1       1       9       8       7       6       2       1       1       2
       1       1       9       8       7       6       2       1       1       2
       1       1       9       8       7       6       2       1       1       2
       1       1       9       8       7       6       2       1       1       2
       1       1       9       8       7       6       2       1       1       2
       1       1       9       8       7       6       2       1       1       2
       1       1       9       8       7       6       2       1       1       2
       1       1       9       8       7       6       2       1       1       2
       1       1       9       8       7       6       2       1       1       2
       1       1       9       8       7       6       2       1       1       2
       1       1       9       8       7       6       2       1       1       2
       1       1       9       8       7       6       2       1       1       2
       1       1       9       8       7       6       2       1       1       2
       1       1       9       8       7       6       2       1       1       2
       1       1       9       8       7       6       2       1       1       2
       1       1       9       8       7       6       2       1       1       2
       1       1       9       8       7       6       2       1       1       2
       1       1       9       8       7       6       2       1       1       2
       1       1       9       8       7       6       2       1       1       2
       1       1       9       8       7       6       2       1       1       2
       1       1       9       8       7       6       2       1       1       2
       1       1       9       8       7       6       2       1       1       2
       1       1       9       8       7       6       2       1       1       2
       1       1       9       8       7       6       2       1       1       2
       1       1       9       8       7       6       2       1       1       2
       1       1       9       8       7       6       2       1       1       2
       1       1       9       8       7       6       2       1       1       2
       1       1       9       8       7       6       2       1       1       2
       1       1       9       8       7       6       2       1       1       2
       1       1       9       8       7       6       2       1       1       2
       1       1       9       8       7       6       2       1       1       2
       1       1       9       8       7       6       2       1       1       2
       1       1       9       8       7       6       2       1       1       2
       1       1       9       8       7       6       2       1       1       2
       1       1       9       8       7       6       2       1       1       2
       1       1       9       8       7       6       2       1       1       2
       1       1       9       8       7       6       2       1       1       2
       1       1       9       8       7       6       2       1       1       2
       1       1       9       8       7       6       2       1       1       2
       1       1       9       8       7       6       2       1       1       2
       1       1       9       8       7       6       2       1       1       2
       1       1       9       8       7       6       2       1       1       2
       1       1       9       8       7       6       2       1       1       2
       1       1       9       8       7       6       2       1       1       2
       1       1       9       8       7       6       2       1       1       2
       1       1       9       8       7       6       2       1       1       2
       1       1       9       8       7       6       2       1       1       2
       1       1       9       8       7       6       2       1       1       2
       1       1       9       8       7       6       2       1       1       2
       1       1       9       8       7       6       2       1       1       2
       1       1       9       8       7       6       2       1       1       2
       1       1       9       8       7       6       2       1       1       2
       1       1       9       8       7       6       2       1       1       2
       1       1       9       8       7       6       2       1       1       2
       1       1       9       8       7       6       2       1       1       2
       1       1       9       8       7       6       2       1       1       2
       1       1       9       8       7       6       2       1       1       2
       1       1       9       8       7       6       2       1       1       2
       1       1       9       8       7       6       2       1       1       2
       1       1       9       8       7       6       2       1       1       2
       1       1       9       8       7       6       2       1       1       2
       1       1       9       8       7       6       2       1       1       2
       1       1       9       8       7       6       2       1       1       2
       1       1       9       8       7       6       2       1       1       2
       1       1       9       8       7       6       2       1       1       2
       1       1       9       8       7       6       2       1       1       2
       1       1       9       8       7       6       2       1       1       2
       1       1       9       8       7       6       2       1       1       2
       1       1       9       8       7       6       2       1       1       2
       1       1       9       8       7       6       2       1       1       2
       1       1       9       8       7       6       2       1       1       2
       1       1       9       8       7       6       2       1       1       2
       1       1       9       8       7       6       2       1       1       2
       1       1       9       8       7       6       2       1       1       2
       1       1       9       8       7       6       2       1       1       2
       1       1       9       8       7       6       2       1       1       2
       1       1       9       8       7       6       2       1       1       2
       1       1       9       8       7       6       2       1       1       2
       1       1       9       8       7       6       2       1       1       2
       1       1       9       8       7       6       2       1       1       2
       1       1       9       8       7       6       2       1       1       2
       1       1       9       8       7       6       2       1       1       2
       1       1       9       8       7       6       2       1       1       2
       1       1       9       8       7       6       2       1       1       2
       1       1       9       8       7       6       2       1       1       2
       1       1       9       8       7       6       2       1       1       2
       1       1       9       8       7       6       2       1       1       2
       1       1       9       8       7       6       2       1       1       2
       1       1       9       8       7       6       2       1       1       2
       1       1       9       8       7       6       2       1       1       2
       1       1       9       8       7       6       2       1       1       2
       1       1       9       8       7       6       2       1       1       2
       1       1       9       8       7       6       2       1       1       2
       1       1       9       8       7       6       2       1       1       2
       1       1       9       8       7       6       2       1       1       2
       1       1       9       8       7       6       2       1       1       2
       1       1       9       8       7       6       2       1       1       2
       1       1       9       8       7       6       2       1       1       2
       1       1       9       8       7       6       2       1       1       2
       1       1       9       8       7       6       2       1       1       2
       1       1       9       8       7       6       2       1       1       2
       1       1       9       8       7       6       2       1       1       2
       1       1       9       8       7       6       2       1       1       2
       1       1       9       8       7       6       2       1       1       2
       1       1       9       8       7       6       2       1       1       2
       1       1       9       8       7       6       2       1       1       2
       1       1       9       8       7       6       2       1       1       2
       1       1       9       8       7       6       2       1       1       2
       1       1       9       8       7       6       2       1       1       2
       1       1       9       8       7       6       2       1       1       2
       1       1       9       8       7       6       2       1       1       2
       1       1       9       8       7       6       2       1       1       2
       1       1       9       8       7       6       2       1       1       2
       1       1       9       8       7       6       2       1       1       2
       1       1       9       8       7       6       2       1       1       2
       1       1       9       8       7       6       2       1       1       2
       1       1       9       8       7       6       2       1       1       2
       1       1       9       8       7       6       2       1       1       2
       1       1       9       8       7       6       2       1       1       2
       1       1       9       8       7       6       2       1       1       2
       1       1       9       8       7       6       2       1       1       2
       1       1       9       8       7       6       2       1       1       2
       1       1       9       8       7       6       2       1       1       2
       1       1       9       8       7       6       2       1       1       2
       1       1       9       8       7       6       2       1       1       2
       1       1       9       8       7       6       2       1       1       2
       1       1       9       8       7       6       2       1       1       2
       1       1       9       8       7       6       2       1       1       2
       1       1       9       8       7       6       2       1       1       2
       1       1       9       8       7       6       2       1       1       2
       1       1       9       8       7       6       2       1       1       2
       1       1       9       8       7       6       2       1       1       2
       1       1       9       8       7       6       2       1       1       2
       1       1       9       8       7       6       2       1       1       2
       1       1       9       8       7       6       2       1       1       2
       1       1       9       8       7       6       2       1       1       2
       1       1       9       8       7       6       2       1       1       2
       1       1       9       8       7       6       2       1       1       2
       1       1       9       8       7       6       2       1       1       2
       1       1       9       8       7       6       2       1       1       2
       1       1       9       8       7       6       2       1       1       2
       1       1       9       8       7       6       2       1       1       2
       1       1       9       8       7       6       2       1       1       2
       1       1       9       8       7       6       2       1       1       2
       1       1       9       8       7       6       2       1       1       2
       1       1       9       8       7       6       2       1       1       2
       1       1       9       8       7       6       2       1       1       2
       1       1       9       8       7       6       2       1       1       2
       1       1       9       8       7       6       2       1       1       2
       1       1       9       8       7       6       2       1       1       2
       1       1       9       8       7       6       2       1       1       2
       1       1       9       8       7       6       2       1       1       2
       1       1       9       8       7       6       2       1       1       2
       1       1       9       8       7       6       2       1       1       2
       1       1       9       8       7       6       2       1       1       2
       1       1       9       8       7       6       2       1       1       2
       1       1       9       8       7       6       2       1       1       2
       1       1       9       8       7       6       2       1       1       2
       1       1       9       8       7       6       2       1       1       2
       1       1       9       8       7       6       2       1       1       2
       1       1       9       8       7       6       2       1       1       2
       1       1       9       8       7       6       2       1       1       2
       1       1       9       8       7       6       2       1       1       2
       1       1       9       8       7       6       2       1       1       2
       1       1       9       8       7       6       2       1       1       2
       1       1       9       8       7       6       2       1       1       2
       1       1       9       8       7       6       2       1       1       2
       1       1       9       8       7       6       2       1       1       2
       1       1       9       8       7       6       2       1       1       2
       1       1       9       8       7       6       2       1       1       2
       1       1       9       8       7       6       2       1       1       2
       1       1       9       8       7       6       2       1       1       2
       1       1
%FLAG NONBONDED_PARM_INDEX                                                      
%FORMAT(10I8)                                                                   
       1       2       4       7      11      16      22      29      37       2
       3       5       8      12      17      23      30      38       4       5
       6       9      13      18      24      31      39       7       8       9
      10      14      19      25      32      40      11      12      13      14
      15      20      26      33      41      16      17      18      19      20
      21      27      34      42      22      23      24      25      26      27
      28      35      43      29      30      31      32      33      34      35
      36      44      37      38      39      40      41      42      43      44
      45
%FLAG RESIDUE_LABEL                                                             
%FORMAT(20a4)                                                                   
QUC ACE ACE ACE ACE ACE ACE ACE ACE ACE ACE ACE ACE ACE ACE ACE ACE ACE ACE ACE 
ACE ACE ACE ACE ACE ACE ACE ACE ACE ACE ACE ACE ACE ACE ACE ACE ACE ACE ACE ACE 
ACE ACE ACE ACE ACE ACE ACE ACE ACE ACE ACE ACE ACE ACE ACE ACE ACE ACE ACE ACE 
ACE ACE ACE ACE ACE ACE ACE ACE ACE ACE ACE ACE ACE ACE ACE ACE ACE ACE ACE ACE 
ACE ACE ACE ACE ACE ACE ACE ACE ACE ACE ACE ACE ACE ACE ACE ACE ACE ACE ACE ACE 
ACE ACE ACE ACE ACE ACE ACE ACE ACE ACE ACE ACE ACE ACE ACE ACE ACE ACE ACE ACE 
ACE ACE ACE ACE ACE ACE ACE ACE ACE ACE ACE ACE ACE ACE ACE ACE ACE ACE ACE ACE 
ACE ACE ACE ACE ACE ACE ACE ACE ACE ACE ACE ACE ACE ACE ACE ACE ACE ACE ACE ACE 
ACE ACE ACE ACE ACE ACE ACE ACE ACE ACE ACE ACE ACE ACE ACE ACE ACE ACE ACE ACE 
ACE ACE ACE ACE ACE ACE ACE ACE ACE ACE ACE ACE ACE ACE ACE ACE ACE ACE ACE ACE 
ACE ACE ACE ACE ACE ACE ACE ACE ACE ACE ACE ACE ACE ACE ACE ACE ACE ACE ACE ACE 
ACE ACE ACE ACE ACE ACE ACE ACE ACE ACE ACE ACE ACE ACE ACE ACE ACE ACE ACE ACE 
ACE ACE ACE ACE ACE ACE ACE ACE ACE ACE ACE ACE ACE ACE ACE ACE ACE ACE ACE ACE 
ACE ACE ACE ACE ACE ACE ACE ACE ACE ACE ACE ACE ACE ACE ACE ACE ACE ACE ACE ACE 
ACE ACE ACE ACE ACE ACE ACE ACE ACE ACE ACE ACE ACE ACE ACE ACE ACE ACE ACE ACE 
ACE ACE ACE ACE ACE ACE ACE ACE ACE ACE ACE ACE ACE ACE ACE ACE ACE ACE ACE ACE 
ACE ACE ACE ACE ACE ACE ACE ACE ACE ACE ACE ACE ACE ACE ACE ACE ACE ACE ACE ACE 
ACE 
%FLAG RESIDUE_POINTER                                                           
%FORMAT(10I8)                                                                   
       1      43      53      63      73      83      93     103     113     123
     133     143     153     163     173     183     193     203     213     223
     233     243     253     263     273     283     293     303     313     323
     333     343     353     363     373     383     393     403     413     423
     433     443     453     463     473     483     493     503     513     523
     533     543     553     563     573     583     593     603     613     623
     633     643     653     663     673     683     693     703     713     723
     733     743     753     763     773     783     793     803     813     823
     833     843     853     863     873     883     893     903     913     923
     933     943     953     963     973     983     993    1003    1013    1023
    1033    1043    1053    1063    1073    1083    1093    1103    1113    1123
    1133    1143    1153    1163    1173    1183    1193    1203    1213    1223
    1233    1243    1253    1263    1273    1283    1293    1303    1313    1323
    1333    1343    1353    1363    1373    1383    1393    1403    1413    1423
    1433    1443    1453    1463    1473    1483    1493    1503    1513    1523
    1533    1543    1553    1563    1573    1583    1593    1603    1613    1623
    1633    1643    1653    1663    1673    1683    1693    1703    1713    1723
    1733    1743    1753    1763    1773    1783    1793    1803    1813    1823
    1833    1843    1853    1863    1873    1883    1893    1903    1913    1923
    1933    1943    1953    1963    1973    1983    1993    2003    2013    2023
    2033    2043    2053    2063    2073    2083    2093    2103    2113    2123
    2133    2143    2153    2163    2173    2183    2193    2203    2213    2223
    2233    2243    2253    2263    2273    2283    2293    2303    2313    2323
    2333    2343    2353    2363    2373    2383    2393    2403    2413    2423
    2433    2443    2453    2463    2473    2483    2493    2503    2513    2523
    2533    2543    2553    2563    2573    2583    2593    2603    2613    2623
    2633    2643    2653    2663    2673    2683    2693    2703    2713    2723
    2733    2743    2753    2763    2773    2783    2793    2803    2813    2823
    2833    2843    2853    2863    2873    2883    2893    2903    2913    2923
    2933    2943    2953    2963    2973    2983    2993    3003    3013    3023
    3033    3043    3053    3063    3073    3083    3093    3103    3113    3123
    3133    3143    3153    3163    3173    3183    3193    3203    3213    3223
    3233    3243    3253    3263    3273    3283    3293    3303    3313    3323
    3333    3343    3353    3363    3373    3383    3393    3403    3413    3423
    3433
%FLAG BOND_FORCE_CONSTANT                                                       
%FORMAT(5E16.8)                                                                 
  3.60690000E+02  3.54250000E+02  3.45250000E+02  2.81780000E+02  3.64120000E+02
  2.62840000E+02  3.86240000E+02  2.28890000E+02  3.44220000E+02  2.88790000E+02
  3.21490000E+02  4.17790000E+02  3.29990000E+02  3.10840000E+02  2.56920000E+02
  5.90600000E+02  3.43340000E+02  3.52890000E+02  2.34850000E+02
%FLAG BOND_EQUIL_VALUE                                                          
%FORMAT(5E16.8)                                                                 
  1.08600000E+00  1.39860000E+00  1.09620000E+00  1.46870000E+00  1.08380000E+00
  1.49070000E+00  1.37300000E+00  1.53540000E+00  1.09690000E+00  1.46100000E+00
  1.42790000E+00  1.31710000E+00  1.38520000E+00  1.40300000E+00  1.46130000E+00
  1.21900000E+00  1.36880000E+00  1.36080000E+00  1.52700000E+00
%FLAG ANGLE_FORCE_CONSTANT                                                      
%FORMAT(5E16.8)                                                                 
  3.58000000E+01  3.56400000E+01  4.49000000E+01  6.36700000E+01  4.32800000E+01
  6.14400000E+01  4.36700000E+01  6.13900000E+01  6.22000000E+01  4.53000000E+01
  6.04300000E+01  4.32700000E+01  7.64300000E+01  8.73200000E+01  6.20200000E+01
  6.45700000E+01  8.99300000E+01  7.69400000E+01  6.75400000E+01  6.84600000E+01
  6.74000000E+01  6.71800000E+01  6.48100000E+01  4.79700000E+01  7.79600000E+01
  7.83600000E+01  7.90000000E+01  7.88700000E+01  8.08000000E+01  5.91500000E+01
  4.36300000E+01  7.64500000E+01
%FLAG ANGLE_EQUIL_VALUE                                                         
%FORMAT(5E16.8)                                                                 
  1.88024401E+00  1.89455572E+00  2.09230160E+00  2.09474507E+00  1.91270715E+00
  2.10015559E+00  2.03871997E+00  2.01288909E+00  2.11743436E+00  2.11883062E+00
  2.17921904E+00  1.91427794E+00  2.03435665E+00  1.81811026E+00  2.10888224E+00
  2.02824799E+00  2.09195254E+00  2.08619295E+00  2.10399532E+00  2.10661331E+00
  2.12703367E+00  2.11411823E+00  1.98060048E+00  1.91427794E+00  2.13977458E+00
  2.16525640E+00  2.07886256E+00  2.04989009E+00  2.03697464E+00  2.03645104E+00
  1.90153704E+00  2.14501057E+00
%FLAG DIHEDRAL_FORCE_CONSTANT                                                   
%FORMAT(5E16.8)                                                                 
  3.62500000E+00  1.55555556E-01  1.89750000E+00  2.87500000E+00  5.85000000E-01
  3.48000000E+00  2.12500000E+00  2.50000000E-01  4.00000000E+00  9.00000000E-01
  7.53000000E-01  0.00000000E+00  4.75000000E+00  4.80000000E+00  6.50000000E-01
  3.32000000E-01  8.20000000E-01  1.00000000E+00  7.50000000E-01  5.80000000E-01
  0.00000000E+00  4.03000000E+00  3.66000000E+00  1.10000000E+00  1.05000000E+01
%FLAG DIHEDRAL_PERIODICITY                                                      
%FORMAT(5E16.8)                                                                 
  2.00000000E+00  3.00000000E+00  2.00000000E+00  2.00000000E+00  2.00000000E+00
  1.00000000E+00  2.00000000E+00  3.00000000E+00  2.00000000E+00  2.00000000E+00
  2.00000000E+00  2.00000000E+00  2.00000000E+00  2.00000000E+00  1.00000000E+00
  2.00000000E+00  1.00000000E+00  2.00000000E+00  3.00000000E+00  2.00000000E+00
  3.00000000E+00  1.00000000E+00  2.00000000E+00  2.00000000E+00  2.00000000E+00
%FLAG DIHEDRAL_PHASE                                                            
%FORMAT(5E16.8)                                                                 
  3.14159400E+00  0.00000000E+00  3.14159400E+00  3.14159400E+00  3.14159400E+00
  3.14159400E+00  0.00000000E+00  3.14159400E+00  3.14159400E+00  3.14159400E+00
  3.14159400E+00  0.00000000E+00  3.14159400E+00  3.14159400E+00  3.14159400E+00
  0.00000000E+00  3.14159400E+00  3.14159400E+00  3.14159400E+00  3.14159400E+00
  3.14159400E+00  0.00000000E+00  3.14159400E+00  3.14159400E+00  3.14159400E+00
%FLAG SCEE_SCALE_FACTOR                                                         
%FORMAT(5E16.8)                                                                 
  1.20000000E+00  1.20000000E+00  1.20000000E+00  1.20000000E+00  1.20000000E+00
  1.20000000E+00  1.20000000E+00  1.20000000E+00  1.20000000E+00  1.20000000E+00
  1.20000000E+00  1.20000000E+00  1.20000000E+00  1.20000000E+00  1.20000000E+00
  1.20000000E+00  1.20000000E+00  1.20000000E+00  1.20000000E+00  1.20000000E+00
  1.20000000E+00  1.20000000E+00  1.20000000E+00  0.00000000E+00  0.00000000E+00
%FLAG SCNB_SCALE_FACTOR                                                         
%FORMAT(5E16.8)                                                                 
  2.00000000E+00  2.00000000E+00  2.00000000E+00  2.00000000E+00  2.00000000E+00
  2.00000000E+00  2.00000000E+00  2.00000000E+00  2.00000000E+00  2.00000000E+00
  2.00000000E+00  2.00000000E+00  2.00000000E+00  2.00000000E+00  2.00000000E+00
  2.00000000E+00  2.00000000E+00  2.00000000E+00  2.00000000E+00  2.00000000E+00
  2.00000000E+00  2.00000000E+00  2.00000000E+00  0.00000000E+00  0.00000000E+00
%FLAG SOLTY                                                                     
%FORMAT(5E16.8)                                                                 
  0.00000000E+00  0.00000000E+00  0.00000000E+00  0.00000000E+00  0.00000000E+00
  0.00000000E+00  0.00000000E+00  0.00000000E+00  0.00000000E+00  0.00000000E+00
  0.00000000E+00  0.00000000E+00
%FLAG LENNARD_JONES_ACOEF                                                       
%FORMAT(5E16.8)                                                                 
  2.83662575E+05  3.27367585E+05  3.76435470E+05  5.20510209E+05  6.01376873E+05
  9.54790629E+05  4.94433451E+05  5.74782316E+05  9.05243612E+05  8.49322032E+05
  4.46121722E+05  5.17507491E+05  8.17329084E+05  7.69642101E+05  6.96551276E+05
  5.42502534E+05  6.30925504E+05  9.93125065E+05  9.31115275E+05  8.43969952E+05
  1.02073671E+06  3.44374471E+04  3.86646725E+04  6.37258620E+04  6.34160397E+04
  5.63013422E+04  6.97998263E+04  3.39005767E+03  4.65732396E+04  5.27277400E+04
  8.59636060E+04  8.43518904E+04  7.52549148E+04  9.27554496E+04  4.88692384E+03
  6.90855956E+03  5.02224902E+04  5.68021765E+04  9.27277603E+04  9.11435380E+04
  8.12662403E+04  1.00235148E+05  5.22955465E+03  7.41026906E+03  7.94617769E+03
%FLAG LENNARD_JONES_BCOEF                                                       
%FORMAT(5E16.8)                                                                 
  2.87011518E+02  3.67361018E+02  4.69350655E+02  5.10021392E+02  6.53166727E+02
  9.06156687E+02  4.04310927E+02  5.19385932E+02  7.17661669E+02  5.65406768E+02
  3.88758656E+02  4.98871431E+02  6.90283231E+02  5.44830041E+02  5.24668528E+02
  4.38146883E+02  5.62969425E+02  7.77671659E+02  6.12468585E+02  5.90251928E+02
  6.63431737E+02  7.31636661E+01  9.23664132E+01  1.30560951E+02  1.05935811E+02
  1.01040256E+02  1.14981426E+02  1.67944276E+01  7.98066064E+01  1.01173582E+02
  1.42233990E+02  1.14599119E+02  1.09570372E+02  1.24325688E+02  1.89134207E+01
  2.10929191E+01  8.83545880E+01  1.11953944E+02  1.57492664E+02  1.27000718E+02
  1.21392023E+02  1.37787728E+02  2.08590256E+01  2.32899892E+01  2.57122925E+01
%FLAG BONDS_INC_HYDROGEN                                                        
%FORMAT(10I8)                                                                   
      69     123       1      66     120       1      63     117       1      60
     114       1      57     105       3      57     108       3      57     111
       3      54      96       3      54      99       3      54     102       3
      48      93       5      45      90       1      39      87       1      30
      84       1      27      78       9      27      81       9      24      72
       9      24      75       9     135     147       3     135     150       3
     135     153       3     132     138       3     132     141       3     132
     144       3     165     177       3     165     180       3     165     183
       3     162     168       3     162     171       3     162     174       3
     195     207       3     195     210       3     195     213       3     192
     198       3     192     201       3     192     204       3     225     237
       3     225     240       3     225     243       3     222     228       3
     222     231       3     222     234       3     255     267       3     255
     270       3     255     273       3     252     258       3     252     261
       3     252     264       3     285     297       3     285     300       3
     285     303       3     282     288       3     282     291       3     282
     294       3     315     327       3     315     330       3     315     333
       3     312     318       3     312     321       3     312     324       3
     345     357       3     345     360       3     345     363       3     342
     348       3     342     351       3     342     354       3     375     387
       3     375     390       3     375     393       3     372     378       3
     372     381       3     372     384       3     405     417       3     405
     420       3     405     423       3     402     408       3     402     411
       3     402     414       3     435     447       3     435     450       3
     435     453       3     432     438       3     432     441       3     432
     444       3     465     477       3     465     480       3     465     483
       3     462     468       3     462     471       3     462     474       3
     495     507       3     495     510       3     495     513       3     492
     498       3     492     501       3     492     504       3     525     537
       3     525     540       3     525     543       3     522     528       3
     522     531       3     522     534       3     555     567       3     555
     570       3     555     573       3     552     558       3     552     561
       3     552     564       3     585     597       3     585     600       3
     585     603       3     582     588       3     582     591       3     582
     594       3     615     627       3     615     630       3     615     633
       3     612     618       3     612     621       3     612     624       3
     645     657       3     645     660       3     645     663       3     642
     648       3     642     651       3     642     654       3     675     687
       3     675     690       3     675     693       3     672     678       3
     672     681       3     672     684       3     705     717       3     705
     720       3     705     723       3     702     708       3     702     711
       3     702     714       3     735     747       3     735     750       3
     735     753       3     732     738       3     732     741       3     732
     744       3     765     777       3     765     780       3     765     783
       3     762     768       3     762     771       3     762     774       3
     795     807       3     795     810       3     795     813       3     792
     798       3     792     801       3     792     804       3     825     837
       3     825     840       3     825     843       3     822     828       3
     822     831       3     822     834       3     855     867       3     855
     870       3     855     873       3     852     858       3     852     861
       3     852     864       3     885     897       3     885     900       3
     885     903       3     882     888       3     882     891       3     882
     894       3     915     927       3     915     930       3     915     933
       3     912     918       3     912     921       3     912     924       3
     945     957       3     945     960       3     945     963       3     942
     948       3     942     951       3     942     954       3     975     987
       3     975     990       3     975     993       3     972     978       3
     972     981       3     972     984       3    1005    1017       3    1005
    1020       3    1005    1023       3    1002    1008       3    1002    1011
       3    1002    1014       3    1035    1047       3    1035    1050       3
    1035    1053       3    1032    1038       3    1032    1041       3    1032
    1044       3    1065    1077       3    1065    1080       3    1065    1083
       3    1062    1068       3    1062    1071       3    1062    1074       3
    1095    1107       3    1095    1110       3    1095    1113       3    1092
    1098       3    1092    1101       3    1092    1104       3    1125    1137
       3    1125    1140       3    1125    1143       3    1122    1128       3
    1122    1131       3    1122    1134       3    1155    1167       3    1155
    1170       3    1155    1173       3    1152    1158       3    1152    1161
       3    1152    1164       3    1185    1197       3    1185    1200       3
    1185    1203       3    1182    1188       3    1182    1191       3    1182
    1194       3    1215    1227       3    1215    1230       3    1215    1233
       3    1212    1218       3    1212    1221       3    1212    1224       3
    1245    1257       3    1245    1260       3    1245    1263       3    1242
    1248       3    1242    1251       3    1242    1254       3    1275    1287
       3    1275    1290       3    1275    1293       3    1272    1278       3
    1272    1281       3    1272    1284       3    1305    1317       3    1305
    1320       3    1305    1323       3    1302    1308       3    1302    1311
       3    1302    1314       3    1335    1347       3    1335    1350       3
    1335    1353       3    1332    1338       3    1332    1341       3    1332
    1344       3    1365    1377       3    1365    1380       3    1365    1383
       3    1362    1368       3    1362    1371       3    1362    1374       3
    1395    1407       3    1395    1410       3    1395    1413       3    1392
    1398       3    1392    1401       3    1392    1404       3    1425    1437
       3    1425    1440       3    1425    1443       3    1422    1428       3
    1422    1431       3    1422    1434       3    1455    1467       3    1455
    1470       3    1455    1473       3    1452    1458       3    1452    1461
       3    1452    1464       3    1485    1497       3    1485    1500       3
    1485    1503       3    1482    1488       3    1482    1491       3    1482
    1494       3    1515    1527       3    1515    1530       3    1515    1533
       3    1512    1518       3    1512    1521       3    1512    1524       3
    1545    1557       3    1545    1560       3    1545    1563       3    1542
    1548       3    1542    1551       3    1542    1554       3    1575    1587
       3    1575    1590       3    1575    1593       3    1572    1578       3
    1572    1581       3    1572    1584       3    1605    1617       3    1605
    1620       3    1605    1623       3    1602    1608       3    1602    1611
       3    1602    1614       3    1635    1647       3    1635    1650       3
    1635    1653       3    1632    1638       3    1632    1641       3    1632
    1644       3    1665    1677       3    1665    1680       3    1665    1683
       3    1662    1668       3    1662    1671       3    1662    1674       3
    1695    1707       3    1695    1710       3    1695    1713       3    1692
    1698       3    1692    1701       3    1692    1704       3    1725    1737
       3    1725    1740       3    1725    1743       3    1722    1728       3
    1722    1731       3    1722    1734       3    1755    1767       3    1755
    1770       3    1755    1773       3    1752    1758       3    1752    1761
       3    1752    1764       3    1785    1797       3    1785    1800       3
    1785    1803       3    1782    1788       3    1782    1791       3    1782
    1794       3    1815    1827       3    1815    1830       3    1815    1833
       3    1812    1818       3    1812    1821       3    1812    1824       3
    1845    1857       3    1845    1860       3    1845    1863       3    1842
    1848       3    1842    1851       3    1842    1854       3    1875    1887
       3    1875    1890       3    1875    1893       3    1872    1878       3
    1872    1881       3    1872    1884       3    1905    1917       3    1905
    1920       3    1905    1923       3    1902    1908       3    1902    1911
       3    1902    1914       3    1935    1947       3    1935    1950       3
    1935    1953       3    1932    1938       3    1932    1941       3    1932
    1944       3    1965    1977       3    1965    1980       3    1965    1983
       3    1962    1968       3    1962    1971       3    1962    1974       3
    1995    2007       3    1995    2010       3    1995    2013       3    1992
    1998       3    1992    2001       3    1992    2004       3    2025    2037
       3    2025    2040       3    2025    2043       3    2022    2028       3
    2022    2031       3    2022    2034       3    2055    2067       3    2055
    2070       3    2055    2073       3    2052    2058       3    2052    2061
       3    2052    2064       3    2085    2097       3    2085    2100       3
    2085    2103       3    2082    2088       3    2082    2091       3    2082
    2094       3    2115    2127       3    2115    2130       3    2115    2133
       3    2112    2118       3    2112    2121       3    2112    2124       3
    2145    2157       3    2145    2160       3    2145    2163       3    2142
    2148       3    2142    2151       3    2142    2154       3    2175    2187
       3    2175    2190       3    2175    2193       3    2172    2178       3
    2172    2181       3    2172    2184       3    2205    2217       3    2205
    2220       3    2205    2223       3    2202    2208       3    2202    2211
       3    2202    2214       3    2235    2247       3    2235    2250       3
    2235    2253       3    2232    2238       3    2232    2241       3    2232
    2244       3    2265    2277       3    2265    2280       3    2265    2283
       3    2262    2268       3    2262    2271       3    2262    2274       3
    2295    2307       3    2295    2310       3    2295    2313       3    2292
    2298       3    2292    2301       3    2292    2304       3    2325    2337
       3    2325    2340       3    2325    2343       3    2322    2328       3
    2322    2331       3    2322    2334       3    2355    2367       3    2355
    2370       3    2355    2373       3    2352    2358       3    2352    2361
       3    2352    2364       3    2385    2397       3    2385    2400       3
    2385    2403       3    2382    2388       3    2382    2391       3    2382
    2394       3    2415    2427       3    2415    2430       3    2415    2433
       3    2412    2418       3    2412    2421       3    2412    2424       3
    2445    2457       3    2445    2460       3    2445    2463       3    2442
    2448       3    2442    2451       3    2442    2454       3    2475    2487
       3    2475    2490       3    2475    2493       3    2472    2478       3
    2472    2481       3    2472    2484       3    2505    2517       3    2505
    2520       3    2505    2523       3    2502    2508       3    2502    2511
       3    2502    2514       3    2535    2547       3    2535    2550       3
    2535    2553       3    2532    2538       3    2532    2541       3    2532
    2544       3    2565    2577       3    2565    2580       3    2565    2583
       3    2562    2568       3    2562    2571       3    2562    2574       3
    2595    2607       3    2595    2610       3    2595    2613       3    2592
    2598       3    2592    2601       3    2592    2604       3    2625    2637
       3    2625    2640       3    2625    2643       3    2622    2628       3
    2622    2631       3    2622    2634       3    2655    2667       3    2655
    2670       3    2655    2673       3    2652    2658       3    2652    2661
       3    2652    2664       3    2685    2697       3    2685    2700       3
    2685    2703       3    2682    2688       3    2682    2691       3    2682
    2694       3    2715    2727       3    2715    2730       3    2715    2733
       3    2712    2718       3    2712    2721       3    2712    2724       3
    2745    2757       3    2745    2760       3    2745    2763       3    2742
    2748       3    2742    2751       3    2742    2754       3    2775    2787
       3    2775    2790       3    2775    2793       3    2772    2778       3
    2772    2781       3    2772    2784       3    2805    2817       3    2805
    2820       3    2805    2823       3    2802    2808       3    2802    2811
       3    2802    2814       3    2835    2847       3    2835    2850       3
    2835    2853       3    2832    2838       3    2832    2841       3    2832
    2844       3    2865    2877       3    2865    2880       3    2865    2883
       3    2862    2868       3    2862    2871       3    2862    2874       3
    2895    2907       3    2895    2910       3    2895    2913       3    2892
    2898       3    2892    2901       3    2892    2904       3    2925    2937
       3    2925    2940       3    2925    2943       3    2922    2928       3
    2922    2931       3    2922    2934       3    2955    2967       3    2955
    2970       3    2955    2973       3    2952    2958       3    2952    2961
       3    2952    2964       3    2985    2997       3    2985    3000       3
    2985    3003       3    2982    2988       3    2982    2991       3    2982
    2994       3    3015    3027       3    3015    3030       3    3015    3033
       3    3012    3018       3    3012    3021       3    3012    3024       3
    3045    3057       3    3045    3060       3    3045    3063       3    3042
    3048       3    3042    3051       3    3042    3054       3    3075    3087
       3    3075    3090       3    3075    3093       3    3072    3078       3
    3072    3081       3    3072    3084       3    3105    3117       3    3105
    3120       3    3105    3123       3    3102    3108       3    3102    3111
       3    3102    3114       3    3135    3147       3    3135    3150       3
    3135    3153       3    3132    3138       3    3132    3141       3    3132
    3144       3    3165    3177       3    3165    3180       3    3165    3183
       3    3162    3168       3    3162    3171       3    3162    3174       3
    3195    3207       3    3195    3210       3    3195    3213       3    3192
    3198       3    3192    3201       3    3192    3204       3    3225    3237
       3    3225    3240       3    3225    3243       3    3222    3228       3
    3222    3231       3    3222    3234       3    3255    3267       3    3255
    3270       3    3255    3273       3    3252    3258       3    3252    3261
       3    3252    3264       3    3285    3297       3    3285    3300       3
    3285    3303       3    3282    3288       3    3282    3291       3    3282
    3294       3    3315    3327       3    3315    3330       3    3315    3333
       3    3312    3318       3    3312    3321       3    3312    3324       3
    3345    3357       3    3345    3360       3    3345    3363       3    3342
    3348       3    3342    3351       3    3342    3354       3    3375    3387
       3    3375    3390       3    3375    3393       3    3372    3378       3
    3372    3381       3    3372    3384       3    3405    3417       3    3405
    3420       3    3405    3423       3    3402    3408       3    3402    3411
       3    3402    3414       3    3435    3447       3    3435    3450       3
    3435    3453       3    3432    3438       3    3432    3441       3    3432
    3444       3    3465    3477       3    3465    3480       3    3465    3483
       3    3462    3468       3    3462    3471       3    3462    3474       3
    3495    3507       3    3495    3510       3    3495    3513       3    3492
    3498       3    3492    3501       3    3492    3504       3    3525    3537
       3    3525    3540       3    3525    3543       3    3522    3528       3
    3522    3531       3    3522    3534       3    3555    3567       3    3555
    3570       3    3555    3573       3    3552    3558       3    3552    3561
       3    3552    3564       3    3585    3597       3    3585    3600       3
    3585    3603       3    3582    3588       3    3582    3591       3    3582
    3594       3    3615    3627       3    3615    3630       3    3615    3633
       3    3612    3618       3    3612    3621       3    3612    3624       3
    3645    3657       3    3645    3660       3    3645    3663       3    3642
    3648       3    3642    3651       3    3642    3654       3    3675    3687
       3    3675    3690       3    3675    3693       3    3672    3678       3
    3672    3681       3    3672    3684       3    3705    3717       3    3705
    3720       3    3705    3723       3    3702    3708       3    3702    3711
       3    3702    3714       3    3735    3747       3    3735    3750       3
    3735    3753       3    3732    3738       3    3732    3741       3    3732
    3744       3    3765    3777       3    3765    3780       3    3765    3783
       3    3762    3768       3    3762    3771       3    3762    3774       3
    3795    3807       3    3795    3810       3    3795    3813       3    3792
    3798       3    3792    3801       3    3792    3804       3    3825    3837
       3    3825    3840       3    3825    3843       3    3822    3828       3
    3822    3831       3    3822    3834       3    3855    3867       3    3855
    3870       3    3855    3873       3    3852    3858       3    3852    3861
       3    3852    3864       3    3885    3897       3    3885    3900       3
    3885    3903       3    3882    3888       3    3882    3891       3    3882
    3894       3    3915    3927       3    3915    3930       3    3915    3933
       3    3912    3918       3    3912    3921       3    3912    3924       3
    3945    3957       3    3945    3960       3    3945    3963       3    3942
    3948       3    3942    3951       3    3942    3954       3    3975    3987
       3    3975    3990       3    3975    3993       3    3972    3978       3
    3972    3981       3    3972    3984       3    4005    4017       3    4005
    4020       3    4005    4023       3    4002    4008       3    4002    4011
       3    4002    4014       3    4035    4047       3    4035    4050       3
    4035    4053       3    4032    4038       3    4032    4041       3    4032
    4044       3    4065    4077       3    4065    4080       3    4065    4083
       3    4062    4068       3    4062    4071       3    4062    4074       3
    4095    4107       3    4095    4110       3    4095    4113       3    4092
    4098       3    4092    4101       3    4092    4104       3    4125    4137
       3    4125    4140       3    4125    4143       3    4122    4128       3
    4122    4131       3    4122    4134       3    4155    4167       3    4155
    4170       3    4155    4173       3    4152    4158       3    4152    4161
       3    4152    4164       3    4185    4197       3    4185    4200       3
    4185    4203       3    4182    4188       3    4182    4191       3    4182
    4194       3    4215    4227       3    4215    4230       3    4215    4233
       3    4212    4218       3    4212    4221       3    4212    4224       3
    4245    4257       3    4245    4260       3    4245    4263       3    4242
    4248       3    4242    4251       3    4242    4254       3    4275    4287
       3    4275    4290       3    4275    4293       3    4272    4278       3
    4272    4281       3    4272    4284       3    4305    4317       3    4305
    4320       3    4305    4323       3    4302    4308       3    4302    4311
       3    4302    4314       3    4335    4347       3    4335    4350       3
    4335    4353       3    4332    4338       3    4332    4341       3    4332
    4344       3    4365    4377       3    4365    4380       3    4365    4383
       3    4362    4368       3    4362    4371       3    4362    4374       3
    4395    4407       3    4395    4410       3    4395    4413       3    4392
    4398       3    4392    4401       3    4392    4404       3    4425    4437
       3    4425    4440       3    4425    4443       3    4422    4428       3
    4422    4431       3    4422    4434       3    4455    4467       3    4455
    4470       3    4455    4473       3    4452    4458       3    4452    4461
       3    4452    4464       3    4485    4497       3    4485    4500       3
    4485    4503       3    4482    4488       3    4482    4491       3    4482
    4494       3    4515    4527       3    4515    4530       3    4515    4533
       3    4512    4518       3    4512    4521       3    4512    4524       3
    4545    4557       3    4545    4560       3    4545    4563       3    4542
    4548       3    4542    4551       3    4542    4554       3    4575    4587
       3    4575    4590       3    4575    4593       3    4572    4578       3
    4572    4581       3    4572    4584       3    4605    4617       3    4605
    4620       3    4605    4623       3    4602    4608       3    4602    4611
       3    4602    4614       3    4635    4647       3    4635    4650       3
    4635    4653       3    4632    4638       3    4632    4641       3    4632
    4644       3    4665    4677       3    4665    4680       3    4665    4683
       3    4662    4668       3    4662    4671       3    4662    4674       3
    4695    4707       3    4695    4710       3    4695    4713       3    4692
    4698       3    4692    4701       3    4692    4704       3    4725    4737
       3    4725    4740       3    4725    4743       3    4722    4728       3
    4722    4731       3    4722    4734       3    4755    4767       3    4755
    4770       3    4755    4773       3    4752    4758       3    4752    4761
       3    4752    4764       3    4785    4797       3    4785    4800       3
    4785    4803       3    4782    4788       3    4782    4791       3    4782
    4794       3    4815    4827       3    4815    4830       3    4815    4833
       3    4812    4818       3    4812    4821       3    4812    4824       3
    4845    4857       3    4845    4860       3    4845    4863       3    4842
    4848       3    4842    4851       3    4842    4854       3    4875    4887
       3    4875    4890       3    4875    4893       3    4872    4878       3
    4872    4881       3    4872    4884       3    4905    4917       3    4905
    4920       3    4905    4923       3    4902    4908       3    4902    4911
       3    4902    4914       3    4935    4947       3    4935    4950       3
    4935    4953       3    4932    4938       3    4932    4941       3    4932
    4944       3    4965    4977       3    4965    4980       3    4965    4983
       3    4962    4968       3    4962    4971       3    4962    4974       3
    4995    5007       3    4995    5010       3    4995    5013       3    4992
    4998       3    4992    5001       3    4992    5004       3    5025    5037
       3    5025    5040       3    5025    5043       3    5022    5028       3
    5022    5031       3    5022    5034       3    5055    5067       3    5055
    5070       3    5055    5073       3    5052    5058       3    5052    5061
       3    5052    5064       3    5085    5097       3    5085    5100       3
    5085    5103       3    5082    5088       3    5082    5091       3    5082
    5094       3    5115    5127       3    5115    5130       3    5115    5133
       3    5112    5118       3    5112    5121       3    5112    5124       3
    5145    5157       3    5145    5160       3    5145    5163       3    5142
    5148       3    5142    5151       3    5142    5154       3    5175    5187
       3    5175    5190       3    5175    5193       3    5172    5178       3
    5172    5181       3    5172    5184       3    5205    5217       3    5205
    5220       3    5205    5223       3    5202    5208       3    5202    5211
       3    5202    5214       3    5235    5247       3    5235    5250       3
    5235    5253       3    5232    5238       3    5232    5241       3    5232
    5244       3    5265    5277       3    5265    5280       3    5265    5283
       3    5262    5268       3    5262    5271       3    5262    5274       3
    5295    5307       3    5295    5310       3    5295    5313       3    5292
    5298       3    5292    5301       3    5292    5304       3    5325    5337
       3    5325    5340       3    5325    5343       3    5322    5328       3
    5322    5331       3    5322    5334       3    5355    5367       3    5355
    5370       3    5355    5373       3    5352    5358       3    5352    5361
       3    5352    5364       3    5385    5397       3    5385    5400       3
    5385    5403       3    5382    5388       3    5382    5391       3    5382
    5394       3    5415    5427       3    5415    5430       3    5415    5433
       3    5412    5418       3    5412    5421       3    5412    5424       3
    5445    5457       3    5445    5460       3    5445    5463       3    5442
    5448       3    5442    5451       3    5442    5454       3    5475    5487
       3    5475    5490       3    5475    5493       3    5472    5478       3
    5472    5481       3    5472    5484       3    5505    5517       3    5505
    5520       3    5505    5523       3    5502    5508       3    5502    5511
       3    5502    5514       3    5535    5547       3    5535    5550       3
    5535    5553       3    5532    5538       3    5532    5541       3    5532
    5544       3    5565    5577       3    5565    5580       3    5565    5583
       3    5562    5568       3    5562    5571       3    5562    5574       3
    5595    5607       3    5595    5610       3    5595    5613       3    5592
    5598       3    5592    5601       3    5592    5604       3    5625    5637
       3    5625    5640       3    5625    5643       3    5622    5628       3
    5622    5631       3    5622    5634       3    5655    5667       3    5655
    5670       3    5655    5673       3    5652    5658       3    5652    5661
       3    5652    5664       3    5685    5697       3    5685    5700       3
    5685    5703       3    5682    5688       3    5682    5691       3    5682
    5694       3    5715    5727       3    5715    5730       3    5715    5733
       3    5712    5718       3    5712    5721       3    5712    5724       3
    5745    5757       3    5745    5760       3    5745    5763       3    5742
    5748       3    5742    5751       3    5742    5754       3    5775    5787
       3    5775    5790       3    5775    5793       3    5772    5778       3
    5772    5781       3    5772    5784       3    5805    5817       3    5805
    5820       3    5805    5823       3    5802    5808       3    5802    5811
       3    5802    5814       3    5835    5847       3    5835    5850       3
    5835    5853       3    5832    5838       3    5832    5841       3    5832
    5844       3    5865    5877       3    5865    5880       3    5865    5883
       3    5862    5868       3    5862    5871       3    5862    5874       3
    5895    5907       3    5895    5910       3    5895    5913       3    5892
    5898       3    5892    5901       3    5892    5904       3    5925    5937
       3    5925    5940       3    5925    5943       3    5922    5928       3
    5922    5931       3    5922    5934       3    5955    5967       3    5955
    5970       3    5955    5973       3    5952    5958       3    5952    5961
       3    5952    5964       3    5985    5997       3    5985    6000       3
    5985    6003       3    5982    5988       3    5982    5991       3    5982
    5994       3    6015    6027       3    6015    6030       3    6015    6033
       3    6012    6018       3    6012    6021       3    6012    6024       3
    6045    6057       3    6045    6060       3    6045    6063       3    6042
    6048       3    6042    6051       3    6042    6054       3    6075    6087
       3    6075    6090       3    6075    6093       3    6072    6078       3
    6072    6081       3    6072    6084       3    6105    6117       3    6105
    6120       3    6105    6123       3    6102    6108       3    6102    6111
       3    6102    6114       3    6135    6147       3    6135    6150       3
    6135    6153       3    6132    6138       3    6132    6141       3    6132
    6144       3    6165    6177       3    6165    6180       3    6165    6183
       3    6162    6168       3    6162    6171       3    6162    6174       3
    6195    6207       3    6195    6210       3    6195    6213       3    6192
    6198       3    6192    6201       3    6192    6204       3    6225    6237
       3    6225    6240       3    6225    6243       3    6222    6228       3
    6222    6231       3    6222    6234       3    6255    6267       3    6255
    6270       3    6255    6273       3    6252    6258       3    6252    6261
       3    6252    6264       3    6285    6297       3    6285    6300       3
    6285    6303       3    6282    6288       3    6282    6291       3    6282
    6294       3    6315    6327       3    6315    6330       3    6315    6333
       3    6312    6318       3    6312    6321       3    6312    6324       3
    6345    6357       3    6345    6360       3    6345    6363       3    6342
    6348       3    6342    6351       3    6342    6354       3    6375    6387
       3    6375    6390       3    6375    6393       3    6372    6378       3
    6372    6381       3    6372    6384       3    6405    6417       3    6405
    6420       3    6405    6423       3    6402    6408       3    6402    6411
       3    6402    6414       3    6435    6447       3    6435    6450       3
    6435    6453       3    6432    6438       3    6432    6441       3    6432
    6444       3    6465    6477       3    6465    6480       3    6465    6483
       3    6462    6468       3    6462    6471       3    6462    6474       3
    6495    6507       3    6495    6510       3    6495    6513       3    6492
    6498       3    6492    6501       3    6492    6504       3    6525    6537
       3    6525    6540       3    6525    6543       3    6522    6528       3
    6522    6531       3    6522    6534       3    6555    6567       3    6555
    6570       3    6555    6573       3    6552    6558       3    6552    6561
       3    6552    6564       3    6585    6597       3    6585    6600       3
    6585    6603       3    6582    6588       3    6582    6591       3    6582
    6594       3    6615    6627       3    6615    6630       3    6615    6633
       3    6612    6618       3    6612    6621       3    6612    6624       3
    6645    6657       3    6645    6660       3    6645    6663       3    6642
    6648       3    6642    6651       3    6642    6654       3    6675    6687
       3    6675    6690       3    6675    6693       3    6672    6678       3
    6672    6681       3    6672    6684       3    6705    6717       3    6705
    6720       3    6705    6723       3    6702    6708       3    6702    6711
       3    6702    6714       3    6735    6747       3    6735    6750       3
    6735    6753       3    6732    6738       3    6732    6741       3    6732
    6744       3    6765    6777       3    6765    6780       3    6765    6783
       3    6762    6768       3    6762    6771       3    6762    6774       3
    6795    6807       3    6795    6810       3    6795    6813       3    6792
    6798       3    6792    6801       3    6792    6804       3    6825    6837
       3    6825    6840       3    6825    6843       3    6822    6828       3
    6822    6831       3    6822    6834       3    6855    6867       3    6855
    6870       3    6855    6873       3    6852    6858       3    6852    6861
       3    6852    6864       3    6885    6897       3    6885    6900       3
    6885    6903       3    6882    6888       3    6882    6891       3    6882
    6894       3    6915    6927       3    6915    6930       3    6915    6933
       3    6912    6918       3    6912    6921       3    6912    6924       3
    6945    6957       3    6945    6960       3    6945    6963       3    6942
    6948       3    6942    6951       3    6942    6954       3    6975    6987
       3    6975    6990       3    6975    6993       3    6972    6978       3
    6972    6981       3    6972    6984       3    7005    7017       3    7005
    7020       3    7005    7023       3    7002    7008       3    7002    7011
       3    7002    7014       3    7035    7047       3    7035    7050       3
    7035    7053       3    7032    7038       3    7032    7041       3    7032
    7044       3    7065    7077       3    7065    7080       3    7065    7083
       3    7062    7068       3    7062    7071       3    7062    7074       3
    7095    7107       3    7095    7110       3    7095    7113       3    7092
    7098       3    7092    7101       3    7092    7104       3    7125    7137
       3    7125    7140       3    7125    7143       3    7122    7128       3
    7122    7131       3    7122    7134       3    7155    7167       3    7155
    7170       3    7155    7173       3    7152    7158       3    7152    7161
       3    7152    7164       3    7185    7197       3    7185    7200       3
    7185    7203       3    7182    7188       3    7182    7191       3    7182
    7194       3    7215    7227       3    7215    7230       3    7215    7233
       3    7212    7218       3    7212    7221       3    7212    7224       3
    7245    7257       3    7245    7260       3    7245    7263       3    7242
    7248       3    7242    7251       3    7242    7254       3    7275    7287
       3    7275    7290       3    7275    7293       3    7272    7278       3
    7272    7281       3    7272    7284       3    7305    7317       3    7305
    7320       3    7305    7323       3    7302    7308       3    7302    7311
       3    7302    7314       3    7335    7347       3    7335    7350       3
    7335    7353       3    7332    7338       3    7332    7341       3    7332
    7344       3    7365    7377       3    7365    7380       3    7365    7383
       3    7362    7368       3    7362    7371       3    7362    7374       3
    7395    7407       3    7395    7410       3    7395    7413       3    7392
    7398       3    7392    7401       3    7392    7404       3    7425    7437
       3    7425    7440       3    7425    7443       3    7422    7428       3
    7422    7431       3    7422    7434       3    7455    7467       3    7455
    7470       3    7455    7473       3    7452    7458       3    7452    7461
       3    7452    7464       3    7485    7497       3    7485    7500       3
    7485    7503       3    7482    7488       3    7482    7491       3    7482
    7494       3    7515    7527       3    7515    7530       3    7515    7533
       3    7512    7518       3    7512    7521       3    7512    7524       3
    7545    7557       3    7545    7560       3    7545    7563       3    7542
    7548       3    7542    7551       3    7542    7554       3    7575    7587
       3    7575    7590       3    7575    7593       3    7572    7578       3
    7572    7581       3    7572    7584       3    7605    7617       3    7605
    7620       3    7605    7623       3    7602    7608       3    7602    7611
       3    7602    7614       3    7635    7647       3    7635    7650       3
    7635    7653       3    7632    7638       3    7632    7641       3    7632
    7644       3    7665    7677       3    7665    7680       3    7665    7683
       3    7662    7668       3    7662    7671       3    7662    7674       3
    7695    7707       3    7695    7710       3    7695    7713       3    7692
    7698       3    7692    7701       3    7692    7704       3    7725    7737
       3    7725    7740       3    7725    7743       3    7722    7728       3
    7722    7731       3    7722    7734       3    7755    7767       3    7755
    7770       3    7755    7773       3    7752    7758       3    7752    7761
       3    7752    7764       3    7785    7797       3    7785    7800       3
    7785    7803       3    7782    7788       3    7782    7791       3    7782
    7794       3    7815    7827       3    7815    7830       3    7815    7833
       3    7812    7818       3    7812    7821       3    7812    7824       3
    7845    7857       3    7845    7860       3    7845    7863       3    7842
    7848       3    7842    7851       3    7842    7854       3    7875    7887
       3    7875    7890       3    7875    7893       3    7872    7878       3
    7872    7881       3    7872    7884       3    7905    7917       3    7905
    7920       3    7905    7923       3    7902    7908       3    7902    7911
       3    7902    7914       3    7935    7947       3    7935    7950       3
    7935    7953       3    7932    7938       3    7932    7941       3    7932
    7944       3    7965    7977       3    7965    7980       3    7965    7983
       3    7962    7968       3    7962    7971       3    7962    7974       3
    7995    8007       3    7995    8010       3    7995    8013       3    7992
    7998       3    7992    8001       3    7992    8004       3    8025    8037
       3    8025    8040       3    8025    8043       3    8022    8028       3
    8022    8031       3    8022    8034       3    8055    8067       3    8055
    8070       3    8055    8073       3    8052    8058       3    8052    8061
       3    8052    8064       3    8085    8097       3    8085    8100       3
    8085    8103       3    8082    8088       3    8082    8091       3    8082
    8094       3    8115    8127       3    8115    8130       3    8115    8133
       3    8112    8118       3    8112    8121       3    8112    8124       3
    8145    8157       3    8145    8160       3    8145    8163       3    8142
    8148       3    8142    8151       3    8142    8154       3    8175    8187
       3    8175    8190       3    8175    8193       3    8172    8178       3
    8172    8181       3    8172    8184       3    8205    8217       3    8205
    8220       3    8205    8223       3    8202    8208       3    8202    8211
       3    8202    8214       3    8235    8247       3    8235    8250       3
    8235    8253       3    8232    8238       3    8232    8241       3    8232
    8244       3    8265    8277       3    8265    8280       3    8265    8283
       3    8262    8268       3    8262    8271       3    8262    8274       3
    8295    8307       3    8295    8310       3    8295    8313       3    8292
    8298       3    8292    8301       3    8292    8304       3    8325    8337
       3    8325    8340       3    8325    8343       3    8322    8328       3
    8322    8331       3    8322    8334       3    8355    8367       3    8355
    8370       3    8355    8373       3    8352    8358       3    8352    8361
       3    8352    8364       3    8385    8397       3    8385    8400       3
    8385    8403       3    8382    8388       3    8382    8391       3    8382
    8394       3    8415    8427       3    8415    8430       3    8415    8433
       3    8412    8418       3    8412    8421       3    8412    8424       3
    8445    8457       3    8445    8460       3    8445    8463       3    8442
    8448       3    8442    8451       3    8442    8454       3    8475    8487
       3    8475    8490       3    8475    8493       3    8472    8478       3
    8472    8481       3    8472    8484       3    8505    8517       3    8505
    8520       3    8505    8523       3    8502    8508       3    8502    8511
       3    8502    8514       3    8535    8547       3    8535    8550       3
    8535    8553       3    8532    8538       3    8532    8541       3    8532
    8544       3    8565    8577       3    8565    8580       3    8565    8583
       3    8562    8568       3    8562    8571       3    8562    8574       3
    8595    8607       3    8595    8610       3    8595    8613       3    8592
    8598       3    8592    8601       3    8592    8604       3    8625    8637
       3    8625    8640       3    8625    8643       3    8622    8628       3
    8622    8631       3    8622    8634       3    8655    8667       3    8655
    8670       3    8655    8673       3    8652    8658       3    8652    8661
       3    8652    8664       3    8685    8697       3    8685    8700       3
    8685    8703       3    8682    8688       3    8682    8691       3    8682
    8694       3    8715    8727       3    8715    8730       3    8715    8733
       3    8712    8718       3    8712    8721       3    8712    8724       3
    8745    8757       3    8745    8760       3    8745    8763       3    8742
    8748       3    8742    8751       3    8742    8754       3    8775    8787
       3    8775    8790       3    8775    8793       3    8772    8778       3
    8772    8781       3    8772    8784       3    8805    8817       3    8805
    8820       3    8805    8823       3    8802    8808       3    8802    8811
       3    8802    8814       3    8835    8847       3    8835    8850       3
    8835    8853       3    8832    8838       3    8832    8841       3    8832
    8844       3    8865    8877       3    8865    8880       3    8865    8883
       3    8862    8868       3    8862    8871       3    8862    8874       3
    8895    8907       3    8895    8910       3    8895    8913       3    8892
    8898       3    8892    8901       3    8892    8904       3    8925    8937
       3    8925    8940       3    8925    8943       3    8922    8928       3
    8922    8931       3    8922    8934       3    8955    8967       3    8955
    8970       3    8955    8973       3    8952    8958       3    8952    8961
       3    8952    8964       3    8985    8997       3    8985    9000       3
    8985    9003       3    8982    8988       3    8982    8991       3    8982
    8994       3    9015    9027       3    9015    9030       3    9015    9033
       3    9012    9018       3    9012    9021       3    9012    9024       3
    9045    9057       3    9045    9060       3    9045    9063       3    9042
    9048       3    9042    9051       3    9042    9054       3    9075    9087
       3    9075    9090       3    9075    9093       3    9072    9078       3
    9072    9081       3    9072    9084       3    9105    9117       3    9105
    9120       3    9105    9123       3    9102    9108       3    9102    9111
       3    9102    9114       3    9135    9147       3    9135    9150       3
    9135    9153       3    9132    9138       3    9132    9141       3    9132
    9144       3    9165    9177       3    9165    9180       3    9165    9183
       3    9162    9168       3    9162    9171       3    9162    9174       3
    9195    9207       3    9195    9210       3    9195    9213       3    9192
    9198       3    9192    9201       3    9192    9204       3    9225    9237
       3    9225    9240       3    9225    9243       3    9222    9228       3
    9222    9231       3    9222    9234       3    9255    9267       3    9255
    9270       3    9255    9273       3    9252    9258       3    9252    9261
       3    9252    9264       3    9285    9297       3    9285    9300       3
    9285    9303       3    9282    9288       3    9282    9291       3    9282
    9294       3    9315    9327       3    9315    9330       3    9315    9333
       3    9312    9318       3    9312    9321       3    9312    9324       3
    9345    9357       3    9345    9360       3    9345    9363       3    9342
    9348       3    9342    9351       3    9342    9354       3    9375    9387
       3    9375    9390       3    9375    9393       3    9372    9378       3
    9372    9381       3    9372    9384       3    9405    9417       3    9405
    9420       3    9405    9423       3    9402    9408       3    9402    9411
       3    9402    9414       3    9435    9447       3    9435    9450       3
    9435    9453       3    9432    9438       3    9432    9441       3    9432
    9444       3    9465    9477       3    9465    9480       3    9465    9483
       3    9462    9468       3    9462    9471       3    9462    9474       3
    9495    9507       3    9495    9510       3    9495    9513       3    9492
    9498       3    9492    9501       3    9492    9504       3    9525    9537
       3    9525    9540       3    9525    9543       3    9522    9528       3
    9522    9531       3    9522    9534       3    9555    9567       3    9555
    9570       3    9555    9573       3    9552    9558       3    9552    9561
       3    9552    9564       3    9585    9597       3    9585    9600       3
    9585    9603       3    9582    9588       3    9582    9591       3    9582
    9594       3    9615    9627       3    9615    9630       3    9615    9633
       3    9612    9618       3    9612    9621       3    9612    9624       3
    9645    9657       3    9645    9660       3    9645    9663       3    9642
    9648       3    9642    9651       3    9642    9654       3    9675    9687
       3    9675    9690       3    9675    9693       3    9672    9678       3
    9672    9681       3    9672    9684       3    9705    9717       3    9705
    9720       3    9705    9723       3    9702    9708       3    9702    9711
       3    9702    9714       3    9735    9747       3    9735    9750       3
    9735    9753       3    9732    9738       3    9732    9741       3    9732
    9744       3    9765    9777       3    9765    9780       3    9765    9783
       3    9762    9768       3    9762    9771       3    9762    9774       3
    9795    9807       3    9795    9810       3    9795    9813       3    9792
    9798       3    9792    9801       3    9792    9804       3    9825    9837
       3    9825    9840       3    9825    9843       3    9822    9828       3
    9822    9831       3    9822    9834       3    9855    9867       3    9855
    9870       3    9855    9873       3    9852    9858       3    9852    9861
       3    9852    9864       3    9885    9897       3    9885    9900       3
    9885    9903       3    9882    9888       3    9882    9891       3    9882
    9894       3    9915    9927       3    9915    9930       3    9915    9933
       3    9912    9918       3    9912    9921       3    9912    9924       3
    9945    9957       3    9945    9960       3    9945    9963       3    9942
    9948       3    9942    9951       3    9942    9954       3    9975    9987
       3    9975    9990       3    9975    9993       3    9972    9978       3
    9972    9981       3    9972    9984       3   10005   10017       3   10005
   10020       3   10005   10023       3   10002   10008       3   10002   10011
       3   10002   10014       3   10035   10047       3   10035   10050       3
   10035   10053       3   10032   10038       3   10032   10041       3   10032
   10044       3   10065   10077       3   10065   10080       3   10065   10083
       3   10062   10068       3   10062   10071       3   10062   10074       3
   10095   10107       3   10095   10110       3   10095   10113       3   10092
   10098       3   10092   10101       3   10092   10104       3   10125   10137
       3   10125   10140       3   10125   10143       3   10122   10128       3
   10122   10131       3   10122   10134       3   10155   10167       3   10155
   10170       3   10155   10173       3   10152   10158       3   10152   10161
       3   10152   10164       3   10185   10197       3   10185   10200       3
   10185   10203       3   10182   10188       3   10182   10191       3   10182
   10194       3   10215   10227       3   10215   10230       3   10215   10233
       3   10212   10218       3   10212   10221       3   10212   10224       3
   10245   10257       3   10245   10260       3   10245   10263       3   10242
   10248       3   10242   10251       3   10242   10254       3   10275   10287
       3   10275   10290       3   10275   10293       3   10272   10278       3
   10272   10281       3   10272   10284       3   10305   10317       3   10305
   10320       3   10305   10323       3   10302   10308       3   10302   10311
       3   10302   10314       3
%FLAG BONDS_WITHOUT_HYDROGEN                                                    
%FORMAT(10I8)                                                                   
      66      69       2      63      69       2      60      66       2      48
      51       4      42      51       6      42      63       2      39      45
       2      36      48       7      33      42       2      33      60       2
      27      57       8      24      54       8      21      45       2      18
      33      10      18      36      11      15      21       2      15      30
       2      12      30       2      12      39       2       9      18      12
       9      21      13       6      12      14       6      24      15       6
      27      15       3      51      16       0      15      17       0      36
      18     129     132      19     129     135      19     126     129      16
     159     162      19     159     165      19     156     159      16     189
     192      19     189     195      19     186     189      16     219     222
      19     219     225      19     216     219      16     249     252      19
     249     255      19     246     249      16     279     282      19     279
     285      19     276     279      16     309     312      19     309     315
      19     306     309      16     339     342      19     339     345      19
     336     339      16     369     372      19     369     375      19     366
     369      16     399     402      19     399     405      19     396     399
      16     429     432      19     429     435      19     426     429      16
     459     462      19     459     465      19     456     459      16     489
     492      19     489     495      19     486     489      16     519     522
      19     519     525      19     516     519      16     549     552      19
     549     555      19     546     549      16     579     582      19     579
     585      19     576     579      16     609     612      19     609     615
      19     606     609      16     639     642      19     639     645      19
     636     639      16     669     672      19     669     675      19     666
     669      16     699     702      19     699     705      19     696     699
      16     729     732      19     729     735      19     726     729      16
     759     762      19     759     765      19     756     759      16     789
     792      19     789     795      19     786     789      16     819     822
      19     819     825      19     816     819      16     849     852      19
     849     855      19     846     849      16     879     882      19     879
     885      19     876     879      16     909     912      19     909     915
      19     906     909      16     939     942      19     939     945      19
     936     939      16     969     972      19     969     975      19     966
     969      16     999    1002      19     999    1005      19     996     999
      16    1029    1032      19    1029    1035      19    1026    1029      16
    1059    1062      19    1059    1065      19    1056    1059      16    1089
    1092      19    1089    1095      19    1086    1089      16    1119    1122
      19    1119    1125      19    1116    1119      16    1149    1152      19
    1149    1155      19    1146    1149      16    1179    1182      19    1179
    1185      19    1176    1179      16    1209    1212      19    1209    1215
      19    1206    1209      16    1239    1242      19    1239    1245      19
    1236    1239      16    1269    1272      19    1269    1275      19    1266
    1269      16    1299    1302      19    1299    1305      19    1296    1299
      16    1329    1332      19    1329    1335      19    1326    1329      16
    1359    1362      19    1359    1365      19    1356    1359      16    1389
    1392      19    1389    1395      19    1386    1389      16    1419    1422
      19    1419    1425      19    1416    1419      16    1449    1452      19
    1449    1455      19    1446    1449      16    1479    1482      19    1479
    1485      19    1476    1479      16    1509    1512      19    1509    1515
      19    1506    1509      16    1539    1542      19    1539    1545      19
    1536    1539      16    1569    1572      19    1569    1575      19    1566
    1569      16    1599    1602      19    1599    1605      19    1596    1599
      16    1629    1632      19    1629    1635      19    1626    1629      16
    1659    1662      19    1659    1665      19    1656    1659      16    1689
    1692      19    1689    1695      19    1686    1689      16    1719    1722
      19    1719    1725      19    1716    1719      16    1749    1752      19
    1749    1755      19    1746    1749      16    1779    1782      19    1779
    1785      19    1776    1779      16    1809    1812      19    1809    1815
      19    1806    1809      16    1839    1842      19    1839    1845      19
    1836    1839      16    1869    1872      19    1869    1875      19    1866
    1869      16    1899    1902      19    1899    1905      19    1896    1899
      16    1929    1932      19    1929    1935      19    1926    1929      16
    1959    1962      19    1959    1965      19    1956    1959      16    1989
    1992      19    1989    1995      19    1986    1989      16    2019    2022
      19    2019    2025      19    2016    2019      16    2049    2052      19
    2049    2055      19    2046    2049      16    2079    2082      19    2079
    2085      19    2076    2079      16    2109    2112      19    2109    2115
      19    2106    2109      16    2139    2142      19    2139    2145      19
    2136    2139      16    2169    2172      19    2169    2175      19    2166
    2169      16    2199    2202      19    2199    2205      19    2196    2199
      16    2229    2232      19    2229    2235      19    2226    2229      16
    2259    2262      19    2259    2265      19    2256    2259      16    2289
    2292      19    2289    2295      19    2286    2289      16    2319    2322
      19    2319    2325      19    2316    2319      16    2349    2352      19
    2349    2355      19    2346    2349      16    2379    2382      19    2379
    2385      19    2376    2379      16    2409    2412      19    2409    2415
      19    2406    2409      16    2439    2442      19    2439    2445      19
    2436    2439      16    2469    2472      19    2469    2475      19    2466
    2469      16    2499    2502      19    2499    2505      19    2496    2499
      16    2529    2532      19    2529    2535      19    2526    2529      16
    2559    2562      19    2559    2565      19    2556    2559      16    2589
    2592      19    2589    2595      19    2586    2589      16    2619    2622
      19    2619    2625      19    2616    2619      16    2649    2652      19
    2649    2655      19    2646    2649      16    2679    2682      19    2679
    2685      19    2676    2679      16    2709    2712      19    2709    2715
      19    2706    2709      16    2739    2742      19    2739    2745      19
    2736    2739      16    2769    2772      19    2769    2775      19    2766
    2769      16    2799    2802      19    2799    2805      19    2796    2799
      16    2829    2832      19    2829    2835      19    2826    2829      16
    2859    2862      19    2859    2865      19    2856    2859      16    2889
    2892      19    2889    2895      19    2886    2889      16    2919    2922
      19    2919    2925      19    2916    2919      16    2949    2952      19
    2949    2955      19    2946    2949      16    2979    2982      19    2979
    2985      19    2976    2979      16    3009    3012      19    3009    3015
      19    3006    3009      16    3039    3042      19    3039    3045      19
    3036    3039      16    3069    3072      19    3069    3075      19    3066
    3069      16    3099    3102      19    3099    3105      19    3096    3099
      16    3129    3132      19    3129    3135      19    3126    3129      16
    3159    3162      19    3159    3165      19    3156    3159      16    3189
    3192      19    3189    3195      19    3186    3189      16    3219    3222
      19    3219    3225      19    3216    3219      16    3249    3252      19
    3249    3255      19    3246    3249      16    3279    3282      19    3279
    3285      19    3276    3279      16    3309    3312      19    3309    3315
      19    3306    3309      16    3339    3342      19    3339    3345      19
    3336    3339      16    3369    3372      19    3369    3375      19    3366
    3369      16    3399    3402      19    3399    3405      19    3396    3399
      16    3429    3432      19    3429    3435      19    3426    3429      16
    3459    3462      19    3459    3465      19    3456    3459      16    3489
    3492      19    3489    3495      19    3486    3489      16    3519    3522
      19    3519    3525      19    3516    3519      16    3549    3552      19
    3549    3555      19    3546    3549      16    3579    3582      19    3579
    3585      19    3576    3579      16    3609    3612      19    3609    3615
      19    3606    3609      16    3639    3642      19    3639    3645      19
    3636    3639      16    3669    3672      19    3669    3675      19    3666
    3669      16    3699    3702      19    3699    3705      19    3696    3699
      16    3729    3732      19    3729    3735      19    3726    3729      16
    3759    3762      19    3759    3765      19    3756    3759      16    3789
    3792      19    3789    3795      19    3786    3789      16    3819    3822
      19    3819    3825      19    3816    3819      16    3849    3852      19
    3849    3855      19    3846    3849      16    3879    3882      19    3879
    3885      19    3876    3879      16    3909    3912      19    3909    3915
      19    3906    3909      16    3939    3942      19    3939    3945      19
    3936    3939      16    3969    3972      19    3969    3975      19    3966
    3969      16    3999    4002      19    3999    4005      19    3996    3999
      16    4029    4032      19    4029    4035      19    4026    4029      16
    4059    4062      19    4059    4065      19    4056    4059      16    4089
    4092      19    4089    4095      19    4086    4089      16    4119    4122
      19    4119    4125      19    4116    4119      16    4149    4152      19
    4149    4155      19    4146    4149      16    4179    4182      19    4179
    4185      19    4176    4179      16    4209    4212      19    4209    4215
      19    4206    4209      16    4239    4242      19    4239    4245      19
    4236    4239      16    4269    4272      19    4269    4275      19    4266
    4269      16    4299    4302      19    4299    4305      19    4296    4299
      16    4329    4332      19    4329    4335      19    4326    4329      16
    4359    4362      19    4359    4365      19    4356    4359      16    4389
    4392      19    4389    4395      19    4386    4389      16    4419    4422
      19    4419    4425      19    4416    4419      16    4449    4452      19
    4449    4455      19    4446    4449      16    4479    4482      19    4479
    4485      19    4476    4479      16    4509    4512      19    4509    4515
      19    4506    4509      16    4539    4542      19    4539    4545      19
    4536    4539      16    4569    4572      19    4569    4575      19    4566
    4569      16    4599    4602      19    4599    4605      19    4596    4599
      16    4629    4632      19    4629    4635      19    4626    4629      16
    4659    4662      19    4659    4665      19    4656    4659      16    4689
    4692      19    4689    4695      19    4686    4689      16    4719    4722
      19    4719    4725      19    4716    4719      16    4749    4752      19
    4749    4755      19    4746    4749      16    4779    4782      19    4779
    4785      19    4776    4779      16    4809    4812      19    4809    4815
      19    4806    4809      16    4839    4842      19    4839    4845      19
    4836    4839      16    4869    4872      19    4869    4875      19    4866
    4869      16    4899    4902      19    4899    4905      19    4896    4899
      16    4929    4932      19    4929    4935      19    4926    4929      16
    4959    4962      19    4959    4965      19    4956    4959      16    4989
    4992      19    4989    4995      19    4986    4989      16    5019    5022
      19    5019    5025      19    5016    5019      16    5049    5052      19
    5049    5055      19    5046    5049      16    5079    5082      19    5079
    5085      19    5076    5079      16    5109    5112      19    5109    5115
      19    5106    5109      16    5139    5142      19    5139    5145      19
    5136    5139      16    5169    5172      19    5169    5175      19    5166
    5169      16    5199    5202      19    5199    5205      19    5196    5199
      16    5229    5232      19    5229    5235      19    5226    5229      16
    5259    5262      19    5259    5265      19    5256    5259      16    5289
    5292      19    5289    5295      19    5286    5289      16    5319    5322
      19    5319    5325      19    5316    5319      16    5349    5352      19
    5349    5355      19    5346    5349      16    5379    5382      19    5379
    5385      19    5376    5379      16    5409    5412      19    5409    5415
      19    5406    5409      16    5439    5442      19    5439    5445      19
    5436    5439      16    5469    5472      19    5469    5475      19    5466
    5469      16    5499    5502      19    5499    5505      19    5496    5499
      16    5529    5532      19    5529    5535      19    5526    5529      16
    5559    5562      19    5559    5565      19    5556    5559      16    5589
    5592      19    5589    5595      19    5586    5589      16    5619    5622
      19    5619    5625      19    5616    5619      16    5649    5652      19
    5649    5655      19    5646    5649      16    5679    5682      19    5679
    5685      19    5676    5679      16    5709    5712      19    5709    5715
      19    5706    5709      16    5739    5742      19    5739    5745      19
    5736    5739      16    5769    5772      19    5769    5775      19    5766
    5769      16    5799    5802      19    5799    5805      19    5796    5799
      16    5829    5832      19    5829    5835      19    5826    5829      16
    5859    5862      19    5859    5865      19    5856    5859      16    5889
    5892      19    5889    5895      19    5886    5889      16    5919    5922
      19    5919    5925      19    5916    5919      16    5949    5952      19
    5949    5955      19    5946    5949      16    5979    5982      19    5979
    5985      19    5976    5979      16    6009    6012      19    6009    6015
      19    6006    6009      16    6039    6042      19    6039    6045      19
    6036    6039      16    6069    6072      19    6069    6075      19    6066
    6069      16    6099    6102      19    6099    6105      19    6096    6099
      16    6129    6132      19    6129    6135      19    6126    6129      16
    6159    6162      19    6159    6165      19    6156    6159      16    6189
    6192      19    6189    6195      19    6186    6189      16    6219    6222
      19    6219    6225      19    6216    6219      16    6249    6252      19
    6249    6255      19    6246    6249      16    6279    6282      19    6279
    6285      19    6276    6279      16    6309    6312      19    6309    6315
      19    6306    6309      16    6339    6342      19    6339    6345      19
    6336    6339      16    6369    6372      19    6369    6375      19    6366
    6369      16    6399    6402      19    6399    6405      19    6396    6399
      16    6429    6432      19    6429    6435      19    6426    6429      16
    6459    6462      19    6459    6465      19    6456    6459      16    6489
    6492      19    6489    6495      19    6486    6489      16    6519    6522
      19    6519    6525      19    6516    6519      16    6549    6552      19
    6549    6555      19    6546    6549      16    6579    6582      19    6579
    6585      19    6576    6579      16    6609    6612      19    6609    6615
      19    6606    6609      16    6639    6642      19    6639    6645      19
    6636    6639      16    6669    6672      19    6669    6675      19    6666
    6669      16    6699    6702      19    6699    6705      19    6696    6699
      16    6729    6732      19    6729    6735      19    6726    6729      16
    6759    6762      19    6759    6765      19    6756    6759      16    6789
    6792      19    6789    6795      19    6786    6789      16    6819    6822
      19    6819    6825      19    6816    6819      16    6849    6852      19
    6849    6855      19    6846    6849      16    6879    6882      19    6879
    6885      19    6876    6879      16    6909    6912      19    6909    6915
      19    6906    6909      16    6939    6942      19    6939    6945      19
    6936    6939      16    6969    6972      19    6969    6975      19    6966
    6969      16    6999    7002      19    6999    7005      19    6996    6999
      16    7029    7032      19    7029    7035      19    7026    7029      16
    7059    7062      19    7059    7065      19    7056    7059      16    7089
    7092      19    7089    7095      19    7086    7089      16    7119    7122
      19    7119    7125      19    7116    7119      16    7149    7152      19
    7149    7155      19    7146    7149      16    7179    7182      19    7179
    7185      19    7176    7179      16    7209    7212      19    7209    7215
      19    7206    7209      16    7239    7242      19    7239    7245      19
    7236    7239      16    7269    7272      19    7269    7275      19    7266
    7269      16    7299    7302      19    7299    7305      19    7296    7299
      16    7329    7332      19    7329    7335      19    7326    7329      16
    7359    7362      19    7359    7365      19    7356    7359      16    7389
    7392      19    7389    7395      19    7386    7389      16    7419    7422
      19    7419    7425      19    7416    7419      16    7449    7452      19
    7449    7455      19    7446    7449      16    7479    7482      19    7479
    7485      19    7476    7479      16    7509    7512      19    7509    7515
      19    7506    7509      16    7539    7542      19    7539    7545      19
    7536    7539      16    7569    7572      19    7569    7575      19    7566
    7569      16    7599    7602      19    7599    7605      19    7596    7599
      16    7629    7632      19    7629    7635      19    7626    7629      16
    7659    7662      19    7659    7665      19    7656    7659      16    7689
    7692      19    7689    7695      19    7686    7689      16    7719    7722
      19    7719    7725      19    7716    7719      16    7749    7752      19
    7749    7755      19    7746    7749      16    7779    7782      19    7779
    7785      19    7776    7779      16    7809    7812      19    7809    7815
      19    7806    7809      16    7839    7842      19    7839    7845      19
    7836    7839      16    7869    7872      19    7869    7875      19    7866
    7869      16    7899    7902      19    7899    7905      19    7896    7899
      16    7929    7932      19    7929    7935      19    7926    7929      16
    7959    7962      19    7959    7965      19    7956    7959      16    7989
    7992      19    7989    7995      19    7986    7989      16    8019    8022
      19    8019    8025      19    8016    8019      16    8049    8052      19
    8049    8055      19    8046    8049      16    8079    8082      19    8079
    8085      19    8076    8079      16    8109    8112      19    8109    8115
      19    8106    8109      16    8139    8142      19    8139    8145      19
    8136    8139      16    8169    8172      19    8169    8175      19    8166
    8169      16    8199    8202      19    8199    8205      19    8196    8199
      16    8229    8232      19    8229    8235      19    8226    8229      16
    8259    8262      19    8259    8265      19    8256    8259      16    8289
    8292      19    8289    8295      19    8286    8289      16    8319    8322
      19    8319    8325      19    8316    8319      16    8349    8352      19
    8349    8355      19    8346    8349      16    8379    8382      19    8379
    8385      19    8376    8379      16    8409    8412      19    8409    8415
      19    8406    8409      16    8439    8442      19    8439    8445      19
    8436    8439      16    8469    8472      19    8469    8475      19    8466
    8469      16    8499    8502      19    8499    8505      19    8496    8499
      16    8529    8532      19    8529    8535      19    8526    8529      16
    8559    8562      19    8559    8565      19    8556    8559      16    8589
    8592      19    8589    8595      19    8586    8589      16    8619    8622
      19    8619    8625      19    8616    8619      16    8649    8652      19
    8649    8655      19    8646    8649      16    8679    8682      19    8679
    8685      19    8676    8679      16    8709    8712      19    8709    8715
      19    8706    8709      16    8739    8742      19    8739    8745      19
    8736    8739      16    8769    8772      19    8769    8775      19    8766
    8769      16    8799    8802      19    8799    8805      19    8796    8799
      16    8829    8832      19    8829    8835      19    8826    8829      16
    8859    8862      19    8859    8865      19    8856    8859      16    8889
    8892      19    8889    8895      19    8886    8889      16    8919    8922
      19    8919    8925      19    8916    8919      16    8949    8952      19
    8949    8955      19    8946    8949      16    8979    8982      19    8979
    8985      19    8976    8979      16    9009    9012      19    9009    9015
      19    9006    9009      16    9039    9042      19    9039    9045      19
    9036    9039      16    9069    9072      19    9069    9075      19    9066
    9069      16    9099    9102      19    9099    9105      19    9096    9099
      16    9129    9132      19    9129    9135      19    9126    9129      16
    9159    9162      19    9159    9165      19    9156    9159      16    9189
    9192      19    9189    9195      19    9186    9189      16    9219    9222
      19    9219    9225      19    9216    9219      16    9249    9252      19
    9249    9255      19    9246    9249      16    9279    9282      19    9279
    9285      19    9276    9279      16    9309    9312      19    9309    9315
      19    9306    9309      16    9339    9342      19    9339    9345      19
    9336    9339      16    9369    9372      19    9369    9375      19    9366
    9369      16    9399    9402      19    9399    9405      19    9396    9399
      16    9429    9432      19    9429    9435      19    9426    9429      16
    9459    9462      19    9459    9465      19    9456    9459      16    9489
    9492      19    9489    9495      19    9486    9489      16    9519    9522
      19    9519    9525      19    9516    9519      16    9549    9552      19
    9549    9555      19    9546    9549      16    9579    9582      19    9579
    9585      19    9576    9579      16    9609    9612      19    9609    9615
      19    9606    9609      16    9639    9642      19    9639    9645      19
    9636    9639      16    9669    9672      19    9669    9675      19    9666
    9669      16    9699    9702      19    9699    9705      19    9696    9699
      16    9729    9732      19    9729    9735      19    9726    9729      16
    9759    9762      19    9759    9765      19    9756    9759      16    9789
    9792      19    9789    9795      19    9786    9789      16    9819    9822
      19    9819    9825      19    9816    9819      16    9849    9852      19
    9849    9855      19    9846    9849      16    9879    9882      19    9879
    9885      19    9876    9879      16    9909    9912      19    9909    9915
      19    9906    9909      16    9939    9942      19    9939    9945      19
    9936    9939      16    9969    9972      19    9969    9975      19    9966
    9969      16    9999   10002      19    9999   10005      19    9996    9999
      16   10029   10032      19   10029   10035      19   10026   10029      16
   10059   10062      19   10059   10065      19   10056   10059      16   10089
   10092      19   10089   10095      19   10086   10089      16   10119   10122
      19   10119   10125      19   10116   10119      16   10149   10152      19
   10149   10155      19   10146   10149      16   10179   10182      19   10179
   10185      19   10176   10179      16   10209   10212      19   10209   10215
      19   10206   10209      16   10239   10242      19   10239   10245      19
   10236   10239      16   10269   10272      19   10269   10275      19   10266
   10269      16   10299   10302      19   10299   10305      19   10296   10299
      16
%FLAG ANGLES_INC_HYDROGEN                                                       
%FORMAT(10I8)                                                                   
     108      57     111       1     105      57     108       1     105      57
     111       1      99      54     102       1      96      54      99       1
      96      54     102       1      78      27      81       2      72      24
      75       2      69      63     117       3      69      66     120       3
      66      60     114       3      66      69     123       3      63      69
     123       3      60      66     120       3      57      27      78       5
      57      27      81       5      54      24      72       5      54      24
      75       5      51      48      93       7      45      39      87       3
      42      63     117       3      39      45      90       3      36      48
      93      10      33      60     114       3      27      57     105      12
      27      57     108      12      27      57     111      12      24      54
      96      12      24      54      99      12      24      54     102      12
      21      45      90       3      15      30      84       3      12      30
      84       3      12      39      87       3       6      24      72      24
       6      24      75      24       6      27      78      24       6      27
      81      24     150     135     153       1     147     135     150       1
     147     135     153       1     141     132     144       1     138     132
     141       1     138     132     144       1     129     132     138      31
     129     132     141      31     129     132     144      31     129     135
     147      31     129     135     150      31     129     135     153      31
     180     165     183       1     177     165     180       1     177     165
     183       1     171     162     174       1     168     162     171       1
     168     162     174       1     159     162     168      31     159     162
     171      31     159     162     174      31     159     165     177      31
     159     165     180      31     159     165     183      31     210     195
     213       1     207     195     210       1     207     195     213       1
     201     192     204       1     198     192     201       1     198     192
     204       1     189     192     198      31     189     192     201      31
     189     192     204      31     189     195     207      31     189     195
     210      31     189     195     213      31     240     225     243       1
     237     225     240       1     237     225     243       1     231     222
     234       1     228     222     231       1     228     222     234       1
     219     222     228      31     219     222     231      31     219     222
     234      31     219     225     237      31     219     225     240      31
     219     225     243      31     270     255     273       1     267     255
     270       1     267     255     273       1     261     252     264       1
     258     252     261       1     258     252     264       1     249     252
     258      31     249     252     261      31     249     252     264      31
     249     255     267      31     249     255     270      31     249     255
     273      31     300     285     303       1     297     285     300       1
     297     285     303       1     291     282     294       1     288     282
     291       1     288     282     294       1     279     282     288      31
     279     282     291      31     279     282     294      31     279     285
     297      31     279     285     300      31     279     285     303      31
     330     315     333       1     327     315     330       1     327     315
     333       1     321     312     324       1     318     312     321       1
     318     312     324       1     309     312     318      31     309     312
     321      31     309     312     324      31     309     315     327      31
     309     315     330      31     309     315     333      31     360     345
     363       1     357     345     360       1     357     345     363       1
     351     342     354       1     348     342     351       1     348     342
     354       1     339     342     348      31     339     342     351      31
     339     342     354      31     339     345     357      31     339     345
     360      31     339     345     363      31     390     375     393       1
     387     375     390       1     387     375     393       1     381     372
     384       1     378     372     381       1     378     372     384       1
     369     372     378      31     369     372     381      31     369     372
     384      31     369     375     387      31     369     375     390      31
     369     375     393      31     420     405     423       1     417     405
     420       1     417     405     423       1     411     402     414       1
     408     402     411       1     408     402     414       1     399     402
     408      31     399     402     411      31     399     402     414      31
     399     405     417      31     399     405     420      31     399     405
     423      31     450     435     453       1     447     435     450       1
     447     435     453       1     441     432     444       1     438     432
     441       1     438     432     444       1     429     432     438      31
     429     432     441      31     429     432     444      31     429     435
     447      31     429     435     450      31     429     435     453      31
     480     465     483       1     477     465     480       1     477     465
     483       1     471     462     474       1     468     462     471       1
     468     462     474       1     459     462     468      31     459     462
     471      31     459     462     474      31     459     465     477      31
     459     465     480      31     459     465     483      31     510     495
     513       1     507     495     510       1     507     495     513       1
     501     492     504       1     498     492     501       1     498     492
     504       1     489     492     498      31     489     492     501      31
     489     492     504      31     489     495     507      31     489     495
     510      31     489     495     513      31     540     525     543       1
     537     525     540       1     537     525     543       1     531     522
     534       1     528     522     531       1     528     522     534       1
     519     522     528      31     519     522     531      31     519     522
     534      31     519     525     537      31     519     525     540      31
     519     525     543      31     570     555     573       1     567     555
     570       1     567     555     573       1     561     552     564       1
     558     552     561       1     558     552     564       1     549     552
     558      31     549     552     561      31     549     552     564      31
     549     555     567      31     549     555     570      31     549     555
     573      31     600     585     603       1     597     585     600       1
     597     585     603       1     591     582     594       1     588     582
     591       1     588     582     594       1     579     582     588      31
     579     582     591      31     579     582     594      31     579     585
     597      31     579     585     600      31     579     585     603      31
     630     615     633       1     627     615     630       1     627     615
     633       1     621     612     624       1     618     612     621       1
     618     612     624       1     609     612     618      31     609     612
     621      31     609     612     624      31     609     615     627      31
     609     615     630      31     609     615     633      31     660     645
     663       1     657     645     660       1     657     645     663       1
     651     642     654       1     648     642     651       1     648     642
     654       1     639     642     648      31     639     642     651      31
     639     642     654      31     639     645     657      31     639     645
     660      31     639     645     663      31     690     675     693       1
     687     675     690       1     687     675     693       1     681     672
     684       1     678     672     681       1     678     672     684       1
     669     672     678      31     669     672     681      31     669     672
     684      31     669     675     687      31     669     675     690      31
     669     675     693      31     720     705     723       1     717     705
     720       1     717     705     723       1     711     702     714       1
     708     702     711       1     708     702     714       1     699     702
     708      31     699     702     711      31     699     702     714      31
     699     705     717      31     699     705     720      31     699     705
     723      31     750     735     753       1     747     735     750       1
     747     735     753       1     741     732     744       1     738     732
     741       1     738     732     744       1     729     732     738      31
     729     732     741      31     729     732     744      31     729     735
     747      31     729     735     750      31     729     735     753      31
     780     765     783       1     777     765     780       1     777     765
     783       1     771     762     774       1     768     762     771       1
     768     762     774       1     759     762     768      31     759     762
     771      31     759     762     774      31     759     765     777      31
     759     765     780      31     759     765     783      31     810     795
     813       1     807     795     810       1     807     795     813       1
     801     792     804       1     798     792     801       1     798     792
     804       1     789     792     798      31     789     792     801      31
     789     792     804      31     789     795     807      31     789     795
     810      31     789     795     813      31     840     825     843       1
     837     825     840       1     837     825     843       1     831     822
     834       1     828     822     831       1     828     822     834       1
     819     822     828      31     819     822     831      31     819     822
     834      31     819     825     837      31     819     825     840      31
     819     825     843      31     870     855     873       1     867     855
     870       1     867     855     873       1     861     852     864       1
     858     852     861       1     858     852     864       1     849     852
     858      31     849     852     861      31     849     852     864      31
     849     855     867      31     849     855     870      31     849     855
     873      31     900     885     903       1     897     885     900       1
     897     885     903       1     891     882     894       1     888     882
     891       1     888     882     894       1     879     882     888      31
     879     882     891      31     879     882     894      31     879     885
     897      31     879     885     900      31     879     885     903      31
     930     915     933       1     927     915     930       1     927     915
     933       1     921     912     924       1     918     912     921       1
     918     912     924       1     909     912     918      31     909     912
     921      31     909     912     924      31     909     915     927      31
     909     915     930      31     909     915     933      31     960     945
     963       1     957     945     960       1     957     945     963       1
     951     942     954       1     948     942     951       1     948     942
     954       1     939     942     948      31     939     942     951      31
     939     942     954      31     939     945     957      31     939     945
     960      31     939     945     963      31     990     975     993       1
     987     975     990       1     987     975     993       1     981     972
     984       1     978     972     981       1     978     972     984       1
     969     972     978      31     969     972     981      31     969     972
     984      31     969     975     987      31     969     975     990      31
     969     975     993      31    1020    1005    1023       1    1017    1005
    1020       1    1017    1005    1023       1    1011    1002    1014       1
    1008    1002    1011       1    1008    1002    1014       1     999    1002
    1008      31     999    1002    1011      31     999    1002    1014      31
     999    1005    1017      31     999    1005    1020      31     999    1005
    1023      31    1050    1035    1053       1    1047    1035    1050       1
    1047    1035    1053       1    1041    1032    1044       1    1038    1032
    1041       1    1038    1032    1044       1    1029    1032    1038      31
    1029    1032    1041      31    1029    1032    1044      31    1029    1035
    1047      31    1029    1035    1050      31    1029    1035    1053      31
    1080    1065    1083       1    1077    1065    1080       1    1077    1065
    1083       1    1071    1062    1074       1    1068    1062    1071       1
    1068    1062    1074       1    1059    1062    1068      31    1059    1062
    1071      31    1059    1062    1074      31    1059    1065    1077      31
    1059    1065    1080      31    1059    1065    1083      31    1110    1095
    1113       1    1107    1095    1110       1    1107    1095    1113       1
    1101    1092    1104       1    1098    1092    1101       1    1098    1092
    1104       1    1089    1092    1098      31    1089    1092    1101      31
    1089    1092    1104      31    1089    1095    1107      31    1089    1095
    1110      31    1089    1095    1113      31    1140    1125    1143       1
    1137    1125    1140       1    1137    1125    1143       1    1131    1122
    1134       1    1128    1122    1131       1    1128    1122    1134       1
    1119    1122    1128      31    1119    1122    1131      31    1119    1122
    1134      31    1119    1125    1137      31    1119    1125    1140      31
    1119    1125    1143      31    1170    1155    1173       1    1167    1155
    1170       1    1167    1155    1173       1    1161    1152    1164       1
    1158    1152    1161       1    1158    1152    1164       1    1149    1152
    1158      31    1149    1152    1161      31    1149    1152    1164      31
    1149    1155    1167      31    1149    1155    1170      31    1149    1155
    1173      31    1200    1185    1203       1    1197    1185    1200       1
    1197    1185    1203       1    1191    1182    1194       1    1188    1182
    1191       1    1188    1182    1194       1    1179    1182    1188      31
    1179    1182    1191      31    1179    1182    1194      31    1179    1185
    1197      31    1179    1185    1200      31    1179    1185    1203      31
    1230    1215    1233       1    1227    1215    1230       1    1227    1215
    1233       1    1221    1212    1224       1    1218    1212    1221       1
    1218    1212    1224       1    1209    1212    1218      31    1209    1212
    1221      31    1209    1212    1224      31    1209    1215    1227      31
    1209    1215    1230      31    1209    1215    1233      31    1260    1245
    1263       1    1257    1245    1260       1    1257    1245    1263       1
    1251    1242    1254       1    1248    1242    1251       1    1248    1242
    1254       1    1239    1242    1248      31    1239    1242    1251      31
    1239    1242    1254      31    1239    1245    1257      31    1239    1245
    1260      31    1239    1245    1263      31    1290    1275    1293       1
    1287    1275    1290       1    1287    1275    1293       1    1281    1272
    1284       1    1278    1272    1281       1    1278    1272    1284       1
    1269    1272    1278      31    1269    1272    1281      31    1269    1272
    1284      31    1269    1275    1287      31    1269    1275    1290      31
    1269    1275    1293      31    1320    1305    1323       1    1317    1305
    1320       1    1317    1305    1323       1    1311    1302    1314       1
    1308    1302    1311       1    1308    1302    1314       1    1299    1302
    1308      31    1299    1302    1311      31    1299    1302    1314      31
    1299    1305    1317      31    1299    1305    1320      31    1299    1305
    1323      31    1350    1335    1353       1    1347    1335    1350       1
    1347    1335    1353       1    1341    1332    1344       1    1338    1332
    1341       1    1338    1332    1344       1    1329    1332    1338      31
    1329    1332    1341      31    1329    1332    1344      31    1329    1335
    1347      31    1329    1335    1350      31    1329    1335    1353      31
    1380    1365    1383       1    1377    1365    1380       1    1377    1365
    1383       1    1371    1362    1374       1    1368    1362    1371       1
    1368    1362    1374       1    1359    1362    1368      31    1359    1362
    1371      31    1359    1362    1374      31    1359    1365    1377      31
    1359    1365    1380      31    1359    1365    1383      31    1410    1395
    1413       1    1407    1395    1410       1    1407    1395    1413       1
    1401    1392    1404       1    1398    1392    1401       1    1398    1392
    1404       1    1389    1392    1398      31    1389    1392    1401      31
    1389    1392    1404      31    1389    1395    1407      31    1389    1395
    1410      31    1389    1395    1413      31    1440    1425    1443       1
    1437    1425    1440       1    1437    1425    1443       1    1431    1422
    1434       1    1428    1422    1431       1    1428    1422    1434       1
    1419    1422    1428      31    1419    1422    1431      31    1419    1422
    1434      31    1419    1425    1437      31    1419    1425    1440      31
    1419    1425    1443      31    1470    1455    1473       1    1467    1455
    1470       1    1467    1455    1473       1    1461    1452    1464       1
    1458    1452    1461       1    1458    1452    1464       1    1449    1452
    1458      31    1449    1452    1461      31    1449    1452    1464      31
    1449    1455    1467      31    1449    1455    1470      31    1449    1455
    1473      31    1500    1485    1503       1    1497    1485    1500       1
    1497    1485    1503       1    1491    1482    1494       1    1488    1482
    1491       1    1488    1482    1494       1    1479    1482    1488      31
    1479    1482    1491      31    1479    1482    1494      31    1479    1485
    1497      31    1479    1485    1500      31    1479    1485    1503      31
    1530    1515    1533       1    1527    1515    1530       1    1527    1515
    1533       1    1521    1512    1524       1    1518    1512    1521       1
    1518    1512    1524       1    1509    1512    1518      31    1509    1512
    1521      31    1509    1512    1524      31    1509    1515    1527      31
    1509    1515    1530      31    1509    1515    1533      31    1560    1545
    1563       1    1557    1545    1560       1    1557    1545    1563       1
    1551    1542    1554       1    1548    1542    1551       1    1548    1542
    1554       1    1539    1542    1548      31    1539    1542    1551      31
    1539    1542    1554      31    1539    1545    1557      31    1539    1545
    1560      31    1539    1545    1563      31    1590    1575    1593       1
    1587    1575    1590       1    1587    1575    1593       1    1581    1572
    1584       1    1578    1572    1581       1    1578    1572    1584       1
    1569    1572    1578      31    1569    1572    1581      31    1569    1572
    1584      31    1569    1575    1587      31    1569    1575    1590      31
    1569    1575    1593      31    1620    1605    1623       1    1617    1605
    1620       1    1617    1605    1623       1    1611    1602    1614       1
    1608    1602    1611       1    1608    1602    1614       1    1599    1602
    1608      31    1599    1602    1611      31    1599    1602    1614      31
    1599    1605    1617      31    1599    1605    1620      31    1599    1605
    1623      31    1650    1635    1653       1    1647    1635    1650       1
    1647    1635    1653       1    1641    1632    1644       1    1638    1632
    1641       1    1638    1632    1644       1    1629    1632    1638      31
    1629    1632    1641      31    1629    1632    1644      31    1629    1635
    1647      31    1629    1635    1650      31    1629    1635    1653      31
    1680    1665    1683       1    1677    1665    1680       1    1677    1665
    1683       1    1671    1662    1674       1    1668    1662    1671       1
    1668    1662    1674       1    1659    1662    1668      31    1659    1662
    1671      31    1659    1662    1674      31    1659    1665    1677      31
    1659    1665    1680      31    1659    1665    1683      31    1710    1695
    1713       1    1707    1695    1710       1    1707    1695    1713       1
    1701    1692    1704       1    1698    1692    1701       1    1698    1692
    1704       1    1689    1692    1698      31    1689    1692    1701      31
    1689    1692    1704      31    1689    1695    1707      31    1689    1695
    1710      31    1689    1695    1713      31    1740    1725    1743       1
    1737    1725    1740       1    1737    1725    1743       1    1731    1722
    1734       1    1728    1722    1731       1    1728    1722    1734       1
    1719    1722    1728      31    1719    1722    1731      31    1719    1722
    1734      31    1719    1725    1737      31    1719    1725    1740      31
    1719    1725    1743      31    1770    1755    1773       1    1767    1755
    1770       1    1767    1755    1773       1    1761    1752    1764       1
    1758    1752    1761       1    1758    1752    1764       1    1749    1752
    1758      31    1749    1752    1761      31    1749    1752    1764      31
    1749    1755    1767      31    1749    1755    1770      31    1749    1755
    1773      31    1800    1785    1803       1    1797    1785    1800       1
    1797    1785    1803       1    1791    1782    1794       1    1788    1782
    1791       1    1788    1782    1794       1    1779    1782    1788      31
    1779    1782    1791      31    1779    1782    1794      31    1779    1785
    1797      31    1779    1785    1800      31    1779    1785    1803      31
    1830    1815    1833       1    1827    1815    1830       1    1827    1815
    1833       1    1821    1812    1824       1    1818    1812    1821       1
    1818    1812    1824       1    1809    1812    1818      31    1809    1812
    1821      31    1809    1812    1824      31    1809    1815    1827      31
    1809    1815    1830      31    1809    1815    1833      31    1860    1845
    1863       1    1857    1845    1860       1    1857    1845    1863       1
    1851    1842    1854       1    1848    1842    1851       1    1848    1842
    1854       1    1839    1842    1848      31    1839    1842    1851      31
    1839    1842    1854      31    1839    1845    1857      31    1839    1845
    1860      31    1839    1845    1863      31    1890    1875    1893       1
    1887    1875    1890       1    1887    1875    1893       1    1881    1872
    1884       1    1878    1872    1881       1    1878    1872    1884       1
    1869    1872    1878      31    1869    1872    1881      31    1869    1872
    1884      31    1869    1875    1887      31    1869    1875    1890      31
    1869    1875    1893      31    1920    1905    1923       1    1917    1905
    1920       1    1917    1905    1923       1    1911    1902    1914       1
    1908    1902    1911       1    1908    1902    1914       1    1899    1902
    1908      31    1899    1902    1911      31    1899    1902    1914      31
    1899    1905    1917      31    1899    1905    1920      31    1899    1905
    1923      31    1950    1935    1953       1    1947    1935    1950       1
    1947    1935    1953       1    1941    1932    1944       1    1938    1932
    1941       1    1938    1932    1944       1    1929    1932    1938      31
    1929    1932    1941      31    1929    1932    1944      31    1929    1935
    1947      31    1929    1935    1950      31    1929    1935    1953      31
    1980    1965    1983       1    1977    1965    1980       1    1977    1965
    1983       1    1971    1962    1974       1    1968    1962    1971       1
    1968    1962    1974       1    1959    1962    1968      31    1959    1962
    1971      31    1959    1962    1974      31    1959    1965    1977      31
    1959    1965    1980      31    1959    1965    1983      31    2010    1995
    2013       1    2007    1995    2010       1    2007    1995    2013       1
    2001    1992    2004       1    1998    1992    2001       1    1998    1992
    2004       1    1989    1992    1998      31    1989    1992    2001      31
    1989    1992    2004      31    1989    1995    2007      31    1989    1995
    2010      31    1989    1995    2013      31    2040    2025    2043       1
    2037    2025    2040       1    2037    2025    2043       1    2031    2022
    2034       1    2028    2022    2031       1    2028    2022    2034       1
    2019    2022    2028      31    2019    2022    2031      31    2019    2022
    2034      31    2019    2025    2037      31    2019    2025    2040      31
    2019    2025    2043      31    2070    2055    2073       1    2067    2055
    2070       1    2067    2055    2073       1    2061    2052    2064       1
    2058    2052    2061       1    2058    2052    2064       1    2049    2052
    2058      31    2049    2052    2061      31    2049    2052    2064      31
    2049    2055    2067      31    2049    2055    2070      31    2049    2055
    2073      31    2100    2085    2103       1    2097    2085    2100       1
    2097    2085    2103       1    2091    2082    2094       1    2088    2082
    2091       1    2088    2082    2094       1    2079    2082    2088      31
    2079    2082    2091      31    2079    2082    2094      31    2079    2085
    2097      31    2079    2085    2100      31    2079    2085    2103      31
    2130    2115    2133       1    2127    2115    2130       1    2127    2115
    2133       1    2121    2112    2124       1    2118    2112    2121       1
    2118    2112    2124       1    2109    2112    2118      31    2109    2112
    2121      31    2109    2112    2124      31    2109    2115    2127      31
    2109    2115    2130      31    2109    2115    2133      31    2160    2145
    2163       1    2157    2145    2160       1    2157    2145    2163       1
    2151    2142    2154       1    2148    2142    2151       1    2148    2142
    2154       1    2139    2142    2148      31    2139    2142    2151      31
    2139    2142    2154      31    2139    2145    2157      31    2139    2145
    2160      31    2139    2145    2163      31    2190    2175    2193       1
    2187    2175    2190       1    2187    2175    2193       1    2181    2172
    2184       1    2178    2172    2181       1    2178    2172    2184       1
    2169    2172    2178      31    2169    2172    2181      31    2169    2172
    2184      31    2169    2175    2187      31    2169    2175    2190      31
    2169    2175    2193      31    2220    2205    2223       1    2217    2205
    2220       1    2217    2205    2223       1    2211    2202    2214       1
    2208    2202    2211       1    2208    2202    2214       1    2199    2202
    2208      31    2199    2202    2211      31    2199    2202    2214      31
    2199    2205    2217      31    2199    2205    2220      31    2199    2205
    2223      31    2250    2235    2253       1    2247    2235    2250       1
    2247    2235    2253       1    2241    2232    2244       1    2238    2232
    2241       1    2238    2232    2244       1    2229    2232    2238      31
    2229    2232    2241      31    2229    2232    2244      31    2229    2235
    2247      31    2229    2235    2250      31    2229    2235    2253      31
    2280    2265    2283       1    2277    2265    2280       1    2277    2265
    2283       1    2271    2262    2274       1    2268    2262    2271       1
    2268    2262    2274       1    2259    2262    2268      31    2259    2262
    2271      31    2259    2262    2274      31    2259    2265    2277      31
    2259    2265    2280      31    2259    2265    2283      31    2310    2295
    2313       1    2307    2295    2310       1    2307    2295    2313       1
    2301    2292    2304       1    2298    2292    2301       1    2298    2292
    2304       1    2289    2292    2298      31    2289    2292    2301      31
    2289    2292    2304      31    2289    2295    2307      31    2289    2295
    2310      31    2289    2295    2313      31    2340    2325    2343       1
    2337    2325    2340       1    2337    2325    2343       1    2331    2322
    2334       1    2328    2322    2331       1    2328    2322    2334       1
    2319    2322    2328      31    2319    2322    2331      31    2319    2322
    2334      31    2319    2325    2337      31    2319    2325    2340      31
    2319    2325    2343      31    2370    2355    2373       1    2367    2355
    2370       1    2367    2355    2373       1    2361    2352    2364       1
    2358    2352    2361       1    2358    2352    2364       1    2349    2352
    2358      31    2349    2352    2361      31    2349    2352    2364      31
    2349    2355    2367      31    2349    2355    2370      31    2349    2355
    2373      31    2400    2385    2403       1    2397    2385    2400       1
    2397    2385    2403       1    2391    2382    2394       1    2388    2382
    2391       1    2388    2382    2394       1    2379    2382    2388      31
    2379    2382    2391      31    2379    2382    2394      31    2379    2385
    2397      31    2379    2385    2400      31    2379    2385    2403      31
    2430    2415    2433       1    2427    2415    2430       1    2427    2415
    2433       1    2421    2412    2424       1    2418    2412    2421       1
    2418    2412    2424       1    2409    2412    2418      31    2409    2412
    2421      31    2409    2412    2424      31    2409    2415    2427      31
    2409    2415    2430      31    2409    2415    2433      31    2460    2445
    2463       1    2457    2445    2460       1    2457    2445    2463       1
    2451    2442    2454       1    2448    2442    2451       1    2448    2442
    2454       1    2439    2442    2448      31    2439    2442    2451      31
    2439    2442    2454      31    2439    2445    2457      31    2439    2445
    2460      31    2439    2445    2463      31    2490    2475    2493       1
    2487    2475    2490       1    2487    2475    2493       1    2481    2472
    2484       1    2478    2472    2481       1    2478    2472    2484       1
    2469    2472    2478      31    2469    2472    2481      31    2469    2472
    2484      31    2469    2475    2487      31    2469    2475    2490      31
    2469    2475    2493      31    2520    2505    2523       1    2517    2505
    2520       1    2517    2505    2523       1    2511    2502    2514       1
    2508    2502    2511       1    2508    2502    2514       1    2499    2502
    2508      31    2499    2502    2511      31    2499    2502    2514      31
    2499    2505    2517      31    2499    2505    2520      31    2499    2505
    2523      31    2550    2535    2553       1    2547    2535    2550       1
    2547    2535    2553       1    2541    2532    2544       1    2538    2532
    2541       1    2538    2532    2544       1    2529    2532    2538      31
    2529    2532    2541      31    2529    2532    2544      31    2529    2535
    2547      31    2529    2535    2550      31    2529    2535    2553      31
    2580    2565    2583       1    2577    2565    2580       1    2577    2565
    2583       1    2571    2562    2574       1    2568    2562    2571       1
    2568    2562    2574       1    2559    2562    2568      31    2559    2562
    2571      31    2559    2562    2574      31    2559    2565    2577      31
    2559    2565    2580      31    2559    2565    2583      31    2610    2595
    2613       1    2607    2595    2610       1    2607    2595    2613       1
    2601    2592    2604       1    2598    2592    2601       1    2598    2592
    2604       1    2589    2592    2598      31    2589    2592    2601      31
    2589    2592    2604      31    2589    2595    2607      31    2589    2595
    2610      31    2589    2595    2613      31    2640    2625    2643       1
    2637    2625    2640       1    2637    2625    2643       1    2631    2622
    2634       1    2628    2622    2631       1    2628    2622    2634       1
    2619    2622    2628      31    2619    2622    2631      31    2619    2622
    2634      31    2619    2625    2637      31    2619    2625    2640      31
    2619    2625    2643      31    2670    2655    2673       1    2667    2655
    2670       1    2667    2655    2673       1    2661    2652    2664       1
    2658    2652    2661       1    2658    2652    2664       1    2649    2652
    2658      31    2649    2652    2661      31    2649    2652    2664      31
    2649    2655    2667      31    2649    2655    2670      31    2649    2655
    2673      31    2700    2685    2703       1    2697    2685    2700       1
    2697    2685    2703       1    2691    2682    2694       1    2688    2682
    2691       1    2688    2682    2694       1    2679    2682    2688      31
    2679    2682    2691      31    2679    2682    2694      31    2679    2685
    2697      31    2679    2685    2700      31    2679    2685    2703      31
    2730    2715    2733       1    2727    2715    2730       1    2727    2715
    2733       1    2721    2712    2724       1    2718    2712    2721       1
    2718    2712    2724       1    2709    2712    2718      31    2709    2712
    2721      31    2709    2712    2724      31    2709    2715    2727      31
    2709    2715    2730      31    2709    2715    2733      31    2760    2745
    2763       1    2757    2745    2760       1    2757    2745    2763       1
    2751    2742    2754       1    2748    2742    2751       1    2748    2742
    2754       1    2739    2742    2748      31    2739    2742    2751      31
    2739    2742    2754      31    2739    2745    2757      31    2739    2745
    2760      31    2739    2745    2763      31    2790    2775    2793       1
    2787    2775    2790       1    2787    2775    2793       1    2781    2772
    2784       1    2778    2772    2781       1    2778    2772    2784       1
    2769    2772    2778      31    2769    2772    2781      31    2769    2772
    2784      31    2769    2775    2787      31    2769    2775    2790      31
    2769    2775    2793      31    2820    2805    2823       1    2817    2805
    2820       1    2817    2805    2823       1    2811    2802    2814       1
    2808    2802    2811       1    2808    2802    2814       1    2799    2802
    2808      31    2799    2802    2811      31    2799    2802    2814      31
    2799    2805    2817      31    2799    2805    2820      31    2799    2805
    2823      31    2850    2835    2853       1    2847    2835    2850       1
    2847    2835    2853       1    2841    2832    2844       1    2838    2832
    2841       1    2838    2832    2844       1    2829    2832    2838      31
    2829    2832    2841      31    2829    2832    2844      31    2829    2835
    2847      31    2829    2835    2850      31    2829    2835    2853      31
    2880    2865    2883       1    2877    2865    2880       1    2877    2865
    2883       1    2871    2862    2874       1    2868    2862    2871       1
    2868    2862    2874       1    2859    2862    2868      31    2859    2862
    2871      31    2859    2862    2874      31    2859    2865    2877      31
    2859    2865    2880      31    2859    2865    2883      31    2910    2895
    2913       1    2907    2895    2910       1    2907    2895    2913       1
    2901    2892    2904       1    2898    2892    2901       1    2898    2892
    2904       1    2889    2892    2898      31    2889    2892    2901      31
    2889    2892    2904      31    2889    2895    2907      31    2889    2895
    2910      31    2889    2895    2913      31    2940    2925    2943       1
    2937    2925    2940       1    2937    2925    2943       1    2931    2922
    2934       1    2928    2922    2931       1    2928    2922    2934       1
    2919    2922    2928      31    2919    2922    2931      31    2919    2922
    2934      31    2919    2925    2937      31    2919    2925    2940      31
    2919    2925    2943      31    2970    2955    2973       1    2967    2955
    2970       1    2967    2955    2973       1    2961    2952    2964       1
    2958    2952    2961       1    2958    2952    2964       1    2949    2952
    2958      31    2949    2952    2961      31    2949    2952    2964      31
    2949    2955    2967      31    2949    2955    2970      31    2949    2955
    2973      31    3000    2985    3003       1    2997    2985    3000       1
    2997    2985    3003       1    2991    2982    2994       1    2988    2982
    2991       1    2988    2982    2994       1    2979    2982    2988      31
    2979    2982    2991      31    2979    2982    2994      31    2979    2985
    2997      31    2979    2985    3000      31    2979    2985    3003      31
    3030    3015    3033       1    3027    3015    3030       1    3027    3015
    3033       1    3021    3012    3024       1    3018    3012    3021       1
    3018    3012    3024       1    3009    3012    3018      31    3009    3012
    3021      31    3009    3012    3024      31    3009    3015    3027      31
    3009    3015    3030      31    3009    3015    3033      31    3060    3045
    3063       1    3057    3045    3060       1    3057    3045    3063       1
    3051    3042    3054       1    3048    3042    3051       1    3048    3042
    3054       1    3039    3042    3048      31    3039    3042    3051      31
    3039    3042    3054      31    3039    3045    3057      31    3039    3045
    3060      31    3039    3045    3063      31    3090    3075    3093       1
    3087    3075    3090       1    3087    3075    3093       1    3081    3072
    3084       1    3078    3072    3081       1    3078    3072    3084       1
    3069    3072    3078      31    3069    3072    3081      31    3069    3072
    3084      31    3069    3075    3087      31    3069    3075    3090      31
    3069    3075    3093      31    3120    3105    3123       1    3117    3105
    3120       1    3117    3105    3123       1    3111    3102    3114       1
    3108    3102    3111       1    3108    3102    3114       1    3099    3102
    3108      31    3099    3102    3111      31    3099    3102    3114      31
    3099    3105    3117      31    3099    3105    3120      31    3099    3105
    3123      31    3150    3135    3153       1    3147    3135    3150       1
    3147    3135    3153       1    3141    3132    3144       1    3138    3132
    3141       1    3138    3132    3144       1    3129    3132    3138      31
    3129    3132    3141      31    3129    3132    3144      31    3129    3135
    3147      31    3129    3135    3150      31    3129    3135    3153      31
    3180    3165    3183       1    3177    3165    3180       1    3177    3165
    3183       1    3171    3162    3174       1    3168    3162    3171       1
    3168    3162    3174       1    3159    3162    3168      31    3159    3162
    3171      31    3159    3162    3174      31    3159    3165    3177      31
    3159    3165    3180      31    3159    3165    3183      31    3210    3195
    3213       1    3207    3195    3210       1    3207    3195    3213       1
    3201    3192    3204       1    3198    3192    3201       1    3198    3192
    3204       1    3189    3192    3198      31    3189    3192    3201      31
    3189    3192    3204      31    3189    3195    3207      31    3189    3195
    3210      31    3189    3195    3213      31    3240    3225    3243       1
    3237    3225    3240       1    3237    3225    3243       1    3231    3222
    3234       1    3228    3222    3231       1    3228    3222    3234       1
    3219    3222    3228      31    3219    3222    3231      31    3219    3222
    3234      31    3219    3225    3237      31    3219    3225    3240      31
    3219    3225    3243      31    3270    3255    3273       1    3267    3255
    3270       1    3267    3255    3273       1    3261    3252    3264       1
    3258    3252    3261       1    3258    3252    3264       1    3249    3252
    3258      31    3249    3252    3261      31    3249    3252    3264      31
    3249    3255    3267      31    3249    3255    3270      31    3249    3255
    3273      31    3300    3285    3303       1    3297    3285    3300       1
    3297    3285    3303       1    3291    3282    3294       1    3288    3282
    3291       1    3288    3282    3294       1    3279    3282    3288      31
    3279    3282    3291      31    3279    3282    3294      31    3279    3285
    3297      31    3279    3285    3300      31    3279    3285    3303      31
    3330    3315    3333       1    3327    3315    3330       1    3327    3315
    3333       1    3321    3312    3324       1    3318    3312    3321       1
    3318    3312    3324       1    3309    3312    3318      31    3309    3312
    3321      31    3309    3312    3324      31    3309    3315    3327      31
    3309    3315    3330      31    3309    3315    3333      31    3360    3345
    3363       1    3357    3345    3360       1    3357    3345    3363       1
    3351    3342    3354       1    3348    3342    3351       1    3348    3342
    3354       1    3339    3342    3348      31    3339    3342    3351      31
    3339    3342    3354      31    3339    3345    3357      31    3339    3345
    3360      31    3339    3345    3363      31    3390    3375    3393       1
    3387    3375    3390       1    3387    3375    3393       1    3381    3372
    3384       1    3378    3372    3381       1    3378    3372    3384       1
    3369    3372    3378      31    3369    3372    3381      31    3369    3372
    3384      31    3369    3375    3387      31    3369    3375    3390      31
    3369    3375    3393      31    3420    3405    3423       1    3417    3405
    3420       1    3417    3405    3423       1    3411    3402    3414       1
    3408    3402    3411       1    3408    3402    3414       1    3399    3402
    3408      31    3399    3402    3411      31    3399    3402    3414      31
    3399    3405    3417      31    3399    3405    3420      31    3399    3405
    3423      31    3450    3435    3453       1    3447    3435    3450       1
    3447    3435    3453       1    3441    3432    3444       1    3438    3432
    3441       1    3438    3432    3444       1    3429    3432    3438      31
    3429    3432    3441      31    3429    3432    3444      31    3429    3435
    3447      31    3429    3435    3450      31    3429    3435    3453      31
    3480    3465    3483       1    3477    3465    3480       1    3477    3465
    3483       1    3471    3462    3474       1    3468    3462    3471       1
    3468    3462    3474       1    3459    3462    3468      31    3459    3462
    3471      31    3459    3462    3474      31    3459    3465    3477      31
    3459    3465    3480      31    3459    3465    3483      31    3510    3495
    3513       1    3507    3495    3510       1    3507    3495    3513       1
    3501    3492    3504       1    3498    3492    3501       1    3498    3492
    3504       1    3489    3492    3498      31    3489    3492    3501      31
    3489    3492    3504      31    3489    3495    3507      31    3489    3495
    3510      31    3489    3495    3513      31    3540    3525    3543       1
    3537    3525    3540       1    3537    3525    3543       1    3531    3522
    3534       1    3528    3522    3531       1    3528    3522    3534       1
    3519    3522    3528      31    3519    3522    3531      31    3519    3522
    3534      31    3519    3525    3537      31    3519    3525    3540      31
    3519    3525    3543      31    3570    3555    3573       1    3567    3555
    3570       1    3567    3555    3573       1    3561    3552    3564       1
    3558    3552    3561       1    3558    3552    3564       1    3549    3552
    3558      31    3549    3552    3561      31    3549    3552    3564      31
    3549    3555    3567      31    3549    3555    3570      31    3549    3555
    3573      31    3600    3585    3603       1    3597    3585    3600       1
    3597    3585    3603       1    3591    3582    3594       1    3588    3582
    3591       1    3588    3582    3594       1    3579    3582    3588      31
    3579    3582    3591      31    3579    3582    3594      31    3579    3585
    3597      31    3579    3585    3600      31    3579    3585    3603      31
    3630    3615    3633       1    3627    3615    3630       1    3627    3615
    3633       1    3621    3612    3624       1    3618    3612    3621       1
    3618    3612    3624       1    3609    3612    3618      31    3609    3612
    3621      31    3609    3612    3624      31    3609    3615    3627      31
    3609    3615    3630      31    3609    3615    3633      31    3660    3645
    3663       1    3657    3645    3660       1    3657    3645    3663       1
    3651    3642    3654       1    3648    3642    3651       1    3648    3642
    3654       1    3639    3642    3648      31    3639    3642    3651      31
    3639    3642    3654      31    3639    3645    3657      31    3639    3645
    3660      31    3639    3645    3663      31    3690    3675    3693       1
    3687    3675    3690       1    3687    3675    3693       1    3681    3672
    3684       1    3678    3672    3681       1    3678    3672    3684       1
    3669    3672    3678      31    3669    3672    3681      31    3669    3672
    3684      31    3669    3675    3687      31    3669    3675    3690      31
    3669    3675    3693      31    3720    3705    3723       1    3717    3705
    3720       1    3717    3705    3723       1    3711    3702    3714       1
    3708    3702    3711       1    3708    3702    3714       1    3699    3702
    3708      31    3699    3702    3711      31    3699    3702    3714      31
    3699    3705    3717      31    3699    3705    3720      31    3699    3705
    3723      31    3750    3735    3753       1    3747    3735    3750       1
    3747    3735    3753       1    3741    3732    3744       1    3738    3732
    3741       1    3738    3732    3744       1    3729    3732    3738      31
    3729    3732    3741      31    3729    3732    3744      31    3729    3735
    3747      31    3729    3735    3750      31    3729    3735    3753      31
    3780    3765    3783       1    3777    3765    3780       1    3777    3765
    3783       1    3771    3762    3774       1    3768    3762    3771       1
    3768    3762    3774       1    3759    3762    3768      31    3759    3762
    3771      31    3759    3762    3774      31    3759    3765    3777      31
    3759    3765    3780      31    3759    3765    3783      31    3810    3795
    3813       1    3807    3795    3810       1    3807    3795    3813       1
    3801    3792    3804       1    3798    3792    3801       1    3798    3792
    3804       1    3789    3792    3798      31    3789    3792    3801      31
    3789    3792    3804      31    3789    3795    3807      31    3789    3795
    3810      31    3789    3795    3813      31    3840    3825    3843       1
    3837    3825    3840       1    3837    3825    3843       1    3831    3822
    3834       1    3828    3822    3831       1    3828    3822    3834       1
    3819    3822    3828      31    3819    3822    3831      31    3819    3822
    3834      31    3819    3825    3837      31    3819    3825    3840      31
    3819    3825    3843      31    3870    3855    3873       1    3867    3855
    3870       1    3867    3855    3873       1    3861    3852    3864       1
    3858    3852    3861       1    3858    3852    3864       1    3849    3852
    3858      31    3849    3852    3861      31    3849    3852    3864      31
    3849    3855    3867      31    3849    3855    3870      31    3849    3855
    3873      31    3900    3885    3903       1    3897    3885    3900       1
    3897    3885    3903       1    3891    3882    3894       1    3888    3882
    3891       1    3888    3882    3894       1    3879    3882    3888      31
    3879    3882    3891      31    3879    3882    3894      31    3879    3885
    3897      31    3879    3885    3900      31    3879    3885    3903      31
    3930    3915    3933       1    3927    3915    3930       1    3927    3915
    3933       1    3921    3912    3924       1    3918    3912    3921       1
    3918    3912    3924       1    3909    3912    3918      31    3909    3912
    3921      31    3909    3912    3924      31    3909    3915    3927      31
    3909    3915    3930      31    3909    3915    3933      31    3960    3945
    3963       1    3957    3945    3960       1    3957    3945    3963       1
    3951    3942    3954       1    3948    3942    3951       1    3948    3942
    3954       1    3939    3942    3948      31    3939    3942    3951      31
    3939    3942    3954      31    3939    3945    3957      31    3939    3945
    3960      31    3939    3945    3963      31    3990    3975    3993       1
    3987    3975    3990       1    3987    3975    3993       1    3981    3972
    3984       1    3978    3972    3981       1    3978    3972    3984       1
    3969    3972    3978      31    3969    3972    3981      31    3969    3972
    3984      31    3969    3975    3987      31    3969    3975    3990      31
    3969    3975    3993      31    4020    4005    4023       1    4017    4005
    4020       1    4017    4005    4023       1    4011    4002    4014       1
    4008    4002    4011       1    4008    4002    4014       1    3999    4002
    4008      31    3999    4002    4011      31    3999    4002    4014      31
    3999    4005    4017      31    3999    4005    4020      31    3999    4005
    4023      31    4050    4035    4053       1    4047    4035    4050       1
    4047    4035    4053       1    4041    4032    4044       1    4038    4032
    4041       1    4038    4032    4044       1    4029    4032    4038      31
    4029    4032    4041      31    4029    4032    4044      31    4029    4035
    4047      31    4029    4035    4050      31    4029    4035    4053      31
    4080    4065    4083       1    4077    4065    4080       1    4077    4065
    4083       1    4071    4062    4074       1    4068    4062    4071       1
    4068    4062    4074       1    4059    4062    4068      31    4059    4062
    4071      31    4059    4062    4074      31    4059    4065    4077      31
    4059    4065    4080      31    4059    4065    4083      31    4110    4095
    4113       1    4107    4095    4110       1    4107    4095    4113       1
    4101    4092    4104       1    4098    4092    4101       1    4098    4092
    4104       1    4089    4092    4098      31    4089    4092    4101      31
    4089    4092    4104      31    4089    4095    4107      31    4089    4095
    4110      31    4089    4095    4113      31    4140    4125    4143       1
    4137    4125    4140       1    4137    4125    4143       1    4131    4122
    4134       1    4128    4122    4131       1    4128    4122    4134       1
    4119    4122    4128      31    4119    4122    4131      31    4119    4122
    4134      31    4119    4125    4137      31    4119    4125    4140      31
    4119    4125    4143      31    4170    4155    4173       1    4167    4155
    4170       1    4167    4155    4173       1    4161    4152    4164       1
    4158    4152    4161       1    4158    4152    4164       1    4149    4152
    4158      31    4149    4152    4161      31    4149    4152    4164      31
    4149    4155    4167      31    4149    4155    4170      31    4149    4155
    4173      31    4200    4185    4203       1    4197    4185    4200       1
    4197    4185    4203       1    4191    4182    4194       1    4188    4182
    4191       1    4188    4182    4194       1    4179    4182    4188      31
    4179    4182    4191      31    4179    4182    4194      31    4179    4185
    4197      31    4179    4185    4200      31    4179    4185    4203      31
    4230    4215    4233       1    4227    4215    4230       1    4227    4215
    4233       1    4221    4212    4224       1    4218    4212    4221       1
    4218    4212    4224       1    4209    4212    4218      31    4209    4212
    4221      31    4209    4212    4224      31    4209    4215    4227      31
    4209    4215    4230      31    4209    4215    4233      31    4260    4245
    4263       1    4257    4245    4260       1    4257    4245    4263       1
    4251    4242    4254       1    4248    4242    4251       1    4248    4242
    4254       1    4239    4242    4248      31    4239    4242    4251      31
    4239    4242    4254      31    4239    4245    4257      31    4239    4245
    4260      31    4239    4245    4263      31    4290    4275    4293       1
    4287    4275    4290       1    4287    4275    4293       1    4281    4272
    4284       1    4278    4272    4281       1    4278    4272    4284       1
    4269    4272    4278      31    4269    4272    4281      31    4269    4272
    4284      31    4269    4275    4287      31    4269    4275    4290      31
    4269    4275    4293      31    4320    4305    4323       1    4317    4305
    4320       1    4317    4305    4323       1    4311    4302    4314       1
    4308    4302    4311       1    4308    4302    4314       1    4299    4302
    4308      31    4299    4302    4311      31    4299    4302    4314      31
    4299    4305    4317      31    4299    4305    4320      31    4299    4305
    4323      31    4350    4335    4353       1    4347    4335    4350       1
    4347    4335    4353       1    4341    4332    4344       1    4338    4332
    4341       1    4338    4332    4344       1    4329    4332    4338      31
    4329    4332    4341      31    4329    4332    4344      31    4329    4335
    4347      31    4329    4335    4350      31    4329    4335    4353      31
    4380    4365    4383       1    4377    4365    4380       1    4377    4365
    4383       1    4371    4362    4374       1    4368    4362    4371       1
    4368    4362    4374       1    4359    4362    4368      31    4359    4362
    4371      31    4359    4362    4374      31    4359    4365    4377      31
    4359    4365    4380      31    4359    4365    4383      31    4410    4395
    4413       1    4407    4395    4410       1    4407    4395    4413       1
    4401    4392    4404       1    4398    4392    4401       1    4398    4392
    4404       1    4389    4392    4398      31    4389    4392    4401      31
    4389    4392    4404      31    4389    4395    4407      31    4389    4395
    4410      31    4389    4395    4413      31    4440    4425    4443       1
    4437    4425    4440       1    4437    4425    4443       1    4431    4422
    4434       1    4428    4422    4431       1    4428    4422    4434       1
    4419    4422    4428      31    4419    4422    4431      31    4419    4422
    4434      31    4419    4425    4437      31    4419    4425    4440      31
    4419    4425    4443      31    4470    4455    4473       1    4467    4455
    4470       1    4467    4455    4473       1    4461    4452    4464       1
    4458    4452    4461       1    4458    4452    4464       1    4449    4452
    4458      31    4449    4452    4461      31    4449    4452    4464      31
    4449    4455    4467      31    4449    4455    4470      31    4449    4455
    4473      31    4500    4485    4503       1    4497    4485    4500       1
    4497    4485    4503       1    4491    4482    4494       1    4488    4482
    4491       1    4488    4482    4494       1    4479    4482    4488      31
    4479    4482    4491      31    4479    4482    4494      31    4479    4485
    4497      31    4479    4485    4500      31    4479    4485    4503      31
    4530    4515    4533       1    4527    4515    4530       1    4527    4515
    4533       1    4521    4512    4524       1    4518    4512    4521       1
    4518    4512    4524       1    4509    4512    4518      31    4509    4512
    4521      31    4509    4512    4524      31    4509    4515    4527      31
    4509    4515    4530      31    4509    4515    4533      31    4560    4545
    4563       1    4557    4545    4560       1    4557    4545    4563       1
    4551    4542    4554       1    4548    4542    4551       1    4548    4542
    4554       1    4539    4542    4548      31    4539    4542    4551      31
    4539    4542    4554      31    4539    4545    4557      31    4539    4545
    4560      31    4539    4545    4563      31    4590    4575    4593       1
    4587    4575    4590       1    4587    4575    4593       1    4581    4572
    4584       1    4578    4572    4581       1    4578    4572    4584       1
    4569    4572    4578      31    4569    4572    4581      31    4569    4572
    4584      31    4569    4575    4587      31    4569    4575    4590      31
    4569    4575    4593      31    4620    4605    4623       1    4617    4605
    4620       1    4617    4605    4623       1    4611    4602    4614       1
    4608    4602    4611       1    4608    4602    4614       1    4599    4602
    4608      31    4599    4602    4611      31    4599    4602    4614      31
    4599    4605    4617      31    4599    4605    4620      31    4599    4605
    4623      31    4650    4635    4653       1    4647    4635    4650       1
    4647    4635    4653       1    4641    4632    4644       1    4638    4632
    4641       1    4638    4632    4644       1    4629    4632    4638      31
    4629    4632    4641      31    4629    4632    4644      31    4629    4635
    4647      31    4629    4635    4650      31    4629    4635    4653      31
    4680    4665    4683       1    4677    4665    4680       1    4677    4665
    4683       1    4671    4662    4674       1    4668    4662    4671       1
    4668    4662    4674       1    4659    4662    4668      31    4659    4662
    4671      31    4659    4662    4674      31    4659    4665    4677      31
    4659    4665    4680      31    4659    4665    4683      31    4710    4695
    4713       1    4707    4695    4710       1    4707    4695    4713       1
    4701    4692    4704       1    4698    4692    4701       1    4698    4692
    4704       1    4689    4692    4698      31    4689    4692    4701      31
    4689    4692    4704      31    4689    4695    4707      31    4689    4695
    4710      31    4689    4695    4713      31    4740    4725    4743       1
    4737    4725    4740       1    4737    4725    4743       1    4731    4722
    4734       1    4728    4722    4731       1    4728    4722    4734       1
    4719    4722    4728      31    4719    4722    4731      31    4719    4722
    4734      31    4719    4725    4737      31    4719    4725    4740      31
    4719    4725    4743      31    4770    4755    4773       1    4767    4755
    4770       1    4767    4755    4773       1    4761    4752    4764       1
    4758    4752    4761       1    4758    4752    4764       1    4749    4752
    4758      31    4749    4752    4761      31    4749    4752    4764      31
    4749    4755    4767      31    4749    4755    4770      31    4749    4755
    4773      31    4800    4785    4803       1    4797    4785    4800       1
    4797    4785    4803       1    4791    4782    4794       1    4788    4782
    4791       1    4788    4782    4794       1    4779    4782    4788      31
    4779    4782    4791      31    4779    4782    4794      31    4779    4785
    4797      31    4779    4785    4800      31    4779    4785    4803      31
    4830    4815    4833       1    4827    4815    4830       1    4827    4815
    4833       1    4821    4812    4824       1    4818    4812    4821       1
    4818    4812    4824       1    4809    4812    4818      31    4809    4812
    4821      31    4809    4812    4824      31    4809    4815    4827      31
    4809    4815    4830      31    4809    4815    4833      31    4860    4845
    4863       1    4857    4845    4860       1    4857    4845    4863       1
    4851    4842    4854       1    4848    4842    4851       1    4848    4842
    4854       1    4839    4842    4848      31    4839    4842    4851      31
    4839    4842    4854      31    4839    4845    4857      31    4839    4845
    4860      31    4839    4845    4863      31    4890    4875    4893       1
    4887    4875    4890       1    4887    4875    4893       1    4881    4872
    4884       1    4878    4872    4881       1    4878    4872    4884       1
    4869    4872    4878      31    4869    4872    4881      31    4869    4872
    4884      31    4869    4875    4887      31    4869    4875    4890      31
    4869    4875    4893      31    4920    4905    4923       1    4917    4905
    4920       1    4917    4905    4923       1    4911    4902    4914       1
    4908    4902    4911       1    4908    4902    4914       1    4899    4902
    4908      31    4899    4902    4911      31    4899    4902    4914      31
    4899    4905    4917      31    4899    4905    4920      31    4899    4905
    4923      31    4950    4935    4953       1    4947    4935    4950       1
    4947    4935    4953       1    4941    4932    4944       1    4938    4932
    4941       1    4938    4932    4944       1    4929    4932    4938      31
    4929    4932    4941      31    4929    4932    4944      31    4929    4935
    4947      31    4929    4935    4950      31    4929    4935    4953      31
    4980    4965    4983       1    4977    4965    4980       1    4977    4965
    4983       1    4971    4962    4974       1    4968    4962    4971       1
    4968    4962    4974       1    4959    4962    4968      31    4959    4962
    4971      31    4959    4962    4974      31    4959    4965    4977      31
    4959    4965    4980      31    4959    4965    4983      31    5010    4995
    5013       1    5007    4995    5010       1    5007    4995    5013       1
    5001    4992    5004       1    4998    4992    5001       1    4998    4992
    5004       1    4989    4992    4998      31    4989    4992    5001      31
    4989    4992    5004      31    4989    4995    5007      31    4989    4995
    5010      31    4989    4995    5013      31    5040    5025    5043       1
    5037    5025    5040       1    5037    5025    5043       1    5031    5022
    5034       1    5028    5022    5031       1    5028    5022    5034       1
    5019    5022    5028      31    5019    5022    5031      31    5019    5022
    5034      31    5019    5025    5037      31    5019    5025    5040      31
    5019    5025    5043      31    5070    5055    5073       1    5067    5055
    5070       1    5067    5055    5073       1    5061    5052    5064       1
    5058    5052    5061       1    5058    5052    5064       1    5049    5052
    5058      31    5049    5052    5061      31    5049    5052    5064      31
    5049    5055    5067      31    5049    5055    5070      31    5049    5055
    5073      31    5100    5085    5103       1    5097    5085    5100       1
    5097    5085    5103       1    5091    5082    5094       1    5088    5082
    5091       1    5088    5082    5094       1    5079    5082    5088      31
    5079    5082    5091      31    5079    5082    5094      31    5079    5085
    5097      31    5079    5085    5100      31    5079    5085    5103      31
    5130    5115    5133       1    5127    5115    5130       1    5127    5115
    5133       1    5121    5112    5124       1    5118    5112    5121       1
    5118    5112    5124       1    5109    5112    5118      31    5109    5112
    5121      31    5109    5112    5124      31    5109    5115    5127      31
    5109    5115    5130      31    5109    5115    5133      31    5160    5145
    5163       1    5157    5145    5160       1    5157    5145    5163       1
    5151    5142    5154       1    5148    5142    5151       1    5148    5142
    5154       1    5139    5142    5148      31    5139    5142    5151      31
    5139    5142    5154      31    5139    5145    5157      31    5139    5145
    5160      31    5139    5145    5163      31    5190    5175    5193       1
    5187    5175    5190       1    5187    5175    5193       1    5181    5172
    5184       1    5178    5172    5181       1    5178    5172    5184       1
    5169    5172    5178      31    5169    5172    5181      31    5169    5172
    5184      31    5169    5175    5187      31    5169    5175    5190      31
    5169    5175    5193      31    5220    5205    5223       1    5217    5205
    5220       1    5217    5205    5223       1    5211    5202    5214       1
    5208    5202    5211       1    5208    5202    5214       1    5199    5202
    5208      31    5199    5202    5211      31    5199    5202    5214      31
    5199    5205    5217      31    5199    5205    5220      31    5199    5205
    5223      31    5250    5235    5253       1    5247    5235    5250       1
    5247    5235    5253       1    5241    5232    5244       1    5238    5232
    5241       1    5238    5232    5244       1    5229    5232    5238      31
    5229    5232    5241      31    5229    5232    5244      31    5229    5235
    5247      31    5229    5235    5250      31    5229    5235    5253      31
    5280    5265    5283       1    5277    5265    5280       1    5277    5265
    5283       1    5271    5262    5274       1    5268    5262    5271       1
    5268    5262    5274       1    5259    5262    5268      31    5259    5262
    5271      31    5259    5262    5274      31    5259    5265    5277      31
    5259    5265    5280      31    5259    5265    5283      31    5310    5295
    5313       1    5307    5295    5310       1    5307    5295    5313       1
    5301    5292    5304       1    5298    5292    5301       1    5298    5292
    5304       1    5289    5292    5298      31    5289    5292    5301      31
    5289    5292    5304      31    5289    5295    5307      31    5289    5295
    5310      31    5289    5295    5313      31    5340    5325    5343       1
    5337    5325    5340       1    5337    5325    5343       1    5331    5322
    5334       1    5328    5322    5331       1    5328    5322    5334       1
    5319    5322    5328      31    5319    5322    5331      31    5319    5322
    5334      31    5319    5325    5337      31    5319    5325    5340      31
    5319    5325    5343      31    5370    5355    5373       1    5367    5355
    5370       1    5367    5355    5373       1    5361    5352    5364       1
    5358    5352    5361       1    5358    5352    5364       1    5349    5352
    5358      31    5349    5352    5361      31    5349    5352    5364      31
    5349    5355    5367      31    5349    5355    5370      31    5349    5355
    5373      31    5400    5385    5403       1    5397    5385    5400       1
    5397    5385    5403       1    5391    5382    5394       1    5388    5382
    5391       1    5388    5382    5394       1    5379    5382    5388      31
    5379    5382    5391      31    5379    5382    5394      31    5379    5385
    5397      31    5379    5385    5400      31    5379    5385    5403      31
    5430    5415    5433       1    5427    5415    5430       1    5427    5415
    5433       1    5421    5412    5424       1    5418    5412    5421       1
    5418    5412    5424       1    5409    5412    5418      31    5409    5412
    5421      31    5409    5412    5424      31    5409    5415    5427      31
    5409    5415    5430      31    5409    5415    5433      31    5460    5445
    5463       1    5457    5445    5460       1    5457    5445    5463       1
    5451    5442    5454       1    5448    5442    5451       1    5448    5442
    5454       1    5439    5442    5448      31    5439    5442    5451      31
    5439    5442    5454      31    5439    5445    5457      31    5439    5445
    5460      31    5439    5445    5463      31    5490    5475    5493       1
    5487    5475    5490       1    5487    5475    5493       1    5481    5472
    5484       1    5478    5472    5481       1    5478    5472    5484       1
    5469    5472    5478      31    5469    5472    5481      31    5469    5472
    5484      31    5469    5475    5487      31    5469    5475    5490      31
    5469    5475    5493      31    5520    5505    5523       1    5517    5505
    5520       1    5517    5505    5523       1    5511    5502    5514       1
    5508    5502    5511       1    5508    5502    5514       1    5499    5502
    5508      31    5499    5502    5511      31    5499    5502    5514      31
    5499    5505    5517      31    5499    5505    5520      31    5499    5505
    5523      31    5550    5535    5553       1    5547    5535    5550       1
    5547    5535    5553       1    5541    5532    5544       1    5538    5532
    5541       1    5538    5532    5544       1    5529    5532    5538      31
    5529    5532    5541      31    5529    5532    5544      31    5529    5535
    5547      31    5529    5535    5550      31    5529    5535    5553      31
    5580    5565    5583       1    5577    5565    5580       1    5577    5565
    5583       1    5571    5562    5574       1    5568    5562    5571       1
    5568    5562    5574       1    5559    5562    5568      31    5559    5562
    5571      31    5559    5562    5574      31    5559    5565    5577      31
    5559    5565    5580      31    5559    5565    5583      31    5610    5595
    5613       1    5607    5595    5610       1    5607    5595    5613       1
    5601    5592    5604       1    5598    5592    5601       1    5598    5592
    5604       1    5589    5592    5598      31    5589    5592    5601      31
    5589    5592    5604      31    5589    5595    5607      31    5589    5595
    5610      31    5589    5595    5613      31    5640    5625    5643       1
    5637    5625    5640       1    5637    5625    5643       1    5631    5622
    5634       1    5628    5622    5631       1    5628    5622    5634       1
    5619    5622    5628      31    5619    5622    5631      31    5619    5622
    5634      31    5619    5625    5637      31    5619    5625    5640      31
    5619    5625    5643      31    5670    5655    5673       1    5667    5655
    5670       1    5667    5655    5673       1    5661    5652    5664       1
    5658    5652    5661       1    5658    5652    5664       1    5649    5652
    5658      31    5649    5652    5661      31    5649    5652    5664      31
    5649    5655    5667      31    5649    5655    5670      31    5649    5655
    5673      31    5700    5685    5703       1    5697    5685    5700       1
    5697    5685    5703       1    5691    5682    5694       1    5688    5682
    5691       1    5688    5682    5694       1    5679    5682    5688      31
    5679    5682    5691      31    5679    5682    5694      31    5679    5685
    5697      31    5679    5685    5700      31    5679    5685    5703      31
    5730    5715    5733       1    5727    5715    5730       1    5727    5715
    5733       1    5721    5712    5724       1    5718    5712    5721       1
    5718    5712    5724       1    5709    5712    5718      31    5709    5712
    5721      31    5709    5712    5724      31    5709    5715    5727      31
    5709    5715    5730      31    5709    5715    5733      31    5760    5745
    5763       1    5757    5745    5760       1    5757    5745    5763       1
    5751    5742    5754       1    5748    5742    5751       1    5748    5742
    5754       1    5739    5742    5748      31    5739    5742    5751      31
    5739    5742    5754      31    5739    5745    5757      31    5739    5745
    5760      31    5739    5745    5763      31    5790    5775    5793       1
    5787    5775    5790       1    5787    5775    5793       1    5781    5772
    5784       1    5778    5772    5781       1    5778    5772    5784       1
    5769    5772    5778      31    5769    5772    5781      31    5769    5772
    5784      31    5769    5775    5787      31    5769    5775    5790      31
    5769    5775    5793      31    5820    5805    5823       1    5817    5805
    5820       1    5817    5805    5823       1    5811    5802    5814       1
    5808    5802    5811       1    5808    5802    5814       1    5799    5802
    5808      31    5799    5802    5811      31    5799    5802    5814      31
    5799    5805    5817      31    5799    5805    5820      31    5799    5805
    5823      31    5850    5835    5853       1    5847    5835    5850       1
    5847    5835    5853       1    5841    5832    5844       1    5838    5832
    5841       1    5838    5832    5844       1    5829    5832    5838      31
    5829    5832    5841      31    5829    5832    5844      31    5829    5835
    5847      31    5829    5835    5850      31    5829    5835    5853      31
    5880    5865    5883       1    5877    5865    5880       1    5877    5865
    5883       1    5871    5862    5874       1    5868    5862    5871       1
    5868    5862    5874       1    5859    5862    5868      31    5859    5862
    5871      31    5859    5862    5874      31    5859    5865    5877      31
    5859    5865    5880      31    5859    5865    5883      31    5910    5895
    5913       1    5907    5895    5910       1    5907    5895    5913       1
    5901    5892    5904       1    5898    5892    5901       1    5898    5892
    5904       1    5889    5892    5898      31    5889    5892    5901      31
    5889    5892    5904      31    5889    5895    5907      31    5889    5895
    5910      31    5889    5895    5913      31    5940    5925    5943       1
    5937    5925    5940       1    5937    5925    5943       1    5931    5922
    5934       1    5928    5922    5931       1    5928    5922    5934       1
    5919    5922    5928      31    5919    5922    5931      31    5919    5922
    5934      31    5919    5925    5937      31    5919    5925    5940      31
    5919    5925    5943      31    5970    5955    5973       1    5967    5955
    5970       1    5967    5955    5973       1    5961    5952    5964       1
    5958    5952    5961       1    5958    5952    5964       1    5949    5952
    5958      31    5949    5952    5961      31    5949    5952    5964      31
    5949    5955    5967      31    5949    5955    5970      31    5949    5955
    5973      31    6000    5985    6003       1    5997    5985    6000       1
    5997    5985    6003       1    5991    5982    5994       1    5988    5982
    5991       1    5988    5982    5994       1    5979    5982    5988      31
    5979    5982    5991      31    5979    5982    5994      31    5979    5985
    5997      31    5979    5985    6000      31    5979    5985    6003      31
    6030    6015    6033       1    6027    6015    6030       1    6027    6015
    6033       1    6021    6012    6024       1    6018    6012    6021       1
    6018    6012    6024       1    6009    6012    6018      31    6009    6012
    6021      31    6009    6012    6024      31    6009    6015    6027      31
    6009    6015    6030      31    6009    6015    6033      31    6060    6045
    6063       1    6057    6045    6060       1    6057    6045    6063       1
    6051    6042    6054       1    6048    6042    6051       1    6048    6042
    6054       1    6039    6042    6048      31    6039    6042    6051      31
    6039    6042    6054      31    6039    6045    6057      31    6039    6045
    6060      31    6039    6045    6063      31    6090    6075    6093       1
    6087    6075    6090       1    6087    6075    6093       1    6081    6072
    6084       1    6078    6072    6081       1    6078    6072    6084       1
    6069    6072    6078      31    6069    6072    6081      31    6069    6072
    6084      31    6069    6075    6087      31    6069    6075    6090      31
    6069    6075    6093      31    6120    6105    6123       1    6117    6105
    6120       1    6117    6105    6123       1    6111    6102    6114       1
    6108    6102    6111       1    6108    6102    6114       1    6099    6102
    6108      31    6099    6102    6111      31    6099    6102    6114      31
    6099    6105    6117      31    6099    6105    6120      31    6099    6105
    6123      31    6150    6135    6153       1    6147    6135    6150       1
    6147    6135    6153       1    6141    6132    6144       1    6138    6132
    6141       1    6138    6132    6144       1    6129    6132    6138      31
    6129    6132    6141      31    6129    6132    6144      31    6129    6135
    6147      31    6129    6135    6150      31    6129    6135    6153      31
    6180    6165    6183       1    6177    6165    6180       1    6177    6165
    6183       1    6171    6162    6174       1    6168    6162    6171       1
    6168    6162    6174       1    6159    6162    6168      31    6159    6162
    6171      31    6159    6162    6174      31    6159    6165    6177      31
    6159    6165    6180      31    6159    6165    6183      31    6210    6195
    6213       1    6207    6195    6210       1    6207    6195    6213       1
    6201    6192    6204       1    6198    6192    6201       1    6198    6192
    6204       1    6189    6192    6198      31    6189    6192    6201      31
    6189    6192    6204      31    6189    6195    6207      31    6189    6195
    6210      31    6189    6195    6213      31    6240    6225    6243       1
    6237    6225    6240       1    6237    6225    6243       1    6231    6222
    6234       1    6228    6222    6231       1    6228    6222    6234       1
    6219    6222    6228      31    6219    6222    6231      31    6219    6222
    6234      31    6219    6225    6237      31    6219    6225    6240      31
    6219    6225    6243      31    6270    6255    6273       1    6267    6255
    6270       1    6267    6255    6273       1    6261    6252    6264       1
    6258    6252    6261       1    6258    6252    6264       1    6249    6252
    6258      31    6249    6252    6261      31    6249    6252    6264      31
    6249    6255    6267      31    6249    6255    6270      31    6249    6255
    6273      31    6300    6285    6303       1    6297    6285    6300       1
    6297    6285    6303       1    6291    6282    6294       1    6288    6282
    6291       1    6288    6282    6294       1    6279    6282    6288      31
    6279    6282    6291      31    6279    6282    6294      31    6279    6285
    6297      31    6279    6285    6300      31    6279    6285    6303      31
    6330    6315    6333       1    6327    6315    6330       1    6327    6315
    6333       1    6321    6312    6324       1    6318    6312    6321       1
    6318    6312    6324       1    6309    6312    6318      31    6309    6312
    6321      31    6309    6312    6324      31    6309    6315    6327      31
    6309    6315    6330      31    6309    6315    6333      31    6360    6345
    6363       1    6357    6345    6360       1    6357    6345    6363       1
    6351    6342    6354       1    6348    6342    6351       1    6348    6342
    6354       1    6339    6342    6348      31    6339    6342    6351      31
    6339    6342    6354      31    6339    6345    6357      31    6339    6345
    6360      31    6339    6345    6363      31    6390    6375    6393       1
    6387    6375    6390       1    6387    6375    6393       1    6381    6372
    6384       1    6378    6372    6381       1    6378    6372    6384       1
    6369    6372    6378      31    6369    6372    6381      31    6369    6372
    6384      31    6369    6375    6387      31    6369    6375    6390      31
    6369    6375    6393      31    6420    6405    6423       1    6417    6405
    6420       1    6417    6405    6423       1    6411    6402    6414       1
    6408    6402    6411       1    6408    6402    6414       1    6399    6402
    6408      31    6399    6402    6411      31    6399    6402    6414      31
    6399    6405    6417      31    6399    6405    6420      31    6399    6405
    6423      31    6450    6435    6453       1    6447    6435    6450       1
    6447    6435    6453       1    6441    6432    6444       1    6438    6432
    6441       1    6438    6432    6444       1    6429    6432    6438      31
    6429    6432    6441      31    6429    6432    6444      31    6429    6435
    6447      31    6429    6435    6450      31    6429    6435    6453      31
    6480    6465    6483       1    6477    6465    6480       1    6477    6465
    6483       1    6471    6462    6474       1    6468    6462    6471       1
    6468    6462    6474       1    6459    6462    6468      31    6459    6462
    6471      31    6459    6462    6474      31    6459    6465    6477      31
    6459    6465    6480      31    6459    6465    6483      31    6510    6495
    6513       1    6507    6495    6510       1    6507    6495    6513       1
    6501    6492    6504       1    6498    6492    6501       1    6498    6492
    6504       1    6489    6492    6498      31    6489    6492    6501      31
    6489    6492    6504      31    6489    6495    6507      31    6489    6495
    6510      31    6489    6495    6513      31    6540    6525    6543       1
    6537    6525    6540       1    6537    6525    6543       1    6531    6522
    6534       1    6528    6522    6531       1    6528    6522    6534       1
    6519    6522    6528      31    6519    6522    6531      31    6519    6522
    6534      31    6519    6525    6537      31    6519    6525    6540      31
    6519    6525    6543      31    6570    6555    6573       1    6567    6555
    6570       1    6567    6555    6573       1    6561    6552    6564       1
    6558    6552    6561       1    6558    6552    6564       1    6549    6552
    6558      31    6549    6552    6561      31    6549    6552    6564      31
    6549    6555    6567      31    6549    6555    6570      31    6549    6555
    6573      31    6600    6585    6603       1    6597    6585    6600       1
    6597    6585    6603       1    6591    6582    6594       1    6588    6582
    6591       1    6588    6582    6594       1    6579    6582    6588      31
    6579    6582    6591      31    6579    6582    6594      31    6579    6585
    6597      31    6579    6585    6600      31    6579    6585    6603      31
    6630    6615    6633       1    6627    6615    6630       1    6627    6615
    6633       1    6621    6612    6624       1    6618    6612    6621       1
    6618    6612    6624       1    6609    6612    6618      31    6609    6612
    6621      31    6609    6612    6624      31    6609    6615    6627      31
    6609    6615    6630      31    6609    6615    6633      31    6660    6645
    6663       1    6657    6645    6660       1    6657    6645    6663       1
    6651    6642    6654       1    6648    6642    6651       1    6648    6642
    6654       1    6639    6642    6648      31    6639    6642    6651      31
    6639    6642    6654      31    6639    6645    6657      31    6639    6645
    6660      31    6639    6645    6663      31    6690    6675    6693       1
    6687    6675    6690       1    6687    6675    6693       1    6681    6672
    6684       1    6678    6672    6681       1    6678    6672    6684       1
    6669    6672    6678      31    6669    6672    6681      31    6669    6672
    6684      31    6669    6675    6687      31    6669    6675    6690      31
    6669    6675    6693      31    6720    6705    6723       1    6717    6705
    6720       1    6717    6705    6723       1    6711    6702    6714       1
    6708    6702    6711       1    6708    6702    6714       1    6699    6702
    6708      31    6699    6702    6711      31    6699    6702    6714      31
    6699    6705    6717      31    6699    6705    6720      31    6699    6705
    6723      31    6750    6735    6753       1    6747    6735    6750       1
    6747    6735    6753       1    6741    6732    6744       1    6738    6732
    6741       1    6738    6732    6744       1    6729    6732    6738      31
    6729    6732    6741      31    6729    6732    6744      31    6729    6735
    6747      31    6729    6735    6750      31    6729    6735    6753      31
    6780    6765    6783       1    6777    6765    6780       1    6777    6765
    6783       1    6771    6762    6774       1    6768    6762    6771       1
    6768    6762    6774       1    6759    6762    6768      31    6759    6762
    6771      31    6759    6762    6774      31    6759    6765    6777      31
    6759    6765    6780      31    6759    6765    6783      31    6810    6795
    6813       1    6807    6795    6810       1    6807    6795    6813       1
    6801    6792    6804       1    6798    6792    6801       1    6798    6792
    6804       1    6789    6792    6798      31    6789    6792    6801      31
    6789    6792    6804      31    6789    6795    6807      31    6789    6795
    6810      31    6789    6795    6813      31    6840    6825    6843       1
    6837    6825    6840       1    6837    6825    6843       1    6831    6822
    6834       1    6828    6822    6831       1    6828    6822    6834       1
    6819    6822    6828      31    6819    6822    6831      31    6819    6822
    6834      31    6819    6825    6837      31    6819    6825    6840      31
    6819    6825    6843      31    6870    6855    6873       1    6867    6855
    6870       1    6867    6855    6873       1    6861    6852    6864       1
    6858    6852    6861       1    6858    6852    6864       1    6849    6852
    6858      31    6849    6852    6861      31    6849    6852    6864      31
    6849    6855    6867      31    6849    6855    6870      31    6849    6855
    6873      31    6900    6885    6903       1    6897    6885    6900       1
    6897    6885    6903       1    6891    6882    6894       1    6888    6882
    6891       1    6888    6882    6894       1    6879    6882    6888      31
    6879    6882    6891      31    6879    6882    6894      31    6879    6885
    6897      31    6879    6885    6900      31    6879    6885    6903      31
    6930    6915    6933       1    6927    6915    6930       1    6927    6915
    6933       1    6921    6912    6924       1    6918    6912    6921       1
    6918    6912    6924       1    6909    6912    6918      31    6909    6912
    6921      31    6909    6912    6924      31    6909    6915    6927      31
    6909    6915    6930      31    6909    6915    6933      31    6960    6945
    6963       1    6957    6945    6960       1    6957    6945    6963       1
    6951    6942    6954       1    6948    6942    6951       1    6948    6942
    6954       1    6939    6942    6948      31    6939    6942    6951      31
    6939    6942    6954      31    6939    6945    6957      31    6939    6945
    6960      31    6939    6945    6963      31    6990    6975    6993       1
    6987    6975    6990       1    6987    6975    6993       1    6981    6972
    6984       1    6978    6972    6981       1    6978    6972    6984       1
    6969    6972    6978      31    6969    6972    6981      31    6969    6972
    6984      31    6969    6975    6987      31    6969    6975    6990      31
    6969    6975    6993      31    7020    7005    7023       1    7017    7005
    7020       1    7017    7005    7023       1    7011    7002    7014       1
    7008    7002    7011       1    7008    7002    7014       1    6999    7002
    7008      31    6999    7002    7011      31    6999    7002    7014      31
    6999    7005    7017      31    6999    7005    7020      31    6999    7005
    7023      31    7050    7035    7053       1    7047    7035    7050       1
    7047    7035    7053       1    7041    7032    7044       1    7038    7032
    7041       1    7038    7032    7044       1    7029    7032    7038      31
    7029    7032    7041      31    7029    7032    7044      31    7029    7035
    7047      31    7029    7035    7050      31    7029    7035    7053      31
    7080    7065    7083       1    7077    7065    7080       1    7077    7065
    7083       1    7071    7062    7074       1    7068    7062    7071       1
    7068    7062    7074       1    7059    7062    7068      31    7059    7062
    7071      31    7059    7062    7074      31    7059    7065    7077      31
    7059    7065    7080      31    7059    7065    7083      31    7110    7095
    7113       1    7107    7095    7110       1    7107    7095    7113       1
    7101    7092    7104       1    7098    7092    7101       1    7098    7092
    7104       1    7089    7092    7098      31    7089    7092    7101      31
    7089    7092    7104      31    7089    7095    7107      31    7089    7095
    7110      31    7089    7095    7113      31    7140    7125    7143       1
    7137    7125    7140       1    7137    7125    7143       1    7131    7122
    7134       1    7128    7122    7131       1    7128    7122    7134       1
    7119    7122    7128      31    7119    7122    7131      31    7119    7122
    7134      31    7119    7125    7137      31    7119    7125    7140      31
    7119    7125    7143      31    7170    7155    7173       1    7167    7155
    7170       1    7167    7155    7173       1    7161    7152    7164       1
    7158    7152    7161       1    7158    7152    7164       1    7149    7152
    7158      31    7149    7152    7161      31    7149    7152    7164      31
    7149    7155    7167      31    7149    7155    7170      31    7149    7155
    7173      31    7200    7185    7203       1    7197    7185    7200       1
    7197    7185    7203       1    7191    7182    7194       1    7188    7182
    7191       1    7188    7182    7194       1    7179    7182    7188      31
    7179    7182    7191      31    7179    7182    7194      31    7179    7185
    7197      31    7179    7185    7200      31    7179    7185    7203      31
    7230    7215    7233       1    7227    7215    7230       1    7227    7215
    7233       1    7221    7212    7224       1    7218    7212    7221       1
    7218    7212    7224       1    7209    7212    7218      31    7209    7212
    7221      31    7209    7212    7224      31    7209    7215    7227      31
    7209    7215    7230      31    7209    7215    7233      31    7260    7245
    7263       1    7257    7245    7260       1    7257    7245    7263       1
    7251    7242    7254       1    7248    7242    7251       1    7248    7242
    7254       1    7239    7242    7248      31    7239    7242    7251      31
    7239    7242    7254      31    7239    7245    7257      31    7239    7245
    7260      31    7239    7245    7263      31    7290    7275    7293       1
    7287    7275    7290       1    7287    7275    7293       1    7281    7272
    7284       1    7278    7272    7281       1    7278    7272    7284       1
    7269    7272    7278      31    7269    7272    7281      31    7269    7272
    7284      31    7269    7275    7287      31    7269    7275    7290      31
    7269    7275    7293      31    7320    7305    7323       1    7317    7305
    7320       1    7317    7305    7323       1    7311    7302    7314       1
    7308    7302    7311       1    7308    7302    7314       1    7299    7302
    7308      31    7299    7302    7311      31    7299    7302    7314      31
    7299    7305    7317      31    7299    7305    7320      31    7299    7305
    7323      31    7350    7335    7353       1    7347    7335    7350       1
    7347    7335    7353       1    7341    7332    7344       1    7338    7332
    7341       1    7338    7332    7344       1    7329    7332    7338      31
    7329    7332    7341      31    7329    7332    7344      31    7329    7335
    7347      31    7329    7335    7350      31    7329    7335    7353      31
    7380    7365    7383       1    7377    7365    7380       1    7377    7365
    7383       1    7371    7362    7374       1    7368    7362    7371       1
    7368    7362    7374       1    7359    7362    7368      31    7359    7362
    7371      31    7359    7362    7374      31    7359    7365    7377      31
    7359    7365    7380      31    7359    7365    7383      31    7410    7395
    7413       1    7407    7395    7410       1    7407    7395    7413       1
    7401    7392    7404       1    7398    7392    7401       1    7398    7392
    7404       1    7389    7392    7398      31    7389    7392    7401      31
    7389    7392    7404      31    7389    7395    7407      31    7389    7395
    7410      31    7389    7395    7413      31    7440    7425    7443       1
    7437    7425    7440       1    7437    7425    7443       1    7431    7422
    7434       1    7428    7422    7431       1    7428    7422    7434       1
    7419    7422    7428      31    7419    7422    7431      31    7419    7422
    7434      31    7419    7425    7437      31    7419    7425    7440      31
    7419    7425    7443      31    7470    7455    7473       1    7467    7455
    7470       1    7467    7455    7473       1    7461    7452    7464       1
    7458    7452    7461       1    7458    7452    7464       1    7449    7452
    7458      31    7449    7452    7461      31    7449    7452    7464      31
    7449    7455    7467      31    7449    7455    7470      31    7449    7455
    7473      31    7500    7485    7503       1    7497    7485    7500       1
    7497    7485    7503       1    7491    7482    7494       1    7488    7482
    7491       1    7488    7482    7494       1    7479    7482    7488      31
    7479    7482    7491      31    7479    7482    7494      31    7479    7485
    7497      31    7479    7485    7500      31    7479    7485    7503      31
    7530    7515    7533       1    7527    7515    7530       1    7527    7515
    7533       1    7521    7512    7524       1    7518    7512    7521       1
    7518    7512    7524       1    7509    7512    7518      31    7509    7512
    7521      31    7509    7512    7524      31    7509    7515    7527      31
    7509    7515    7530      31    7509    7515    7533      31    7560    7545
    7563       1    7557    7545    7560       1    7557    7545    7563       1
    7551    7542    7554       1    7548    7542    7551       1    7548    7542
    7554       1    7539    7542    7548      31    7539    7542    7551      31
    7539    7542    7554      31    7539    7545    7557      31    7539    7545
    7560      31    7539    7545    7563      31    7590    7575    7593       1
    7587    7575    7590       1    7587    7575    7593       1    7581    7572
    7584       1    7578    7572    7581       1    7578    7572    7584       1
    7569    7572    7578      31    7569    7572    7581      31    7569    7572
    7584      31    7569    7575    7587      31    7569    7575    7590      31
    7569    7575    7593      31    7620    7605    7623       1    7617    7605
    7620       1    7617    7605    7623       1    7611    7602    7614       1
    7608    7602    7611       1    7608    7602    7614       1    7599    7602
    7608      31    7599    7602    7611      31    7599    7602    7614      31
    7599    7605    7617      31    7599    7605    7620      31    7599    7605
    7623      31    7650    7635    7653       1    7647    7635    7650       1
    7647    7635    7653       1    7641    7632    7644       1    7638    7632
    7641       1    7638    7632    7644       1    7629    7632    7638      31
    7629    7632    7641      31    7629    7632    7644      31    7629    7635
    7647      31    7629    7635    7650      31    7629    7635    7653      31
    7680    7665    7683       1    7677    7665    7680       1    7677    7665
    7683       1    7671    7662    7674       1    7668    7662    7671       1
    7668    7662    7674       1    7659    7662    7668      31    7659    7662
    7671      31    7659    7662    7674      31    7659    7665    7677      31
    7659    7665    7680      31    7659    7665    7683      31    7710    7695
    7713       1    7707    7695    7710       1    7707    7695    7713       1
    7701    7692    7704       1    7698    7692    7701       1    7698    7692
    7704       1    7689    7692    7698      31    7689    7692    7701      31
    7689    7692    7704      31    7689    7695    7707      31    7689    7695
    7710      31    7689    7695    7713      31    7740    7725    7743       1
    7737    7725    7740       1    7737    7725    7743       1    7731    7722
    7734       1    7728    7722    7731       1    7728    7722    7734       1
    7719    7722    7728      31    7719    7722    7731      31    7719    7722
    7734      31    7719    7725    7737      31    7719    7725    7740      31
    7719    7725    7743      31    7770    7755    7773       1    7767    7755
    7770       1    7767    7755    7773       1    7761    7752    7764       1
    7758    7752    7761       1    7758    7752    7764       1    7749    7752
    7758      31    7749    7752    7761      31    7749    7752    7764      31
    7749    7755    7767      31    7749    7755    7770      31    7749    7755
    7773      31    7800    7785    7803       1    7797    7785    7800       1
    7797    7785    7803       1    7791    7782    7794       1    7788    7782
    7791       1    7788    7782    7794       1    7779    7782    7788      31
    7779    7782    7791      31    7779    7782    7794      31    7779    7785
    7797      31    7779    7785    7800      31    7779    7785    7803      31
    7830    7815    7833       1    7827    7815    7830       1    7827    7815
    7833       1    7821    7812    7824       1    7818    7812    7821       1
    7818    7812    7824       1    7809    7812    7818      31    7809    7812
    7821      31    7809    7812    7824      31    7809    7815    7827      31
    7809    7815    7830      31    7809    7815    7833      31    7860    7845
    7863       1    7857    7845    7860       1    7857    7845    7863       1
    7851    7842    7854       1    7848    7842    7851       1    7848    7842
    7854       1    7839    7842    7848      31    7839    7842    7851      31
    7839    7842    7854      31    7839    7845    7857      31    7839    7845
    7860      31    7839    7845    7863      31    7890    7875    7893       1
    7887    7875    7890       1    7887    7875    7893       1    7881    7872
    7884       1    7878    7872    7881       1    7878    7872    7884       1
    7869    7872    7878      31    7869    7872    7881      31    7869    7872
    7884      31    7869    7875    7887      31    7869    7875    7890      31
    7869    7875    7893      31    7920    7905    7923       1    7917    7905
    7920       1    7917    7905    7923       1    7911    7902    7914       1
    7908    7902    7911       1    7908    7902    7914       1    7899    7902
    7908      31    7899    7902    7911      31    7899    7902    7914      31
    7899    7905    7917      31    7899    7905    7920      31    7899    7905
    7923      31    7950    7935    7953       1    7947    7935    7950       1
    7947    7935    7953       1    7941    7932    7944       1    7938    7932
    7941       1    7938    7932    7944       1    7929    7932    7938      31
    7929    7932    7941      31    7929    7932    7944      31    7929    7935
    7947      31    7929    7935    7950      31    7929    7935    7953      31
    7980    7965    7983       1    7977    7965    7980       1    7977    7965
    7983       1    7971    7962    7974       1    7968    7962    7971       1
    7968    7962    7974       1    7959    7962    7968      31    7959    7962
    7971      31    7959    7962    7974      31    7959    7965    7977      31
    7959    7965    7980      31    7959    7965    7983      31    8010    7995
    8013       1    8007    7995    8010       1    8007    7995    8013       1
    8001    7992    8004       1    7998    7992    8001       1    7998    7992
    8004       1    7989    7992    7998      31    7989    7992    8001      31
    7989    7992    8004      31    7989    7995    8007      31    7989    7995
    8010      31    7989    7995    8013      31    8040    8025    8043       1
    8037    8025    8040       1    8037    8025    8043       1    8031    8022
    8034       1    8028    8022    8031       1    8028    8022    8034       1
    8019    8022    8028      31    8019    8022    8031      31    8019    8022
    8034      31    8019    8025    8037      31    8019    8025    8040      31
    8019    8025    8043      31    8070    8055    8073       1    8067    8055
    8070       1    8067    8055    8073       1    8061    8052    8064       1
    8058    8052    8061       1    8058    8052    8064       1    8049    8052
    8058      31    8049    8052    8061      31    8049    8052    8064      31
    8049    8055    8067      31    8049    8055    8070      31    8049    8055
    8073      31    8100    8085    8103       1    8097    8085    8100       1
    8097    8085    8103       1    8091    8082    8094       1    8088    8082
    8091       1    8088    8082    8094       1    8079    8082    8088      31
    8079    8082    8091      31    8079    8082    8094      31    8079    8085
    8097      31    8079    8085    8100      31    8079    8085    8103      31
    8130    8115    8133       1    8127    8115    8130       1    8127    8115
    8133       1    8121    8112    8124       1    8118    8112    8121       1
    8118    8112    8124       1    8109    8112    8118      31    8109    8112
    8121      31    8109    8112    8124      31    8109    8115    8127      31
    8109    8115    8130      31    8109    8115    8133      31    8160    8145
    8163       1    8157    8145    8160       1    8157    8145    8163       1
    8151    8142    8154       1    8148    8142    8151       1    8148    8142
    8154       1    8139    8142    8148      31    8139    8142    8151      31
    8139    8142    8154      31    8139    8145    8157      31    8139    8145
    8160      31    8139    8145    8163      31    8190    8175    8193       1
    8187    8175    8190       1    8187    8175    8193       1    8181    8172
    8184       1    8178    8172    8181       1    8178    8172    8184       1
    8169    8172    8178      31    8169    8172    8181      31    8169    8172
    8184      31    8169    8175    8187      31    8169    8175    8190      31
    8169    8175    8193      31    8220    8205    8223       1    8217    8205
    8220       1    8217    8205    8223       1    8211    8202    8214       1
    8208    8202    8211       1    8208    8202    8214       1    8199    8202
    8208      31    8199    8202    8211      31    8199    8202    8214      31
    8199    8205    8217      31    8199    8205    8220      31    8199    8205
    8223      31    8250    8235    8253       1    8247    8235    8250       1
    8247    8235    8253       1    8241    8232    8244       1    8238    8232
    8241       1    8238    8232    8244       1    8229    8232    8238      31
    8229    8232    8241      31    8229    8232    8244      31    8229    8235
    8247      31    8229    8235    8250      31    8229    8235    8253      31
    8280    8265    8283       1    8277    8265    8280       1    8277    8265
    8283       1    8271    8262    8274       1    8268    8262    8271       1
    8268    8262    8274       1    8259    8262    8268      31    8259    8262
    8271      31    8259    8262    8274      31    8259    8265    8277      31
    8259    8265    8280      31    8259    8265    8283      31    8310    8295
    8313       1    8307    8295    8310       1    8307    8295    8313       1
    8301    8292    8304       1    8298    8292    8301       1    8298    8292
    8304       1    8289    8292    8298      31    8289    8292    8301      31
    8289    8292    8304      31    8289    8295    8307      31    8289    8295
    8310      31    8289    8295    8313      31    8340    8325    8343       1
    8337    8325    8340       1    8337    8325    8343       1    8331    8322
    8334       1    8328    8322    8331       1    8328    8322    8334       1
    8319    8322    8328      31    8319    8322    8331      31    8319    8322
    8334      31    8319    8325    8337      31    8319    8325    8340      31
    8319    8325    8343      31    8370    8355    8373       1    8367    8355
    8370       1    8367    8355    8373       1    8361    8352    8364       1
    8358    8352    8361       1    8358    8352    8364       1    8349    8352
    8358      31    8349    8352    8361      31    8349    8352    8364      31
    8349    8355    8367      31    8349    8355    8370      31    8349    8355
    8373      31    8400    8385    8403       1    8397    8385    8400       1
    8397    8385    8403       1    8391    8382    8394       1    8388    8382
    8391       1    8388    8382    8394       1    8379    8382    8388      31
    8379    8382    8391      31    8379    8382    8394      31    8379    8385
    8397      31    8379    8385    8400      31    8379    8385    8403      31
    8430    8415    8433       1    8427    8415    8430       1    8427    8415
    8433       1    8421    8412    8424       1    8418    8412    8421       1
    8418    8412    8424       1    8409    8412    8418      31    8409    8412
    8421      31    8409    8412    8424      31    8409    8415    8427      31
    8409    8415    8430      31    8409    8415    8433      31    8460    8445
    8463       1    8457    8445    8460       1    8457    8445    8463       1
    8451    8442    8454       1    8448    8442    8451       1    8448    8442
    8454       1    8439    8442    8448      31    8439    8442    8451      31
    8439    8442    8454      31    8439    8445    8457      31    8439    8445
    8460      31    8439    8445    8463      31    8490    8475    8493       1
    8487    8475    8490       1    8487    8475    8493       1    8481    8472
    8484       1    8478    8472    8481       1    8478    8472    8484       1
    8469    8472    8478      31    8469    8472    8481      31    8469    8472
    8484      31    8469    8475    8487      31    8469    8475    8490      31
    8469    8475    8493      31    8520    8505    8523       1    8517    8505
    8520       1    8517    8505    8523       1    8511    8502    8514       1
    8508    8502    8511       1    8508    8502    8514       1    8499    8502
    8508      31    8499    8502    8511      31    8499    8502    8514      31
    8499    8505    8517      31    8499    8505    8520      31    8499    8505
    8523      31    8550    8535    8553       1    8547    8535    8550       1
    8547    8535    8553       1    8541    8532    8544       1    8538    8532
    8541       1    8538    8532    8544       1    8529    8532    8538      31
    8529    8532    8541      31    8529    8532    8544      31    8529    8535
    8547      31    8529    8535    8550      31    8529    8535    8553      31
    8580    8565    8583       1    8577    8565    8580       1    8577    8565
    8583       1    8571    8562    8574       1    8568    8562    8571       1
    8568    8562    8574       1    8559    8562    8568      31    8559    8562
    8571      31    8559    8562    8574      31    8559    8565    8577      31
    8559    8565    8580      31    8559    8565    8583      31    8610    8595
    8613       1    8607    8595    8610       1    8607    8595    8613       1
    8601    8592    8604       1    8598    8592    8601       1    8598    8592
    8604       1    8589    8592    8598      31    8589    8592    8601      31
    8589    8592    8604      31    8589    8595    8607      31    8589    8595
    8610      31    8589    8595    8613      31    8640    8625    8643       1
    8637    8625    8640       1    8637    8625    8643       1    8631    8622
    8634       1    8628    8622    8631       1    8628    8622    8634       1
    8619    8622    8628      31    8619    8622    8631      31    8619    8622
    8634      31    8619    8625    8637      31    8619    8625    8640      31
    8619    8625    8643      31    8670    8655    8673       1    8667    8655
    8670       1    8667    8655    8673       1    8661    8652    8664       1
    8658    8652    8661       1    8658    8652    8664       1    8649    8652
    8658      31    8649    8652    8661      31    8649    8652    8664      31
    8649    8655    8667      31    8649    8655    8670      31    8649    8655
    8673      31    8700    8685    8703       1    8697    8685    8700       1
    8697    8685    8703       1    8691    8682    8694       1    8688    8682
    8691       1    8688    8682    8694       1    8679    8682    8688      31
    8679    8682    8691      31    8679    8682    8694      31    8679    8685
    8697      31    8679    8685    8700      31    8679    8685    8703      31
    8730    8715    8733       1    8727    8715    8730       1    8727    8715
    8733       1    8721    8712    8724       1    8718    8712    8721       1
    8718    8712    8724       1    8709    8712    8718      31    8709    8712
    8721      31    8709    8712    8724      31    8709    8715    8727      31
    8709    8715    8730      31    8709    8715    8733      31    8760    8745
    8763       1    8757    8745    8760       1    8757    8745    8763       1
    8751    8742    8754       1    8748    8742    8751       1    8748    8742
    8754       1    8739    8742    8748      31    8739    8742    8751      31
    8739    8742    8754      31    8739    8745    8757      31    8739    8745
    8760      31    8739    8745    8763      31    8790    8775    8793       1
    8787    8775    8790       1    8787    8775    8793       1    8781    8772
    8784       1    8778    8772    8781       1    8778    8772    8784       1
    8769    8772    8778      31    8769    8772    8781      31    8769    8772
    8784      31    8769    8775    8787      31    8769    8775    8790      31
    8769    8775    8793      31    8820    8805    8823       1    8817    8805
    8820       1    8817    8805    8823       1    8811    8802    8814       1
    8808    8802    8811       1    8808    8802    8814       1    8799    8802
    8808      31    8799    8802    8811      31    8799    8802    8814      31
    8799    8805    8817      31    8799    8805    8820      31    8799    8805
    8823      31    8850    8835    8853       1    8847    8835    8850       1
    8847    8835    8853       1    8841    8832    8844       1    8838    8832
    8841       1    8838    8832    8844       1    8829    8832    8838      31
    8829    8832    8841      31    8829    8832    8844      31    8829    8835
    8847      31    8829    8835    8850      31    8829    8835    8853      31
    8880    8865    8883       1    8877    8865    8880       1    8877    8865
    8883       1    8871    8862    8874       1    8868    8862    8871       1
    8868    8862    8874       1    8859    8862    8868      31    8859    8862
    8871      31    8859    8862    8874      31    8859    8865    8877      31
    8859    8865    8880      31    8859    8865    8883      31    8910    8895
    8913       1    8907    8895    8910       1    8907    8895    8913       1
    8901    8892    8904       1    8898    8892    8901       1    8898    8892
    8904       1    8889    8892    8898      31    8889    8892    8901      31
    8889    8892    8904      31    8889    8895    8907      31    8889    8895
    8910      31    8889    8895    8913      31    8940    8925    8943       1
    8937    8925    8940       1    8937    8925    8943       1    8931    8922
    8934       1    8928    8922    8931       1    8928    8922    8934       1
    8919    8922    8928      31    8919    8922    8931      31    8919    8922
    8934      31    8919    8925    8937      31    8919    8925    8940      31
    8919    8925    8943      31    8970    8955    8973       1    8967    8955
    8970       1    8967    8955    8973       1    8961    8952    8964       1
    8958    8952    8961       1    8958    8952    8964       1    8949    8952
    8958      31    8949    8952    8961      31    8949    8952    8964      31
    8949    8955    8967      31    8949    8955    8970      31    8949    8955
    8973      31    9000    8985    9003       1    8997    8985    9000       1
    8997    8985    9003       1    8991    8982    8994       1    8988    8982
    8991       1    8988    8982    8994       1    8979    8982    8988      31
    8979    8982    8991      31    8979    8982    8994      31    8979    8985
    8997      31    8979    8985    9000      31    8979    8985    9003      31
    9030    9015    9033       1    9027    9015    9030       1    9027    9015
    9033       1    9021    9012    9024       1    9018    9012    9021       1
    9018    9012    9024       1    9009    9012    9018      31    9009    9012
    9021      31    9009    9012    9024      31    9009    9015    9027      31
    9009    9015    9030      31    9009    9015    9033      31    9060    9045
    9063       1    9057    9045    9060       1    9057    9045    9063       1
    9051    9042    9054       1    9048    9042    9051       1    9048    9042
    9054       1    9039    9042    9048      31    9039    9042    9051      31
    9039    9042    9054      31    9039    9045    9057      31    9039    9045
    9060      31    9039    9045    9063      31    9090    9075    9093       1
    9087    9075    9090       1    9087    9075    9093       1    9081    9072
    9084       1    9078    9072    9081       1    9078    9072    9084       1
    9069    9072    9078      31    9069    9072    9081      31    9069    9072
    9084      31    9069    9075    9087      31    9069    9075    9090      31
    9069    9075    9093      31    9120    9105    9123       1    9117    9105
    9120       1    9117    9105    9123       1    9111    9102    9114       1
    9108    9102    9111       1    9108    9102    9114       1    9099    9102
    9108      31    9099    9102    9111      31    9099    9102    9114      31
    9099    9105    9117      31    9099    9105    9120      31    9099    9105
    9123      31    9150    9135    9153       1    9147    9135    9150       1
    9147    9135    9153       1    9141    9132    9144       1    9138    9132
    9141       1    9138    9132    9144       1    9129    9132    9138      31
    9129    9132    9141      31    9129    9132    9144      31    9129    9135
    9147      31    9129    9135    9150      31    9129    9135    9153      31
    9180    9165    9183       1    9177    9165    9180       1    9177    9165
    9183       1    9171    9162    9174       1    9168    9162    9171       1
    9168    9162    9174       1    9159    9162    9168      31    9159    9162
    9171      31    9159    9162    9174      31    9159    9165    9177      31
    9159    9165    9180      31    9159    9165    9183      31    9210    9195
    9213       1    9207    9195    9210       1    9207    9195    9213       1
    9201    9192    9204       1    9198    9192    9201       1    9198    9192
    9204       1    9189    9192    9198      31    9189    9192    9201      31
    9189    9192    9204      31    9189    9195    9207      31    9189    9195
    9210      31    9189    9195    9213      31    9240    9225    9243       1
    9237    9225    9240       1    9237    9225    9243       1    9231    9222
    9234       1    9228    9222    9231       1    9228    9222    9234       1
    9219    9222    9228      31    9219    9222    9231      31    9219    9222
    9234      31    9219    9225    9237      31    9219    9225    9240      31
    9219    9225    9243      31    9270    9255    9273       1    9267    9255
    9270       1    9267    9255    9273       1    9261    9252    9264       1
    9258    9252    9261       1    9258    9252    9264       1    9249    9252
    9258      31    9249    9252    9261      31    9249    9252    9264      31
    9249    9255    9267      31    9249    9255    9270      31    9249    9255
    9273      31    9300    9285    9303       1    9297    9285    9300       1
    9297    9285    9303       1    9291    9282    9294       1    9288    9282
    9291       1    9288    9282    9294       1    9279    9282    9288      31
    9279    9282    9291      31    9279    9282    9294      31    9279    9285
    9297      31    9279    9285    9300      31    9279    9285    9303      31
    9330    9315    9333       1    9327    9315    9330       1    9327    9315
    9333       1    9321    9312    9324       1    9318    9312    9321       1
    9318    9312    9324       1    9309    9312    9318      31    9309    9312
    9321      31    9309    9312    9324      31    9309    9315    9327      31
    9309    9315    9330      31    9309    9315    9333      31    9360    9345
    9363       1    9357    9345    9360       1    9357    9345    9363       1
    9351    9342    9354       1    9348    9342    9351       1    9348    9342
    9354       1    9339    9342    9348      31    9339    9342    9351      31
    9339    9342    9354      31    9339    9345    9357      31    9339    9345
    9360      31    9339    9345    9363      31    9390    9375    9393       1
    9387    9375    9390       1    9387    9375    9393       1    9381    9372
    9384       1    9378    9372    9381       1    9378    9372    9384       1
    9369    9372    9378      31    9369    9372    9381      31    9369    9372
    9384      31    9369    9375    9387      31    9369    9375    9390      31
    9369    9375    9393      31    9420    9405    9423       1    9417    9405
    9420       1    9417    9405    9423       1    9411    9402    9414       1
    9408    9402    9411       1    9408    9402    9414       1    9399    9402
    9408      31    9399    9402    9411      31    9399    9402    9414      31
    9399    9405    9417      31    9399    9405    9420      31    9399    9405
    9423      31    9450    9435    9453       1    9447    9435    9450       1
    9447    9435    9453       1    9441    9432    9444       1    9438    9432
    9441       1    9438    9432    9444       1    9429    9432    9438      31
    9429    9432    9441      31    9429    9432    9444      31    9429    9435
    9447      31    9429    9435    9450      31    9429    9435    9453      31
    9480    9465    9483       1    9477    9465    9480       1    9477    9465
    9483       1    9471    9462    9474       1    9468    9462    9471       1
    9468    9462    9474       1    9459    9462    9468      31    9459    9462
    9471      31    9459    9462    9474      31    9459    9465    9477      31
    9459    9465    9480      31    9459    9465    9483      31    9510    9495
    9513       1    9507    9495    9510       1    9507    9495    9513       1
    9501    9492    9504       1    9498    9492    9501       1    9498    9492
    9504       1    9489    9492    9498      31    9489    9492    9501      31
    9489    9492    9504      31    9489    9495    9507      31    9489    9495
    9510      31    9489    9495    9513      31    9540    9525    9543       1
    9537    9525    9540       1    9537    9525    9543       1    9531    9522
    9534       1    9528    9522    9531       1    9528    9522    9534       1
    9519    9522    9528      31    9519    9522    9531      31    9519    9522
    9534      31    9519    9525    9537      31    9519    9525    9540      31
    9519    9525    9543      31    9570    9555    9573       1    9567    9555
    9570       1    9567    9555    9573       1    9561    9552    9564       1
    9558    9552    9561       1    9558    9552    9564       1    9549    9552
    9558      31    9549    9552    9561      31    9549    9552    9564      31
    9549    9555    9567      31    9549    9555    9570      31    9549    9555
    9573      31    9600    9585    9603       1    9597    9585    9600       1
    9597    9585    9603       1    9591    9582    9594       1    9588    9582
    9591       1    9588    9582    9594       1    9579    9582    9588      31
    9579    9582    9591      31    9579    9582    9594      31    9579    9585
    9597      31    9579    9585    9600      31    9579    9585    9603      31
    9630    9615    9633       1    9627    9615    9630       1    9627    9615
    9633       1    9621    9612    9624       1    9618    9612    9621       1
    9618    9612    9624       1    9609    9612    9618      31    9609    9612
    9621      31    9609    9612    9624      31    9609    9615    9627      31
    9609    9615    9630      31    9609    9615    9633      31    9660    9645
    9663       1    9657    9645    9660       1    9657    9645    9663       1
    9651    9642    9654       1    9648    9642    9651       1    9648    9642
    9654       1    9639    9642    9648      31    9639    9642    9651      31
    9639    9642    9654      31    9639    9645    9657      31    9639    9645
    9660      31    9639    9645    9663      31    9690    9675    9693       1
    9687    9675    9690       1    9687    9675    9693       1    9681    9672
    9684       1    9678    9672    9681       1    9678    9672    9684       1
    9669    9672    9678      31    9669    9672    9681      31    9669    9672
    9684      31    9669    9675    9687      31    9669    9675    9690      31
    9669    9675    9693      31    9720    9705    9723       1    9717    9705
    9720       1    9717    9705    9723       1    9711    9702    9714       1
    9708    9702    9711       1    9708    9702    9714       1    9699    9702
    9708      31    9699    9702    9711      31    9699    9702    9714      31
    9699    9705    9717      31    9699    9705    9720      31    9699    9705
    9723      31    9750    9735    9753       1    9747    9735    9750       1
    9747    9735    9753       1    9741    9732    9744       1    9738    9732
    9741       1    9738    9732    9744       1    9729    9732    9738      31
    9729    9732    9741      31    9729    9732    9744      31    9729    9735
    9747      31    9729    9735    9750      31    9729    9735    9753      31
    9780    9765    9783       1    9777    9765    9780       1    9777    9765
    9783       1    9771    9762    9774       1    9768    9762    9771       1
    9768    9762    9774       1    9759    9762    9768      31    9759    9762
    9771      31    9759    9762    9774      31    9759    9765    9777      31
    9759    9765    9780      31    9759    9765    9783      31    9810    9795
    9813       1    9807    9795    9810       1    9807    9795    9813       1
    9801    9792    9804       1    9798    9792    9801       1    9798    9792
    9804       1    9789    9792    9798      31    9789    9792    9801      31
    9789    9792    9804      31    9789    9795    9807      31    9789    9795
    9810      31    9789    9795    9813      31    9840    9825    9843       1
    9837    9825    9840       1    9837    9825    9843       1    9831    9822
    9834       1    9828    9822    9831       1    9828    9822    9834       1
    9819    9822    9828      31    9819    9822    9831      31    9819    9822
    9834      31    9819    9825    9837      31    9819    9825    9840      31
    9819    9825    9843      31    9870    9855    9873       1    9867    9855
    9870       1    9867    9855    9873       1    9861    9852    9864       1
    9858    9852    9861       1    9858    9852    9864       1    9849    9852
    9858      31    9849    9852    9861      31    9849    9852    9864      31
    9849    9855    9867      31    9849    9855    9870      31    9849    9855
    9873      31    9900    9885    9903       1    9897    9885    9900       1
    9897    9885    9903       1    9891    9882    9894       1    9888    9882
    9891       1    9888    9882    9894       1    9879    9882    9888      31
    9879    9882    9891      31    9879    9882    9894      31    9879    9885
    9897      31    9879    9885    9900      31    9879    9885    9903      31
    9930    9915    9933       1    9927    9915    9930       1    9927    9915
    9933       1    9921    9912    9924       1    9918    9912    9921       1
    9918    9912    9924       1    9909    9912    9918      31    9909    9912
    9921      31    9909    9912    9924      31    9909    9915    9927      31
    9909    9915    9930      31    9909    9915    9933      31    9960    9945
    9963       1    9957    9945    9960       1    9957    9945    9963       1
    9951    9942    9954       1    9948    9942    9951       1    9948    9942
    9954       1    9939    9942    9948      31    9939    9942    9951      31
    9939    9942    9954      31    9939    9945    9957      31    9939    9945
    9960      31    9939    9945    9963      31    9990    9975    9993       1
    9987    9975    9990       1    9987    9975    9993       1    9981    9972
    9984       1    9978    9972    9981       1    9978    9972    9984       1
    9969    9972    9978      31    9969    9972    9981      31    9969    9972
    9984      31    9969    9975    9987      31    9969    9975    9990      31
    9969    9975    9993      31   10020   10005   10023       1   10017   10005
   10020       1   10017   10005   10023       1   10011   10002   10014       1
   10008   10002   10011       1   10008   10002   10014       1    9999   10002
   10008      31    9999   10002   10011      31    9999   10002   10014      31
    9999   10005   10017      31    9999   10005   10020      31    9999   10005
   10023      31   10050   10035   10053       1   10047   10035   10050       1
   10047   10035   10053       1   10041   10032   10044       1   10038   10032
   10041       1   10038   10032   10044       1   10029   10032   10038      31
   10029   10032   10041      31   10029   10032   10044      31   10029   10035
   10047      31   10029   10035   10050      31   10029   10035   10053      31
   10080   10065   10083       1   10077   10065   10080       1   10077   10065
   10083       1   10071   10062   10074       1   10068   10062   10071       1
   10068   10062   10074       1   10059   10062   10068      31   10059   10062
   10071      31   10059   10062   10074      31   10059   10065   10077      31
   10059   10065   10080      31   10059   10065   10083      31   10110   10095
   10113       1   10107   10095   10110       1   10107   10095   10113       1
   10101   10092   10104       1   10098   10092   10101       1   10098   10092
   10104       1   10089   10092   10098      31   10089   10092   10101      31
   10089   10092   10104      31   10089   10095   10107      31   10089   10095
   10110      31   10089   10095   10113      31   10140   10125   10143       1
   10137   10125   10140       1   10137   10125   10143       1   10131   10122
   10134       1   10128   10122   10131       1   10128   10122   10134       1
   10119   10122   10128      31   10119   10122   10131      31   10119   10122
   10134      31   10119   10125   10137      31   10119   10125   10140      31
   10119   10125   10143      31   10170   10155   10173       1   10167   10155
   10170       1   10167   10155   10173       1   10161   10152   10164       1
   10158   10152   10161       1   10158   10152   10164       1   10149   10152
   10158      31   10149   10152   10161      31   10149   10152   10164      31
   10149   10155   10167      31   10149   10155   10170      31   10149   10155
   10173      31   10200   10185   10203       1   10197   10185   10200       1
   10197   10185   10203       1   10191   10182   10194       1   10188   10182
   10191       1   10188   10182   10194       1   10179   10182   10188      31
   10179   10182   10191      31   10179   10182   10194      31   10179   10185
   10197      31   10179   10185   10200      31   10179   10185   10203      31
   10230   10215   10233       1   10227   10215   10230       1   10227   10215
   10233       1   10221   10212   10224       1   10218   10212   10221       1
   10218   10212   10224       1   10209   10212   10218      31   10209   10212
   10221      31   10209   10212   10224      31   10209   10215   10227      31
   10209   10215   10230      31   10209   10215   10233      31   10260   10245
   10263       1   10257   10245   10260       1   10257   10245   10263       1
   10251   10242   10254       1   10248   10242   10251       1   10248   10242
   10254       1   10239   10242   10248      31   10239   10242   10251      31
   10239   10242   10254      31   10239   10245   10257      31   10239   10245
   10260      31   10239   10245   10263      31   10290   10275   10293       1
   10287   10275   10290       1   10287   10275   10293       1   10281   10272
   10284       1   10278   10272   10281       1   10278   10272   10284       1
   10269   10272   10278      31   10269   10272   10281      31   10269   10272
   10284      31   10269   10275   10287      31   10269   10275   10290      31
   10269   10275   10293      31   10320   10305   10323       1   10317   10305
   10320       1   10317   10305   10323       1   10311   10302   10314       1
   10308   10302   10311       1   10308   10302   10314       1   10299   10302
   10308      31   10299   10302   10311      31   10299   10302   10314      31
   10299   10305   10317      31   10299   10305   10320      31   10299   10305
   10323      31
%FLAG ANGLES_WITHOUT_HYDROGEN                                                   
%FORMAT(10I8)                                                                   
      63      69      66       4      60      66      69       4      51      42
      63       6      42      33      60       4      42      51      48       8
      42      63      69       4      36      48      51       9      33      18
      36      11      33      42      51       6      33      42      63       4
      33      60      66       4      30      12      39       4      24       6
      27      13      21      15      30       4      21      45      39       4
      18       9      21      14      18      33      42      15      18      33
      60      15      18      36      48      16      15       0      36      17
      15      21      45       4      12       6      24      18      12       6
      27      18      12      30      15       4      12      39      45       4
       9      18      33      19       9      18      36      20       9      21
      15      21       9      21      45      21       6      12      30      22
       6      12      39      22       6      24      54      23       6      27
      57      23       3      51      42      25       3      51      48      26
       0      15      21      27       0      15      30      27       0      36
      18      28       0      36      48      29     132     129     135      30
     126     129     132      32     126     129     135      32     162     159
     165      30     156     159     162      32     156     159     165      32
     192     189     195      30     186     189     192      32     186     189
     195      32     222     219     225      30     216     219     222      32
     216     219     225      32     252     249     255      30     246     249
     252      32     246     249     255      32     282     279     285      30
     276     279     282      32     276     279     285      32     312     309
     315      30     306     309     312      32     306     309     315      32
     342     339     345      30     336     339     342      32     336     339
     345      32     372     369     375      30     366     369     372      32
     366     369     375      32     402     399     405      30     396     399
     402      32     396     399     405      32     432     429     435      30
     426     429     432      32     426     429     435      32     462     459
     465      30     456     459     462      32     456     459     465      32
     492     489     495      30     486     489     492      32     486     489
     495      32     522     519     525      30     516     519     522      32
     516     519     525      32     552     549     555      30     546     549
     552      32     546     549     555      32     582     579     585      30
     576     579     582      32     576     579     585      32     612     609
     615      30     606     609     612      32     606     609     615      32
     642     639     645      30     636     639     642      32     636     639
     645      32     672     669     675      30     666     669     672      32
     666     669     675      32     702     699     705      30     696     699
     702      32     696     699     705      32     732     729     735      30
     726     729     732      32     726     729     735      32     762     759
     765      30     756     759     762      32     756     759     765      32
     792     789     795      30     786     789     792      32     786     789
     795      32     822     819     825      30     816     819     822      32
     816     819     825      32     852     849     855      30     846     849
     852      32     846     849     855      32     882     879     885      30
     876     879     882      32     876     879     885      32     912     909
     915      30     906     909     912      32     906     909     915      32
     942     939     945      30     936     939     942      32     936     939
     945      32     972     969     975      30     966     969     972      32
     966     969     975      32    1002     999    1005      30     996     999
    1002      32     996     999    1005      32    1032    1029    1035      30
    1026    1029    1032      32    1026    1029    1035      32    1062    1059
    1065      30    1056    1059    1062      32    1056    1059    1065      32
    1092    1089    1095      30    1086    1089    1092      32    1086    1089
    1095      32    1122    1119    1125      30    1116    1119    1122      32
    1116    1119    1125      32    1152    1149    1155      30    1146    1149
    1152      32    1146    1149    1155      32    1182    1179    1185      30
    1176    1179    1182      32    1176    1179    1185      32    1212    1209
    1215      30    1206    1209    1212      32    1206    1209    1215      32
    1242    1239    1245      30    1236    1239    1242      32    1236    1239
    1245      32    1272    1269    1275      30    1266    1269    1272      32
    1266    1269    1275      32    1302    1299    1305      30    1296    1299
    1302      32    1296    1299    1305      32    1332    1329    1335      30
    1326    1329    1332      32    1326    1329    1335      32    1362    1359
    1365      30    1356    1359    1362      32    1356    1359    1365      32
    1392    1389    1395      30    1386    1389    1392      32    1386    1389
    1395      32    1422    1419    1425      30    1416    1419    1422      32
    1416    1419    1425      32    1452    1449    1455      30    1446    1449
    1452      32    1446    1449    1455      32    1482    1479    1485      30
    1476    1479    1482      32    1476    1479    1485      32    1512    1509
    1515      30    1506    1509    1512      32    1506    1509    1515      32
    1542    1539    1545      30    1536    1539    1542      32    1536    1539
    1545      32    1572    1569    1575      30    1566    1569    1572      32
    1566    1569    1575      32    1602    1599    1605      30    1596    1599
    1602      32    1596    1599    1605      32    1632    1629    1635      30
    1626    1629    1632      32    1626    1629    1635      32    1662    1659
    1665      30    1656    1659    1662      32    1656    1659    1665      32
    1692    1689    1695      30    1686    1689    1692      32    1686    1689
    1695      32    1722    1719    1725      30    1716    1719    1722      32
    1716    1719    1725      32    1752    1749    1755      30    1746    1749
    1752      32    1746    1749    1755      32    1782    1779    1785      30
    1776    1779    1782      32    1776    1779    1785      32    1812    1809
    1815      30    1806    1809    1812      32    1806    1809    1815      32
    1842    1839    1845      30    1836    1839    1842      32    1836    1839
    1845      32    1872    1869    1875      30    1866    1869    1872      32
    1866    1869    1875      32    1902    1899    1905      30    1896    1899
    1902      32    1896    1899    1905      32    1932    1929    1935      30
    1926    1929    1932      32    1926    1929    1935      32    1962    1959
    1965      30    1956    1959    1962      32    1956    1959    1965      32
    1992    1989    1995      30    1986    1989    1992      32    1986    1989
    1995      32    2022    2019    2025      30    2016    2019    2022      32
    2016    2019    2025      32    2052    2049    2055      30    2046    2049
    2052      32    2046    2049    2055      32    2082    2079    2085      30
    2076    2079    2082      32    2076    2079    2085      32    2112    2109
    2115      30    2106    2109    2112      32    2106    2109    2115      32
    2142    2139    2145      30    2136    2139    2142      32    2136    2139
    2145      32    2172    2169    2175      30    2166    2169    2172      32
    2166    2169    2175      32    2202    2199    2205      30    2196    2199
    2202      32    2196    2199    2205      32    2232    2229    2235      30
    2226    2229    2232      32    2226    2229    2235      32    2262    2259
    2265      30    2256    2259    2262      32    2256    2259    2265      32
    2292    2289    2295      30    2286    2289    2292      32    2286    2289
    2295      32    2322    2319    2325      30    2316    2319    2322      32
    2316    2319    2325      32    2352    2349    2355      30    2346    2349
    2352      32    2346    2349    2355      32    2382    2379    2385      30
    2376    2379    2382      32    2376    2379    2385      32    2412    2409
    2415      30    2406    2409    2412      32    2406    2409    2415      32
    2442    2439    2445      30    2436    2439    2442      32    2436    2439
    2445      32    2472    2469    2475      30    2466    2469    2472      32
    2466    2469    2475      32    2502    2499    2505      30    2496    2499
    2502      32    2496    2499    2505      32    2532    2529    2535      30
    2526    2529    2532      32    2526    2529    2535      32    2562    2559
    2565      30    2556    2559    2562      32    2556    2559    2565      32
    2592    2589    2595      30    2586    2589    2592      32    2586    2589
    2595      32    2622    2619    2625      30    2616    2619    2622      32
    2616    2619    2625      32    2652    2649    2655      30    2646    2649
    2652      32    2646    2649    2655      32    2682    2679    2685      30
    2676    2679    2682      32    2676    2679    2685      32    2712    2709
    2715      30    2706    2709    2712      32    2706    2709    2715      32
    2742    2739    2745      30    2736    2739    2742      32    2736    2739
    2745      32    2772    2769    2775      30    2766    2769    2772      32
    2766    2769    2775      32    2802    2799    2805      30    2796    2799
    2802      32    2796    2799    2805      32    2832    2829    2835      30
    2826    2829    2832      32    2826    2829    2835      32    2862    2859
    2865      30    2856    2859    2862      32    2856    2859    2865      32
    2892    2889    2895      30    2886    2889    2892      32    2886    2889
    2895      32    2922    2919    2925      30    2916    2919    2922      32
    2916    2919    2925      32    2952    2949    2955      30    2946    2949
    2952      32    2946    2949    2955      32    2982    2979    2985      30
    2976    2979    2982      32    2976    2979    2985      32    3012    3009
    3015      30    3006    3009    3012      32    3006    3009    3015      32
    3042    3039    3045      30    3036    3039    3042      32    3036    3039
    3045      32    3072    3069    3075      30    3066    3069    3072      32
    3066    3069    3075      32    3102    3099    3105      30    3096    3099
    3102      32    3096    3099    3105      32    3132    3129    3135      30
    3126    3129    3132      32    3126    3129    3135      32    3162    3159
    3165      30    3156    3159    3162      32    3156    3159    3165      32
    3192    3189    3195      30    3186    3189    3192      32    3186    3189
    3195      32    3222    3219    3225      30    3216    3219    3222      32
    3216    3219    3225      32    3252    3249    3255      30    3246    3249
    3252      32    3246    3249    3255      32    3282    3279    3285      30
    3276    3279    3282      32    3276    3279    3285      32    3312    3309
    3315      30    3306    3309    3312      32    3306    3309    3315      32
    3342    3339    3345      30    3336    3339    3342      32    3336    3339
    3345      32    3372    3369    3375      30    3366    3369    3372      32
    3366    3369    3375      32    3402    3399    3405      30    3396    3399
    3402      32    3396    3399    3405      32    3432    3429    3435      30
    3426    3429    3432      32    3426    3429    3435      32    3462    3459
    3465      30    3456    3459    3462      32    3456    3459    3465      32
    3492    3489    3495      30    3486    3489    3492      32    3486    3489
    3495      32    3522    3519    3525      30    3516    3519    3522      32
    3516    3519    3525      32    3552    3549    3555      30    3546    3549
    3552      32    3546    3549    3555      32    3582    3579    3585      30
    3576    3579    3582      32    3576    3579    3585      32    3612    3609
    3615      30    3606    3609    3612      32    3606    3609    3615      32
    3642    3639    3645      30    3636    3639    3642      32    3636    3639
    3645      32    3672    3669    3675      30    3666    3669    3672      32
    3666    3669    3675      32    3702    3699    3705      30    3696    3699
    3702      32    3696    3699    3705      32    3732    3729    3735      30
    3726    3729    3732      32    3726    3729    3735      32    3762    3759
    3765      30    3756    3759    3762      32    3756    3759    3765      32
    3792    3789    3795      30    3786    3789    3792      32    3786    3789
    3795      32    3822    3819    3825      30    3816    3819    3822      32
    3816    3819    3825      32    3852    3849    3855      30    3846    3849
    3852      32    3846    3849    3855      32    3882    3879    3885      30
    3876    3879    3882      32    3876    3879    3885      32    3912    3909
    3915      30    3906    3909    3912      32    3906    3909    3915      32
    3942    3939    3945      30    3936    3939    3942      32    3936    3939
    3945      32    3972    3969    3975      30    3966    3969    3972      32
    3966    3969    3975      32    4002    3999    4005      30    3996    3999
    4002      32    3996    3999    4005      32    4032    4029    4035      30
    4026    4029    4032      32    4026    4029    4035      32    4062    4059
    4065      30    4056    4059    4062      32    4056    4059    4065      32
    4092    4089    4095      30    4086    4089    4092      32    4086    4089
    4095      32    4122    4119    4125      30    4116    4119    4122      32
    4116    4119    4125      32    4152    4149    4155      30    4146    4149
    4152      32    4146    4149    4155      32    4182    4179    4185      30
    4176    4179    4182      32    4176    4179    4185      32    4212    4209
    4215      30    4206    4209    4212      32    4206    4209    4215      32
    4242    4239    4245      30    4236    4239    4242      32    4236    4239
    4245      32    4272    4269    4275      30    4266    4269    4272      32
    4266    4269    4275      32    4302    4299    4305      30    4296    4299
    4302      32    4296    4299    4305      32    4332    4329    4335      30
    4326    4329    4332      32    4326    4329    4335      32    4362    4359
    4365      30    4356    4359    4362      32    4356    4359    4365      32
    4392    4389    4395      30    4386    4389    4392      32    4386    4389
    4395      32    4422    4419    4425      30    4416    4419    4422      32
    4416    4419    4425      32    4452    4449    4455      30    4446    4449
    4452      32    4446    4449    4455      32    4482    4479    4485      30
    4476    4479    4482      32    4476    4479    4485      32    4512    4509
    4515      30    4506    4509    4512      32    4506    4509    4515      32
    4542    4539    4545      30    4536    4539    4542      32    4536    4539
    4545      32    4572    4569    4575      30    4566    4569    4572      32
    4566    4569    4575      32    4602    4599    4605      30    4596    4599
    4602      32    4596    4599    4605      32    4632    4629    4635      30
    4626    4629    4632      32    4626    4629    4635      32    4662    4659
    4665      30    4656    4659    4662      32    4656    4659    4665      32
    4692    4689    4695      30    4686    4689    4692      32    4686    4689
    4695      32    4722    4719    4725      30    4716    4719    4722      32
    4716    4719    4725      32    4752    4749    4755      30    4746    4749
    4752      32    4746    4749    4755      32    4782    4779    4785      30
    4776    4779    4782      32    4776    4779    4785      32    4812    4809
    4815      30    4806    4809    4812      32    4806    4809    4815      32
    4842    4839    4845      30    4836    4839    4842      32    4836    4839
    4845      32    4872    4869    4875      30    4866    4869    4872      32
    4866    4869    4875      32    4902    4899    4905      30    4896    4899
    4902      32    4896    4899    4905      32    4932    4929    4935      30
    4926    4929    4932      32    4926    4929    4935      32    4962    4959
    4965      30    4956    4959    4962      32    4956    4959    4965      32
    4992    4989    4995      30    4986    4989    4992      32    4986    4989
    4995      32    5022    5019    5025      30    5016    5019    5022      32
    5016    5019    5025      32    5052    5049    5055      30    5046    5049
    5052      32    5046    5049    5055      32    5082    5079    5085      30
    5076    5079    5082      32    5076    5079    5085      32    5112    5109
    5115      30    5106    5109    5112      32    5106    5109    5115      32
    5142    5139    5145      30    5136    5139    5142      32    5136    5139
    5145      32    5172    5169    5175      30    5166    5169    5172      32
    5166    5169    5175      32    5202    5199    5205      30    5196    5199
    5202      32    5196    5199    5205      32    5232    5229    5235      30
    5226    5229    5232      32    5226    5229    5235      32    5262    5259
    5265      30    5256    5259    5262      32    5256    5259    5265      32
    5292    5289    5295      30    5286    5289    5292      32    5286    5289
    5295      32    5322    5319    5325      30    5316    5319    5322      32
    5316    5319    5325      32    5352    5349    5355      30    5346    5349
    5352      32    5346    5349    5355      32    5382    5379    5385      30
    5376    5379    5382      32    5376    5379    5385      32    5412    5409
    5415      30    5406    5409    5412      32    5406    5409    5415      32
    5442    5439    5445      30    5436    5439    5442      32    5436    5439
    5445      32    5472    5469    5475      30    5466    5469    5472      32
    5466    5469    5475      32    5502    5499    5505      30    5496    5499
    5502      32    5496    5499    5505      32    5532    5529    5535      30
    5526    5529    5532      32    5526    5529    5535      32    5562    5559
    5565      30    5556    5559    5562      32    5556    5559    5565      32
    5592    5589    5595      30    5586    5589    5592      32    5586    5589
    5595      32    5622    5619    5625      30    5616    5619    5622      32
    5616    5619    5625      32    5652    5649    5655      30    5646    5649
    5652      32    5646    5649    5655      32    5682    5679    5685      30
    5676    5679    5682      32    5676    5679    5685      32    5712    5709
    5715      30    5706    5709    5712      32    5706    5709    5715      32
    5742    5739    5745      30    5736    5739    5742      32    5736    5739
    5745      32    5772    5769    5775      30    5766    5769    5772      32
    5766    5769    5775      32    5802    5799    5805      30    5796    5799
    5802      32    5796    5799    5805      32    5832    5829    5835      30
    5826    5829    5832      32    5826    5829    5835      32    5862    5859
    5865      30    5856    5859    5862      32    5856    5859    5865      32
    5892    5889    5895      30    5886    5889    5892      32    5886    5889
    5895      32    5922    5919    5925      30    5916    5919    5922      32
    5916    5919    5925      32    5952    5949    5955      30    5946    5949
    5952      32    5946    5949    5955      32    5982    5979    5985      30
    5976    5979    5982      32    5976    5979    5985      32    6012    6009
    6015      30    6006    6009    6012      32    6006    6009    6015      32
    6042    6039    6045      30    6036    6039    6042      32    6036    6039
    6045      32    6072    6069    6075      30    6066    6069    6072      32
    6066    6069    6075      32    6102    6099    6105      30    6096    6099
    6102      32    6096    6099    6105      32    6132    6129    6135      30
    6126    6129    6132      32    6126    6129    6135      32    6162    6159
    6165      30    6156    6159    6162      32    6156    6159    6165      32
    6192    6189    6195      30    6186    6189    6192      32    6186    6189
    6195      32    6222    6219    6225      30    6216    6219    6222      32
    6216    6219    6225      32    6252    6249    6255      30    6246    6249
    6252      32    6246    6249    6255      32    6282    6279    6285      30
    6276    6279    6282      32    6276    6279    6285      32    6312    6309
    6315      30    6306    6309    6312      32    6306    6309    6315      32
    6342    6339    6345      30    6336    6339    6342      32    6336    6339
    6345      32    6372    6369    6375      30    6366    6369    6372      32
    6366    6369    6375      32    6402    6399    6405      30    6396    6399
    6402      32    6396    6399    6405      32    6432    6429    6435      30
    6426    6429    6432      32    6426    6429    6435      32    6462    6459
    6465      30    6456    6459    6462      32    6456    6459    6465      32
    6492    6489    6495      30    6486    6489    6492      32    6486    6489
    6495      32    6522    6519    6525      30    6516    6519    6522      32
    6516    6519    6525      32    6552    6549    6555      30    6546    6549
    6552      32    6546    6549    6555      32    6582    6579    6585      30
    6576    6579    6582      32    6576    6579    6585      32    6612    6609
    6615      30    6606    6609    6612      32    6606    6609    6615      32
    6642    6639    6645      30    6636    6639    6642      32    6636    6639
    6645      32    6672    6669    6675      30    6666    6669    6672      32
    6666    6669    6675      32    6702    6699    6705      30    6696    6699
    6702      32    6696    6699    6705      32    6732    6729    6735      30
    6726    6729    6732      32    6726    6729    6735      32    6762    6759
    6765      30    6756    6759    6762      32    6756    6759    6765      32
    6792    6789    6795      30    6786    6789    6792      32    6786    6789
    6795      32    6822    6819    6825      30    6816    6819    6822      32
    6816    6819    6825      32    6852    6849    6855      30    6846    6849
    6852      32    6846    6849    6855      32    6882    6879    6885      30
    6876    6879    6882      32    6876    6879    6885      32    6912    6909
    6915      30    6906    6909    6912      32    6906    6909    6915      32
    6942    6939    6945      30    6936    6939    6942      32    6936    6939
    6945      32    6972    6969    6975      30    6966    6969    6972      32
    6966    6969    6975      32    7002    6999    7005      30    6996    6999
    7002      32    6996    6999    7005      32    7032    7029    7035      30
    7026    7029    7032      32    7026    7029    7035      32    7062    7059
    7065      30    7056    7059    7062      32    7056    7059    7065      32
    7092    7089    7095      30    7086    7089    7092      32    7086    7089
    7095      32    7122    7119    7125      30    7116    7119    7122      32
    7116    7119    7125      32    7152    7149    7155      30    7146    7149
    7152      32    7146    7149    7155      32    7182    7179    7185      30
    7176    7179    7182      32    7176    7179    7185      32    7212    7209
    7215      30    7206    7209    7212      32    7206    7209    7215      32
    7242    7239    7245      30    7236    7239    7242      32    7236    7239
    7245      32    7272    7269    7275      30    7266    7269    7272      32
    7266    7269    7275      32    7302    7299    7305      30    7296    7299
    7302      32    7296    7299    7305      32    7332    7329    7335      30
    7326    7329    7332      32    7326    7329    7335      32    7362    7359
    7365      30    7356    7359    7362      32    7356    7359    7365      32
    7392    7389    7395      30    7386    7389    7392      32    7386    7389
    7395      32    7422    7419    7425      30    7416    7419    7422      32
    7416    7419    7425      32    7452    7449    7455      30    7446    7449
    7452      32    7446    7449    7455      32    7482    7479    7485      30
    7476    7479    7482      32    7476    7479    7485      32    7512    7509
    7515      30    7506    7509    7512      32    7506    7509    7515      32
    7542    7539    7545      30    7536    7539    7542      32    7536    7539
    7545      32    7572    7569    7575      30    7566    7569    7572      32
    7566    7569    7575      32    7602    7599    7605      30    7596    7599
    7602      32    7596    7599    7605      32    7632    7629    7635      30
    7626    7629    7632      32    7626    7629    7635      32    7662    7659
    7665      30    7656    7659    7662      32    7656    7659    7665      32
    7692    7689    7695      30    7686    7689    7692      32    7686    7689
    7695      32    7722    7719    7725      30    7716    7719    7722      32
    7716    7719    7725      32    7752    7749    7755      30    7746    7749
    7752      32    7746    7749    7755      32    7782    7779    7785      30
    7776    7779    7782      32    7776    7779    7785      32    7812    7809
    7815      30    7806    7809    7812      32    7806    7809    7815      32
    7842    7839    7845      30    7836    7839    7842      32    7836    7839
    7845      32    7872    7869    7875      30    7866    7869    7872      32
    7866    7869    7875      32    7902    7899    7905      30    7896    7899
    7902      32    7896    7899    7905      32    7932    7929    7935      30
    7926    7929    7932      32    7926    7929    7935      32    7962    7959
    7965      30    7956    7959    7962      32    7956    7959    7965      32
    7992    7989    7995      30    7986    7989    7992      32    7986    7989
    7995      32    8022    8019    8025      30    8016    8019    8022      32
    8016    8019    8025      32    8052    8049    8055      30    8046    8049
    8052      32    8046    8049    8055      32    8082    8079    8085      30
    8076    8079    8082      32    8076    8079    8085      32    8112    8109
    8115      30    8106    8109    8112      32    8106    8109    8115      32
    8142    8139    8145      30    8136    8139    8142      32    8136    8139
    8145      32    8172    8169    8175      30    8166    8169    8172      32
    8166    8169    8175      32    8202    8199    8205      30    8196    8199
    8202      32    8196    8199    8205      32    8232    8229    8235      30
    8226    8229    8232      32    8226    8229    8235      32    8262    8259
    8265      30    8256    8259    8262      32    8256    8259    8265      32
    8292    8289    8295      30    8286    8289    8292      32    8286    8289
    8295      32    8322    8319    8325      30    8316    8319    8322      32
    8316    8319    8325      32    8352    8349    8355      30    8346    8349
    8352      32    8346    8349    8355      32    8382    8379    8385      30
    8376    8379    8382      32    8376    8379    8385      32    8412    8409
    8415      30    8406    8409    8412      32    8406    8409    8415      32
    8442    8439    8445      30    8436    8439    8442      32    8436    8439
    8445      32    8472    8469    8475      30    8466    8469    8472      32
    8466    8469    8475      32    8502    8499    8505      30    8496    8499
    8502      32    8496    8499    8505      32    8532    8529    8535      30
    8526    8529    8532      32    8526    8529    8535      32    8562    8559
    8565      30    8556    8559    8562      32    8556    8559    8565      32
    8592    8589    8595      30    8586    8589    8592      32    8586    8589
    8595      32    8622    8619    8625      30    8616    8619    8622      32
    8616    8619    8625      32    8652    8649    8655      30    8646    8649
    8652      32    8646    8649    8655      32    8682    8679    8685      30
    8676    8679    8682      32    8676    8679    8685      32    8712    8709
    8715      30    8706    8709    8712      32    8706    8709    8715      32
    8742    8739    8745      30    8736    8739    8742      32    8736    8739
    8745      32    8772    8769    8775      30    8766    8769    8772      32
    8766    8769    8775      32    8802    8799    8805      30    8796    8799
    8802      32    8796    8799    8805      32    8832    8829    8835      30
    8826    8829    8832      32    8826    8829    8835      32    8862    8859
    8865      30    8856    8859    8862      32    8856    8859    8865      32
    8892    8889    8895      30    8886    8889    8892      32    8886    8889
    8895      32    8922    8919    8925      30    8916    8919    8922      32
    8916    8919    8925      32    8952    8949    8955      30    8946    8949
    8952      32    8946    8949    8955      32    8982    8979    8985      30
    8976    8979    8982      32    8976    8979    8985      32    9012    9009
    9015      30    9006    9009    9012      32    9006    9009    9015      32
    9042    9039    9045      30    9036    9039    9042      32    9036    9039
    9045      32    9072    9069    9075      30    9066    9069    9072      32
    9066    9069    9075      32    9102    9099    9105      30    9096    9099
    9102      32    9096    9099    9105      32    9132    9129    9135      30
    9126    9129    9132      32    9126    9129    9135      32    9162    9159
    9165      30    9156    9159    9162      32    9156    9159    9165      32
    9192    9189    9195      30    9186    9189    9192      32    9186    9189
    9195      32    9222    9219    9225      30    9216    9219    9222      32
    9216    9219    9225      32    9252    9249    9255      30    9246    9249
    9252      32    9246    9249    9255      32    9282    9279    9285      30
    9276    9279    9282      32    9276    9279    9285      32    9312    9309
    9315      30    9306    9309    9312      32    9306    9309    9315      32
    9342    9339    9345      30    9336    9339    9342      32    9336    9339
    9345      32    9372    9369    9375      30    9366    9369    9372      32
    9366    9369    9375      32    9402    9399    9405      30    9396    9399
    9402      32    9396    9399    9405      32    9432    9429    9435      30
    9426    9429    9432      32    9426    9429    9435      32    9462    9459
    9465      30    9456    9459    9462      32    9456    9459    9465      32
    9492    9489    9495      30    9486    9489    9492      32    9486    9489
    9495      32    9522    9519    9525      30    9516    9519    9522      32
    9516    9519    9525      32    9552    9549    9555      30    9546    9549
    9552      32    9546    9549    9555      32    9582    9579    9585      30
    9576    9579    9582      32    9576    9579    9585      32    9612    9609
    9615      30    9606    9609    9612      32    9606    9609    9615      32
    9642    9639    9645      30    9636    9639    9642      32    9636    9639
    9645      32    9672    9669    9675      30    9666    9669    9672      32
    9666    9669    9675      32    9702    9699    9705      30    9696    9699
    9702      32    9696    9699    9705      32    9732    9729    9735      30
    9726    9729    9732      32    9726    9729    9735      32    9762    9759
    9765      30    9756    9759    9762      32    9756    9759    9765      32
    9792    9789    9795      30    9786    9789    9792      32    9786    9789
    9795      32    9822    9819    9825      30    9816    9819    9822      32
    9816    9819    9825      32    9852    9849    9855      30    9846    9849
    9852      32    9846    9849    9855      32    9882    9879    9885      30
    9876    9879    9882      32    9876    9879    9885      32    9912    9909
    9915      30    9906    9909    9912      32    9906    9909    9915      32
    9942    9939    9945      30    9936    9939    9942      32    9936    9939
    9945      32    9972    9969    9975      30    9966    9969    9972      32
    9966    9969    9975      32   10002    9999   10005      30    9996    9999
   10002      32    9996    9999   10005      32   10032   10029   10035      30
   10026   10029   10032      32   10026   10029   10035      32   10062   10059
   10065      30   10056   10059   10062      32   10056   10059   10065      32
   10092   10089   10095      30   10086   10089   10092      32   10086   10089
   10095      32   10122   10119   10125      30   10116   10119   10122      32
   10116   10119   10125      32   10152   10149   10155      30   10146   10149
   10152      32   10146   10149   10155      32   10182   10179   10185      30
   10176   10179   10182      32   10176   10179   10185      32   10212   10209
   10215      30   10206   10209   10212      32   10206   10209   10215      32
   10242   10239   10245      30   10236   10239   10242      32   10236   10239
   10245      32   10272   10269   10275      30   10266   10269   10272      32
   10266   10269   10275      32   10302   10299   10305      30   10296   10299
   10302      32   10296   10299   10305      32
%FLAG DIHEDRALS_INC_HYDROGEN                                                    
%FORMAT(10I8)                                                                   
     120      66      69     123       1     117      63      69     123       1
     114      60      66     120       1      87      39      45      90       1
      81      27      57     105       2      81      27      57     108       2
      81      27      57     111       2      78      27      57     105       2
      78      27      57     108       2      78      27      57     111       2
      75      24      54      96       2      75      24      54      99       2
      75      24      54     102       2      72      24      54      96       2
      72      24      54      99       2      72      24      54     102       2
      69      66      60     114       1      66      69      63     117       1
      63      69      66     120       1      60      66      69     123       1
      51      42      63     117       1      42      33      60     114       1
      42      51      48      93       4      42      63      69     123       1
      39      12      30      84       1      33      42      63     117       1
      33      60      66     120       1      30      12      39      87       1
      27       6      24      72      12      27       6      24      75      12
      24       6      27      78      12      24       6      27      81      12
      21      15      30      84       1      21      45      39      87       1
      18      33      60     114       1      18      36      48      93       9
      15      21      45      90       1      12       6      24      72      16
      12       6      24      75      16      12       6      27      78      16
      12       6      27      81      16      12      39      45      90       1
       9      21      45      90       1       6      12      30      84       1
       6      12      39      87       1       6      24      54      96       2
       6      24      54      99       2       6      24      54     102       2
       6      27      57     105       2       6      27      57     108       2
       6      27      57     111       2       3      51      48      93       4
       0      15      30      84       1       0      36      48      93       9
     135     129     132     138      21     135     129     132     141      21
     135     129     132     144      21     132     129     135     147      21
     132     129     135     150      21     132     129     135     153      21
     126     129     132     138      22     126     129    -132     138      23
     126     129     132     141      22     126     129    -132     141      23
     126     129     132     144      22     126     129    -132     144      23
     126     129     135     147      22     126     129    -135     147      23
     126     129     135     150      22     126     129    -135     150      23
     126     129     135     153      22     126     129    -135     153      23
     165     159     162     168      21     165     159     162     171      21
     165     159     162     174      21     162     159     165     177      21
     162     159     165     180      21     162     159     165     183      21
     156     159     162     168      22     156     159    -162     168      23
     156     159     162     171      22     156     159    -162     171      23
     156     159     162     174      22     156     159    -162     174      23
     156     159     165     177      22     156     159    -165     177      23
     156     159     165     180      22     156     159    -165     180      23
     156     159     165     183      22     156     159    -165     183      23
     195     189     192     198      21     195     189     192     201      21
     195     189     192     204      21     192     189     195     207      21
     192     189     195     210      21     192     189     195     213      21
     186     189     192     198      22     186     189    -192     198      23
     186     189     192     201      22     186     189    -192     201      23
     186     189     192     204      22     186     189    -192     204      23
     186     189     195     207      22     186     189    -195     207      23
     186     189     195     210      22     186     189    -195     210      23
     186     189     195     213      22     186     189    -195     213      23
     225     219     222     228      21     225     219     222     231      21
     225     219     222     234      21     222     219     225     237      21
     222     219     225     240      21     222     219     225     243      21
     216     219     222     228      22     216     219    -222     228      23
     216     219     222     231      22     216     219    -222     231      23
     216     219     222     234      22     216     219    -222     234      23
     216     219     225     237      22     216     219    -225     237      23
     216     219     225     240      22     216     219    -225     240      23
     216     219     225     243      22     216     219    -225     243      23
     255     249     252     258      21     255     249     252     261      21
     255     249     252     264      21     252     249     255     267      21
     252     249     255     270      21     252     249     255     273      21
     246     249     252     258      22     246     249    -252     258      23
     246     249     252     261      22     246     249    -252     261      23
     246     249     252     264      22     246     249    -252     264      23
     246     249     255     267      22     246     249    -255     267      23
     246     249     255     270      22     246     249    -255     270      23
     246     249     255     273      22     246     249    -255     273      23
     285     279     282     288      21     285     279     282     291      21
     285     279     282     294      21     282     279     285     297      21
     282     279     285     300      21     282     279     285     303      21
     276     279     282     288      22     276     279    -282     288      23
     276     279     282     291      22     276     279    -282     291      23
     276     279     282     294      22     276     279    -282     294      23
     276     279     285     297      22     276     279    -285     297      23
     276     279     285     300      22     276     279    -285     300      23
     276     279     285     303      22     276     279    -285     303      23
     315     309     312     318      21     315     309     312     321      21
     315     309     312     324      21     312     309     315     327      21
     312     309     315     330      21     312     309     315     333      21
     306     309     312     318      22     306     309    -312     318      23
     306     309     312     321      22     306     309    -312     321      23
     306     309     312     324      22     306     309    -312     324      23
     306     309     315     327      22     306     309    -315     327      23
     306     309     315     330      22     306     309    -315     330      23
     306     309     315     333      22     306     309    -315     333      23
     345     339     342     348      21     345     339     342     351      21
     345     339     342     354      21     342     339     345     357      21
     342     339     345     360      21     342     339     345     363      21
     336     339     342     348      22     336     339    -342     348      23
     336     339     342     351      22     336     339    -342     351      23
     336     339     342     354      22     336     339    -342     354      23
     336     339     345     357      22     336     339    -345     357      23
     336     339     345     360      22     336     339    -345     360      23
     336     339     345     363      22     336     339    -345     363      23
     375     369     372     378      21     375     369     372     381      21
     375     369     372     384      21     372     369     375     387      21
     372     369     375     390      21     372     369     375     393      21
     366     369     372     378      22     366     369    -372     378      23
     366     369     372     381      22     366     369    -372     381      23
     366     369     372     384      22     366     369    -372     384      23
     366     369     375     387      22     366     369    -375     387      23
     366     369     375     390      22     366     369    -375     390      23
     366     369     375     393      22     366     369    -375     393      23
     405     399     402     408      21     405     399     402     411      21
     405     399     402     414      21     402     399     405     417      21
     402     399     405     420      21     402     399     405     423      21
     396     399     402     408      22     396     399    -402     408      23
     396     399     402     411      22     396     399    -402     411      23
     396     399     402     414      22     396     399    -402     414      23
     396     399     405     417      22     396     399    -405     417      23
     396     399     405     420      22     396     399    -405     420      23
     396     399     405     423      22     396     399    -405     423      23
     435     429     432     438      21     435     429     432     441      21
     435     429     432     444      21     432     429     435     447      21
     432     429     435     450      21     432     429     435     453      21
     426     429     432     438      22     426     429    -432     438      23
     426     429     432     441      22     426     429    -432     441      23
     426     429     432     444      22     426     429    -432     444      23
     426     429     435     447      22     426     429    -435     447      23
     426     429     435     450      22     426     429    -435     450      23
     426     429     435     453      22     426     429    -435     453      23
     465     459     462     468      21     465     459     462     471      21
     465     459     462     474      21     462     459     465     477      21
     462     459     465     480      21     462     459     465     483      21
     456     459     462     468      22     456     459    -462     468      23
     456     459     462     471      22     456     459    -462     471      23
     456     459     462     474      22     456     459    -462     474      23
     456     459     465     477      22     456     459    -465     477      23
     456     459     465     480      22     456     459    -465     480      23
     456     459     465     483      22     456     459    -465     483      23
     495     489     492     498      21     495     489     492     501      21
     495     489     492     504      21     492     489     495     507      21
     492     489     495     510      21     492     489     495     513      21
     486     489     492     498      22     486     489    -492     498      23
     486     489     492     501      22     486     489    -492     501      23
     486     489     492     504      22     486     489    -492     504      23
     486     489     495     507      22     486     489    -495     507      23
     486     489     495     510      22     486     489    -495     510      23
     486     489     495     513      22     486     489    -495     513      23
     525     519     522     528      21     525     519     522     531      21
     525     519     522     534      21     522     519     525     537      21
     522     519     525     540      21     522     519     525     543      21
     516     519     522     528      22     516     519    -522     528      23
     516     519     522     531      22     516     519    -522     531      23
     516     519     522     534      22     516     519    -522     534      23
     516     519     525     537      22     516     519    -525     537      23
     516     519     525     540      22     516     519    -525     540      23
     516     519     525     543      22     516     519    -525     543      23
     555     549     552     558      21     555     549     552     561      21
     555     549     552     564      21     552     549     555     567      21
     552     549     555     570      21     552     549     555     573      21
     546     549     552     558      22     546     549    -552     558      23
     546     549     552     561      22     546     549    -552     561      23
     546     549     552     564      22     546     549    -552     564      23
     546     549     555     567      22     546     549    -555     567      23
     546     549     555     570      22     546     549    -555     570      23
     546     549     555     573      22     546     549    -555     573      23
     585     579     582     588      21     585     579     582     591      21
     585     579     582     594      21     582     579     585     597      21
     582     579     585     600      21     582     579     585     603      21
     576     579     582     588      22     576     579    -582     588      23
     576     579     582     591      22     576     579    -582     591      23
     576     579     582     594      22     576     579    -582     594      23
     576     579     585     597      22     576     579    -585     597      23
     576     579     585     600      22     576     579    -585     600      23
     576     579     585     603      22     576     579    -585     603      23
     615     609     612     618      21     615     609     612     621      21
     615     609     612     624      21     612     609     615     627      21
     612     609     615     630      21     612     609     615     633      21
     606     609     612     618      22     606     609    -612     618      23
     606     609     612     621      22     606     609    -612     621      23
     606     609     612     624      22     606     609    -612     624      23
     606     609     615     627      22     606     609    -615     627      23
     606     609     615     630      22     606     609    -615     630      23
     606     609     615     633      22     606     609    -615     633      23
     645     639     642     648      21     645     639     642     651      21
     645     639     642     654      21     642     639     645     657      21
     642     639     645     660      21     642     639     645     663      21
     636     639     642     648      22     636     639    -642     648      23
     636     639     642     651      22     636     639    -642     651      23
     636     639     642     654      22     636     639    -642     654      23
     636     639     645     657      22     636     639    -645     657      23
     636     639     645     660      22     636     639    -645     660      23
     636     639     645     663      22     636     639    -645     663      23
     675     669     672     678      21     675     669     672     681      21
     675     669     672     684      21     672     669     675     687      21
     672     669     675     690      21     672     669     675     693      21
     666     669     672     678      22     666     669    -672     678      23
     666     669     672     681      22     666     669    -672     681      23
     666     669     672     684      22     666     669    -672     684      23
     666     669     675     687      22     666     669    -675     687      23
     666     669     675     690      22     666     669    -675     690      23
     666     669     675     693      22     666     669    -675     693      23
     705     699     702     708      21     705     699     702     711      21
     705     699     702     714      21     702     699     705     717      21
     702     699     705     720      21     702     699     705     723      21
     696     699     702     708      22     696     699    -702     708      23
     696     699     702     711      22     696     699    -702     711      23
     696     699     702     714      22     696     699    -702     714      23
     696     699     705     717      22     696     699    -705     717      23
     696     699     705     720      22     696     699    -705     720      23
     696     699     705     723      22     696     699    -705     723      23
     735     729     732     738      21     735     729     732     741      21
     735     729     732     744      21     732     729     735     747      21
     732     729     735     750      21     732     729     735     753      21
     726     729     732     738      22     726     729    -732     738      23
     726     729     732     741      22     726     729    -732     741      23
     726     729     732     744      22     726     729    -732     744      23
     726     729     735     747      22     726     729    -735     747      23
     726     729     735     750      22     726     729    -735     750      23
     726     729     735     753      22     726     729    -735     753      23
     765     759     762     768      21     765     759     762     771      21
     765     759     762     774      21     762     759     765     777      21
     762     759     765     780      21     762     759     765     783      21
     756     759     762     768      22     756     759    -762     768      23
     756     759     762     771      22     756     759    -762     771      23
     756     759     762     774      22     756     759    -762     774      23
     756     759     765     777      22     756     759    -765     777      23
     756     759     765     780      22     756     759    -765     780      23
     756     759     765     783      22     756     759    -765     783      23
     795     789     792     798      21     795     789     792     801      21
     795     789     792     804      21     792     789     795     807      21
     792     789     795     810      21     792     789     795     813      21
     786     789     792     798      22     786     789    -792     798      23
     786     789     792     801      22     786     789    -792     801      23
     786     789     792     804      22     786     789    -792     804      23
     786     789     795     807      22     786     789    -795     807      23
     786     789     795     810      22     786     789    -795     810      23
     786     789     795     813      22     786     789    -795     813      23
     825     819     822     828      21     825     819     822     831      21
     825     819     822     834      21     822     819     825     837      21
     822     819     825     840      21     822     819     825     843      21
     816     819     822     828      22     816     819    -822     828      23
     816     819     822     831      22     816     819    -822     831      23
     816     819     822     834      22     816     819    -822     834      23
     816     819     825     837      22     816     819    -825     837      23
     816     819     825     840      22     816     819    -825     840      23
     816     819     825     843      22     816     819    -825     843      23
     855     849     852     858      21     855     849     852     861      21
     855     849     852     864      21     852     849     855     867      21
     852     849     855     870      21     852     849     855     873      21
     846     849     852     858      22     846     849    -852     858      23
     846     849     852     861      22     846     849    -852     861      23
     846     849     852     864      22     846     849    -852     864      23
     846     849     855     867      22     846     849    -855     867      23
     846     849     855     870      22     846     849    -855     870      23
     846     849     855     873      22     846     849    -855     873      23
     885     879     882     888      21     885     879     882     891      21
     885     879     882     894      21     882     879     885     897      21
     882     879     885     900      21     882     879     885     903      21
     876     879     882     888      22     876     879    -882     888      23
     876     879     882     891      22     876     879    -882     891      23
     876     879     882     894      22     876     879    -882     894      23
     876     879     885     897      22     876     879    -885     897      23
     876     879     885     900      22     876     879    -885     900      23
     876     879     885     903      22     876     879    -885     903      23
     915     909     912     918      21     915     909     912     921      21
     915     909     912     924      21     912     909     915     927      21
     912     909     915     930      21     912     909     915     933      21
     906     909     912     918      22     906     909    -912     918      23
     906     909     912     921      22     906     909    -912     921      23
     906     909     912     924      22     906     909    -912     924      23
     906     909     915     927      22     906     909    -915     927      23
     906     909     915     930      22     906     909    -915     930      23
     906     909     915     933      22     906     909    -915     933      23
     945     939     942     948      21     945     939     942     951      21
     945     939     942     954      21     942     939     945     957      21
     942     939     945     960      21     942     939     945     963      21
     936     939     942     948      22     936     939    -942     948      23
     936     939     942     951      22     936     939    -942     951      23
     936     939     942     954      22     936     939    -942     954      23
     936     939     945     957      22     936     939    -945     957      23
     936     939     945     960      22     936     939    -945     960      23
     936     939     945     963      22     936     939    -945     963      23
     975     969     972     978      21     975     969     972     981      21
     975     969     972     984      21     972     969     975     987      21
     972     969     975     990      21     972     969     975     993      21
     966     969     972     978      22     966     969    -972     978      23
     966     969     972     981      22     966     969    -972     981      23
     966     969     972     984      22     966     969    -972     984      23
     966     969     975     987      22     966     969    -975     987      23
     966     969     975     990      22     966     969    -975     990      23
     966     969     975     993      22     966     969    -975     993      23
    1005     999    1002    1008      21    1005     999    1002    1011      21
    1005     999    1002    1014      21    1002     999    1005    1017      21
    1002     999    1005    1020      21    1002     999    1005    1023      21
     996     999    1002    1008      22     996     999   -1002    1008      23
     996     999    1002    1011      22     996     999   -1002    1011      23
     996     999    1002    1014      22     996     999   -1002    1014      23
     996     999    1005    1017      22     996     999   -1005    1017      23
     996     999    1005    1020      22     996     999   -1005    1020      23
     996     999    1005    1023      22     996     999   -1005    1023      23
    1035    1029    1032    1038      21    1035    1029    1032    1041      21
    1035    1029    1032    1044      21    1032    1029    1035    1047      21
    1032    1029    1035    1050      21    1032    1029    1035    1053      21
    1026    1029    1032    1038      22    1026    1029   -1032    1038      23
    1026    1029    1032    1041      22    1026    1029   -1032    1041      23
    1026    1029    1032    1044      22    1026    1029   -1032    1044      23
    1026    1029    1035    1047      22    1026    1029   -1035    1047      23
    1026    1029    1035    1050      22    1026    1029   -1035    1050      23
    1026    1029    1035    1053      22    1026    1029   -1035    1053      23
    1065    1059    1062    1068      21    1065    1059    1062    1071      21
    1065    1059    1062    1074      21    1062    1059    1065    1077      21
    1062    1059    1065    1080      21    1062    1059    1065    1083      21
    1056    1059    1062    1068      22    1056    1059   -1062    1068      23
    1056    1059    1062    1071      22    1056    1059   -1062    1071      23
    1056    1059    1062    1074      22    1056    1059   -1062    1074      23
    1056    1059    1065    1077      22    1056    1059   -1065    1077      23
    1056    1059    1065    1080      22    1056    1059   -1065    1080      23
    1056    1059    1065    1083      22    1056    1059   -1065    1083      23
    1095    1089    1092    1098      21    1095    1089    1092    1101      21
    1095    1089    1092    1104      21    1092    1089    1095    1107      21
    1092    1089    1095    1110      21    1092    1089    1095    1113      21
    1086    1089    1092    1098      22    1086    1089   -1092    1098      23
    1086    1089    1092    1101      22    1086    1089   -1092    1101      23
    1086    1089    1092    1104      22    1086    1089   -1092    1104      23
    1086    1089    1095    1107      22    1086    1089   -1095    1107      23
    1086    1089    1095    1110      22    1086    1089   -1095    1110      23
    1086    1089    1095    1113      22    1086    1089   -1095    1113      23
    1125    1119    1122    1128      21    1125    1119    1122    1131      21
    1125    1119    1122    1134      21    1122    1119    1125    1137      21
    1122    1119    1125    1140      21    1122    1119    1125    1143      21
    1116    1119    1122    1128      22    1116    1119   -1122    1128      23
    1116    1119    1122    1131      22    1116    1119   -1122    1131      23
    1116    1119    1122    1134      22    1116    1119   -1122    1134      23
    1116    1119    1125    1137      22    1116    1119   -1125    1137      23
    1116    1119    1125    1140      22    1116    1119   -1125    1140      23
    1116    1119    1125    1143      22    1116    1119   -1125    1143      23
    1155    1149    1152    1158      21    1155    1149    1152    1161      21
    1155    1149    1152    1164      21    1152    1149    1155    1167      21
    1152    1149    1155    1170      21    1152    1149    1155    1173      21
    1146    1149    1152    1158      22    1146    1149   -1152    1158      23
    1146    1149    1152    1161      22    1146    1149   -1152    1161      23
    1146    1149    1152    1164      22    1146    1149   -1152    1164      23
    1146    1149    1155    1167      22    1146    1149   -1155    1167      23
    1146    1149    1155    1170      22    1146    1149   -1155    1170      23
    1146    1149    1155    1173      22    1146    1149   -1155    1173      23
    1185    1179    1182    1188      21    1185    1179    1182    1191      21
    1185    1179    1182    1194      21    1182    1179    1185    1197      21
    1182    1179    1185    1200      21    1182    1179    1185    1203      21
    1176    1179    1182    1188      22    1176    1179   -1182    1188      23
    1176    1179    1182    1191      22    1176    1179   -1182    1191      23
    1176    1179    1182    1194      22    1176    1179   -1182    1194      23
    1176    1179    1185    1197      22    1176    1179   -1185    1197      23
    1176    1179    1185    1200      22    1176    1179   -1185    1200      23
    1176    1179    1185    1203      22    1176    1179   -1185    1203      23
    1215    1209    1212    1218      21    1215    1209    1212    1221      21
    1215    1209    1212    1224      21    1212    1209    1215    1227      21
    1212    1209    1215    1230      21    1212    1209    1215    1233      21
    1206    1209    1212    1218      22    1206    1209   -1212    1218      23
    1206    1209    1212    1221      22    1206    1209   -1212    1221      23
    1206    1209    1212    1224      22    1206    1209   -1212    1224      23
    1206    1209    1215    1227      22    1206    1209   -1215    1227      23
    1206    1209    1215    1230      22    1206    1209   -1215    1230      23
    1206    1209    1215    1233      22    1206    1209   -1215    1233      23
    1245    1239    1242    1248      21    1245    1239    1242    1251      21
    1245    1239    1242    1254      21    1242    1239    1245    1257      21
    1242    1239    1245    1260      21    1242    1239    1245    1263      21
    1236    1239    1242    1248      22    1236    1239   -1242    1248      23
    1236    1239    1242    1251      22    1236    1239   -1242    1251      23
    1236    1239    1242    1254      22    1236    1239   -1242    1254      23
    1236    1239    1245    1257      22    1236    1239   -1245    1257      23
    1236    1239    1245    1260      22    1236    1239   -1245    1260      23
    1236    1239    1245    1263      22    1236    1239   -1245    1263      23
    1275    1269    1272    1278      21    1275    1269    1272    1281      21
    1275    1269    1272    1284      21    1272    1269    1275    1287      21
    1272    1269    1275    1290      21    1272    1269    1275    1293      21
    1266    1269    1272    1278      22    1266    1269   -1272    1278      23
    1266    1269    1272    1281      22    1266    1269   -1272    1281      23
    1266    1269    1272    1284      22    1266    1269   -1272    1284      23
    1266    1269    1275    1287      22    1266    1269   -1275    1287      23
    1266    1269    1275    1290      22    1266    1269   -1275    1290      23
    1266    1269    1275    1293      22    1266    1269   -1275    1293      23
    1305    1299    1302    1308      21    1305    1299    1302    1311      21
    1305    1299    1302    1314      21    1302    1299    1305    1317      21
    1302    1299    1305    1320      21    1302    1299    1305    1323      21
    1296    1299    1302    1308      22    1296    1299   -1302    1308      23
    1296    1299    1302    1311      22    1296    1299   -1302    1311      23
    1296    1299    1302    1314      22    1296    1299   -1302    1314      23
    1296    1299    1305    1317      22    1296    1299   -1305    1317      23
    1296    1299    1305    1320      22    1296    1299   -1305    1320      23
    1296    1299    1305    1323      22    1296    1299   -1305    1323      23
    1335    1329    1332    1338      21    1335    1329    1332    1341      21
    1335    1329    1332    1344      21    1332    1329    1335    1347      21
    1332    1329    1335    1350      21    1332    1329    1335    1353      21
    1326    1329    1332    1338      22    1326    1329   -1332    1338      23
    1326    1329    1332    1341      22    1326    1329   -1332    1341      23
    1326    1329    1332    1344      22    1326    1329   -1332    1344      23
    1326    1329    1335    1347      22    1326    1329   -1335    1347      23
    1326    1329    1335    1350      22    1326    1329   -1335    1350      23
    1326    1329    1335    1353      22    1326    1329   -1335    1353      23
    1365    1359    1362    1368      21    1365    1359    1362    1371      21
    1365    1359    1362    1374      21    1362    1359    1365    1377      21
    1362    1359    1365    1380      21    1362    1359    1365    1383      21
    1356    1359    1362    1368      22    1356    1359   -1362    1368      23
    1356    1359    1362    1371      22    1356    1359   -1362    1371      23
    1356    1359    1362    1374      22    1356    1359   -1362    1374      23
    1356    1359    1365    1377      22    1356    1359   -1365    1377      23
    1356    1359    1365    1380      22    1356    1359   -1365    1380      23
    1356    1359    1365    1383      22    1356    1359   -1365    1383      23
    1395    1389    1392    1398      21    1395    1389    1392    1401      21
    1395    1389    1392    1404      21    1392    1389    1395    1407      21
    1392    1389    1395    1410      21    1392    1389    1395    1413      21
    1386    1389    1392    1398      22    1386    1389   -1392    1398      23
    1386    1389    1392    1401      22    1386    1389   -1392    1401      23
    1386    1389    1392    1404      22    1386    1389   -1392    1404      23
    1386    1389    1395    1407      22    1386    1389   -1395    1407      23
    1386    1389    1395    1410      22    1386    1389   -1395    1410      23
    1386    1389    1395    1413      22    1386    1389   -1395    1413      23
    1425    1419    1422    1428      21    1425    1419    1422    1431      21
    1425    1419    1422    1434      21    1422    1419    1425    1437      21
    1422    1419    1425    1440      21    1422    1419    1425    1443      21
    1416    1419    1422    1428      22    1416    1419   -1422    1428      23
    1416    1419    1422    1431      22    1416    1419   -1422    1431      23
    1416    1419    1422    1434      22    1416    1419   -1422    1434      23
    1416    1419    1425    1437      22    1416    1419   -1425    1437      23
    1416    1419    1425    1440      22    1416    1419   -1425    1440      23
    1416    1419    1425    1443      22    1416    1419   -1425    1443      23
    1455    1449    1452    1458      21    1455    1449    1452    1461      21
    1455    1449    1452    1464      21    1452    1449    1455    1467      21
    1452    1449    1455    1470      21    1452    1449    1455    1473      21
    1446    1449    1452    1458      22    1446    1449   -1452    1458      23
    1446    1449    1452    1461      22    1446    1449   -1452    1461      23
    1446    1449    1452    1464      22    1446    1449   -1452    1464      23
    1446    1449    1455    1467      22    1446    1449   -1455    1467      23
    1446    1449    1455    1470      22    1446    1449   -1455    1470      23
    1446    1449    1455    1473      22    1446    1449   -1455    1473      23
    1485    1479    1482    1488      21    1485    1479    1482    1491      21
    1485    1479    1482    1494      21    1482    1479    1485    1497      21
    1482    1479    1485    1500      21    1482    1479    1485    1503      21
    1476    1479    1482    1488      22    1476    1479   -1482    1488      23
    1476    1479    1482    1491      22    1476    1479   -1482    1491      23
    1476    1479    1482    1494      22    1476    1479   -1482    1494      23
    1476    1479    1485    1497      22    1476    1479   -1485    1497      23
    1476    1479    1485    1500      22    1476    1479   -1485    1500      23
    1476    1479    1485    1503      22    1476    1479   -1485    1503      23
    1515    1509    1512    1518      21    1515    1509    1512    1521      21
    1515    1509    1512    1524      21    1512    1509    1515    1527      21
    1512    1509    1515    1530      21    1512    1509    1515    1533      21
    1506    1509    1512    1518      22    1506    1509   -1512    1518      23
    1506    1509    1512    1521      22    1506    1509   -1512    1521      23
    1506    1509    1512    1524      22    1506    1509   -1512    1524      23
    1506    1509    1515    1527      22    1506    1509   -1515    1527      23
    1506    1509    1515    1530      22    1506    1509   -1515    1530      23
    1506    1509    1515    1533      22    1506    1509   -1515    1533      23
    1545    1539    1542    1548      21    1545    1539    1542    1551      21
    1545    1539    1542    1554      21    1542    1539    1545    1557      21
    1542    1539    1545    1560      21    1542    1539    1545    1563      21
    1536    1539    1542    1548      22    1536    1539   -1542    1548      23
    1536    1539    1542    1551      22    1536    1539   -1542    1551      23
    1536    1539    1542    1554      22    1536    1539   -1542    1554      23
    1536    1539    1545    1557      22    1536    1539   -1545    1557      23
    1536    1539    1545    1560      22    1536    1539   -1545    1560      23
    1536    1539    1545    1563      22    1536    1539   -1545    1563      23
    1575    1569    1572    1578      21    1575    1569    1572    1581      21
    1575    1569    1572    1584      21    1572    1569    1575    1587      21
    1572    1569    1575    1590      21    1572    1569    1575    1593      21
    1566    1569    1572    1578      22    1566    1569   -1572    1578      23
    1566    1569    1572    1581      22    1566    1569   -1572    1581      23
    1566    1569    1572    1584      22    1566    1569   -1572    1584      23
    1566    1569    1575    1587      22    1566    1569   -1575    1587      23
    1566    1569    1575    1590      22    1566    1569   -1575    1590      23
    1566    1569    1575    1593      22    1566    1569   -1575    1593      23
    1605    1599    1602    1608      21    1605    1599    1602    1611      21
    1605    1599    1602    1614      21    1602    1599    1605    1617      21
    1602    1599    1605    1620      21    1602    1599    1605    1623      21
    1596    1599    1602    1608      22    1596    1599   -1602    1608      23
    1596    1599    1602    1611      22    1596    1599   -1602    1611      23
    1596    1599    1602    1614      22    1596    1599   -1602    1614      23
    1596    1599    1605    1617      22    1596    1599   -1605    1617      23
    1596    1599    1605    1620      22    1596    1599   -1605    1620      23
    1596    1599    1605    1623      22    1596    1599   -1605    1623      23
    1635    1629    1632    1638      21    1635    1629    1632    1641      21
    1635    1629    1632    1644      21    1632    1629    1635    1647      21
    1632    1629    1635    1650      21    1632    1629    1635    1653      21
    1626    1629    1632    1638      22    1626    1629   -1632    1638      23
    1626    1629    1632    1641      22    1626    1629   -1632    1641      23
    1626    1629    1632    1644      22    1626    1629   -1632    1644      23
    1626    1629    1635    1647      22    1626    1629   -1635    1647      23
    1626    1629    1635    1650      22    1626    1629   -1635    1650      23
    1626    1629    1635    1653      22    1626    1629   -1635    1653      23
    1665    1659    1662    1668      21    1665    1659    1662    1671      21
    1665    1659    1662    1674      21    1662    1659    1665    1677      21
    1662    1659    1665    1680      21    1662    1659    1665    1683      21
    1656    1659    1662    1668      22    1656    1659   -1662    1668      23
    1656    1659    1662    1671      22    1656    1659   -1662    1671      23
    1656    1659    1662    1674      22    1656    1659   -1662    1674      23
    1656    1659    1665    1677      22    1656    1659   -1665    1677      23
    1656    1659    1665    1680      22    1656    1659   -1665    1680      23
    1656    1659    1665    1683      22    1656    1659   -1665    1683      23
    1695    1689    1692    1698      21    1695    1689    1692    1701      21
    1695    1689    1692    1704      21    1692    1689    1695    1707      21
    1692    1689    1695    1710      21    1692    1689    1695    1713      21
    1686    1689    1692    1698      22    1686    1689   -1692    1698      23
    1686    1689    1692    1701      22    1686    1689   -1692    1701      23
    1686    1689    1692    1704      22    1686    1689   -1692    1704      23
    1686    1689    1695    1707      22    1686    1689   -1695    1707      23
    1686    1689    1695    1710      22    1686    1689   -1695    1710      23
    1686    1689    1695    1713      22    1686    1689   -1695    1713      23
    1725    1719    1722    1728      21    1725    1719    1722    1731      21
    1725    1719    1722    1734      21    1722    1719    1725    1737      21
    1722    1719    1725    1740      21    1722    1719    1725    1743      21
    1716    1719    1722    1728      22    1716    1719   -1722    1728      23
    1716    1719    1722    1731      22    1716    1719   -1722    1731      23
    1716    1719    1722    1734      22    1716    1719   -1722    1734      23
    1716    1719    1725    1737      22    1716    1719   -1725    1737      23
    1716    1719    1725    1740      22    1716    1719   -1725    1740      23
    1716    1719    1725    1743      22    1716    1719   -1725    1743      23
    1755    1749    1752    1758      21    1755    1749    1752    1761      21
    1755    1749    1752    1764      21    1752    1749    1755    1767      21
    1752    1749    1755    1770      21    1752    1749    1755    1773      21
    1746    1749    1752    1758      22    1746    1749   -1752    1758      23
    1746    1749    1752    1761      22    1746    1749   -1752    1761      23
    1746    1749    1752    1764      22    1746    1749   -1752    1764      23
    1746    1749    1755    1767      22    1746    1749   -1755    1767      23
    1746    1749    1755    1770      22    1746    1749   -1755    1770      23
    1746    1749    1755    1773      22    1746    1749   -1755    1773      23
    1785    1779    1782    1788      21    1785    1779    1782    1791      21
    1785    1779    1782    1794      21    1782    1779    1785    1797      21
    1782    1779    1785    1800      21    1782    1779    1785    1803      21
    1776    1779    1782    1788      22    1776    1779   -1782    1788      23
    1776    1779    1782    1791      22    1776    1779   -1782    1791      23
    1776    1779    1782    1794      22    1776    1779   -1782    1794      23
    1776    1779    1785    1797      22    1776    1779   -1785    1797      23
    1776    1779    1785    1800      22    1776    1779   -1785    1800      23
    1776    1779    1785    1803      22    1776    1779   -1785    1803      23
    1815    1809    1812    1818      21    1815    1809    1812    1821      21
    1815    1809    1812    1824      21    1812    1809    1815    1827      21
    1812    1809    1815    1830      21    1812    1809    1815    1833      21
    1806    1809    1812    1818      22    1806    1809   -1812    1818      23
    1806    1809    1812    1821      22    1806    1809   -1812    1821      23
    1806    1809    1812    1824      22    1806    1809   -1812    1824      23
    1806    1809    1815    1827      22    1806    1809   -1815    1827      23
    1806    1809    1815    1830      22    1806    1809   -1815    1830      23
    1806    1809    1815    1833      22    1806    1809   -1815    1833      23
    1845    1839    1842    1848      21    1845    1839    1842    1851      21
    1845    1839    1842    1854      21    1842    1839    1845    1857      21
    1842    1839    1845    1860      21    1842    1839    1845    1863      21
    1836    1839    1842    1848      22    1836    1839   -1842    1848      23
    1836    1839    1842    1851      22    1836    1839   -1842    1851      23
    1836    1839    1842    1854      22    1836    1839   -1842    1854      23
    1836    1839    1845    1857      22    1836    1839   -1845    1857      23
    1836    1839    1845    1860      22    1836    1839   -1845    1860      23
    1836    1839    1845    1863      22    1836    1839   -1845    1863      23
    1875    1869    1872    1878      21    1875    1869    1872    1881      21
    1875    1869    1872    1884      21    1872    1869    1875    1887      21
    1872    1869    1875    1890      21    1872    1869    1875    1893      21
    1866    1869    1872    1878      22    1866    1869   -1872    1878      23
    1866    1869    1872    1881      22    1866    1869   -1872    1881      23
    1866    1869    1872    1884      22    1866    1869   -1872    1884      23
    1866    1869    1875    1887      22    1866    1869   -1875    1887      23
    1866    1869    1875    1890      22    1866    1869   -1875    1890      23
    1866    1869    1875    1893      22    1866    1869   -1875    1893      23
    1905    1899    1902    1908      21    1905    1899    1902    1911      21
    1905    1899    1902    1914      21    1902    1899    1905    1917      21
    1902    1899    1905    1920      21    1902    1899    1905    1923      21
    1896    1899    1902    1908      22    1896    1899   -1902    1908      23
    1896    1899    1902    1911      22    1896    1899   -1902    1911      23
    1896    1899    1902    1914      22    1896    1899   -1902    1914      23
    1896    1899    1905    1917      22    1896    1899   -1905    1917      23
    1896    1899    1905    1920      22    1896    1899   -1905    1920      23
    1896    1899    1905    1923      22    1896    1899   -1905    1923      23
    1935    1929    1932    1938      21    1935    1929    1932    1941      21
    1935    1929    1932    1944      21    1932    1929    1935    1947      21
    1932    1929    1935    1950      21    1932    1929    1935    1953      21
    1926    1929    1932    1938      22    1926    1929   -1932    1938      23
    1926    1929    1932    1941      22    1926    1929   -1932    1941      23
    1926    1929    1932    1944      22    1926    1929   -1932    1944      23
    1926    1929    1935    1947      22    1926    1929   -1935    1947      23
    1926    1929    1935    1950      22    1926    1929   -1935    1950      23
    1926    1929    1935    1953      22    1926    1929   -1935    1953      23
    1965    1959    1962    1968      21    1965    1959    1962    1971      21
    1965    1959    1962    1974      21    1962    1959    1965    1977      21
    1962    1959    1965    1980      21    1962    1959    1965    1983      21
    1956    1959    1962    1968      22    1956    1959   -1962    1968      23
    1956    1959    1962    1971      22    1956    1959   -1962    1971      23
    1956    1959    1962    1974      22    1956    1959   -1962    1974      23
    1956    1959    1965    1977      22    1956    1959   -1965    1977      23
    1956    1959    1965    1980      22    1956    1959   -1965    1980      23
    1956    1959    1965    1983      22    1956    1959   -1965    1983      23
    1995    1989    1992    1998      21    1995    1989    1992    2001      21
    1995    1989    1992    2004      21    1992    1989    1995    2007      21
    1992    1989    1995    2010      21    1992    1989    1995    2013      21
    1986    1989    1992    1998      22    1986    1989   -1992    1998      23
    1986    1989    1992    2001      22    1986    1989   -1992    2001      23
    1986    1989    1992    2004      22    1986    1989   -1992    2004      23
    1986    1989    1995    2007      22    1986    1989   -1995    2007      23
    1986    1989    1995    2010      22    1986    1989   -1995    2010      23
    1986    1989    1995    2013      22    1986    1989   -1995    2013      23
    2025    2019    2022    2028      21    2025    2019    2022    2031      21
    2025    2019    2022    2034      21    2022    2019    2025    2037      21
    2022    2019    2025    2040      21    2022    2019    2025    2043      21
    2016    2019    2022    2028      22    2016    2019   -2022    2028      23
    2016    2019    2022    2031      22    2016    2019   -2022    2031      23
    2016    2019    2022    2034      22    2016    2019   -2022    2034      23
    2016    2019    2025    2037      22    2016    2019   -2025    2037      23
    2016    2019    2025    2040      22    2016    2019   -2025    2040      23
    2016    2019    2025    2043      22    2016    2019   -2025    2043      23
    2055    2049    2052    2058      21    2055    2049    2052    2061      21
    2055    2049    2052    2064      21    2052    2049    2055    2067      21
    2052    2049    2055    2070      21    2052    2049    2055    2073      21
    2046    2049    2052    2058      22    2046    2049   -2052    2058      23
    2046    2049    2052    2061      22    2046    2049   -2052    2061      23
    2046    2049    2052    2064      22    2046    2049   -2052    2064      23
    2046    2049    2055    2067      22    2046    2049   -2055    2067      23
    2046    2049    2055    2070      22    2046    2049   -2055    2070      23
    2046    2049    2055    2073      22    2046    2049   -2055    2073      23
    2085    2079    2082    2088      21    2085    2079    2082    2091      21
    2085    2079    2082    2094      21    2082    2079    2085    2097      21
    2082    2079    2085    2100      21    2082    2079    2085    2103      21
    2076    2079    2082    2088      22    2076    2079   -2082    2088      23
    2076    2079    2082    2091      22    2076    2079   -2082    2091      23
    2076    2079    2082    2094      22    2076    2079   -2082    2094      23
    2076    2079    2085    2097      22    2076    2079   -2085    2097      23
    2076    2079    2085    2100      22    2076    2079   -2085    2100      23
    2076    2079    2085    2103      22    2076    2079   -2085    2103      23
    2115    2109    2112    2118      21    2115    2109    2112    2121      21
    2115    2109    2112    2124      21    2112    2109    2115    2127      21
    2112    2109    2115    2130      21    2112    2109    2115    2133      21
    2106    2109    2112    2118      22    2106    2109   -2112    2118      23
    2106    2109    2112    2121      22    2106    2109   -2112    2121      23
    2106    2109    2112    2124      22    2106    2109   -2112    2124      23
    2106    2109    2115    2127      22    2106    2109   -2115    2127      23
    2106    2109    2115    2130      22    2106    2109   -2115    2130      23
    2106    2109    2115    2133      22    2106    2109   -2115    2133      23
    2145    2139    2142    2148      21    2145    2139    2142    2151      21
    2145    2139    2142    2154      21    2142    2139    2145    2157      21
    2142    2139    2145    2160      21    2142    2139    2145    2163      21
    2136    2139    2142    2148      22    2136    2139   -2142    2148      23
    2136    2139    2142    2151      22    2136    2139   -2142    2151      23
    2136    2139    2142    2154      22    2136    2139   -2142    2154      23
    2136    2139    2145    2157      22    2136    2139   -2145    2157      23
    2136    2139    2145    2160      22    2136    2139   -2145    2160      23
    2136    2139    2145    2163      22    2136    2139   -2145    2163      23
    2175    2169    2172    2178      21    2175    2169    2172    2181      21
    2175    2169    2172    2184      21    2172    2169    2175    2187      21
    2172    2169    2175    2190      21    2172    2169    2175    2193      21
    2166    2169    2172    2178      22    2166    2169   -2172    2178      23
    2166    2169    2172    2181      22    2166    2169   -2172    2181      23
    2166    2169    2172    2184      22    2166    2169   -2172    2184      23
    2166    2169    2175    2187      22    2166    2169   -2175    2187      23
    2166    2169    2175    2190      22    2166    2169   -2175    2190      23
    2166    2169    2175    2193      22    2166    2169   -2175    2193      23
    2205    2199    2202    2208      21    2205    2199    2202    2211      21
    2205    2199    2202    2214      21    2202    2199    2205    2217      21
    2202    2199    2205    2220      21    2202    2199    2205    2223      21
    2196    2199    2202    2208      22    2196    2199   -2202    2208      23
    2196    2199    2202    2211      22    2196    2199   -2202    2211      23
    2196    2199    2202    2214      22    2196    2199   -2202    2214      23
    2196    2199    2205    2217      22    2196    2199   -2205    2217      23
    2196    2199    2205    2220      22    2196    2199   -2205    2220      23
    2196    2199    2205    2223      22    2196    2199   -2205    2223      23
    2235    2229    2232    2238      21    2235    2229    2232    2241      21
    2235    2229    2232    2244      21    2232    2229    2235    2247      21
    2232    2229    2235    2250      21    2232    2229    2235    2253      21
    2226    2229    2232    2238      22    2226    2229   -2232    2238      23
    2226    2229    2232    2241      22    2226    2229   -2232    2241      23
    2226    2229    2232    2244      22    2226    2229   -2232    2244      23
    2226    2229    2235    2247      22    2226    2229   -2235    2247      23
    2226    2229    2235    2250      22    2226    2229   -2235    2250      23
    2226    2229    2235    2253      22    2226    2229   -2235    2253      23
    2265    2259    2262    2268      21    2265    2259    2262    2271      21
    2265    2259    2262    2274      21    2262    2259    2265    2277      21
    2262    2259    2265    2280      21    2262    2259    2265    2283      21
    2256    2259    2262    2268      22    2256    2259   -2262    2268      23
    2256    2259    2262    2271      22    2256    2259   -2262    2271      23
    2256    2259    2262    2274      22    2256    2259   -2262    2274      23
    2256    2259    2265    2277      22    2256    2259   -2265    2277      23
    2256    2259    2265    2280      22    2256    2259   -2265    2280      23
    2256    2259    2265    2283      22    2256    2259   -2265    2283      23
    2295    2289    2292    2298      21    2295    2289    2292    2301      21
    2295    2289    2292    2304      21    2292    2289    2295    2307      21
    2292    2289    2295    2310      21    2292    2289    2295    2313      21
    2286    2289    2292    2298      22    2286    2289   -2292    2298      23
    2286    2289    2292    2301      22    2286    2289   -2292    2301      23
    2286    2289    2292    2304      22    2286    2289   -2292    2304      23
    2286    2289    2295    2307      22    2286    2289   -2295    2307      23
    2286    2289    2295    2310      22    2286    2289   -2295    2310      23
    2286    2289    2295    2313      22    2286    2289   -2295    2313      23
    2325    2319    2322    2328      21    2325    2319    2322    2331      21
    2325    2319    2322    2334      21    2322    2319    2325    2337      21
    2322    2319    2325    2340      21    2322    2319    2325    2343      21
    2316    2319    2322    2328      22    2316    2319   -2322    2328      23
    2316    2319    2322    2331      22    2316    2319   -2322    2331      23
    2316    2319    2322    2334      22    2316    2319   -2322    2334      23
    2316    2319    2325    2337      22    2316    2319   -2325    2337      23
    2316    2319    2325    2340      22    2316    2319   -2325    2340      23
    2316    2319    2325    2343      22    2316    2319   -2325    2343      23
    2355    2349    2352    2358      21    2355    2349    2352    2361      21
    2355    2349    2352    2364      21    2352    2349    2355    2367      21
    2352    2349    2355    2370      21    2352    2349    2355    2373      21
    2346    2349    2352    2358      22    2346    2349   -2352    2358      23
    2346    2349    2352    2361      22    2346    2349   -2352    2361      23
    2346    2349    2352    2364      22    2346    2349   -2352    2364      23
    2346    2349    2355    2367      22    2346    2349   -2355    2367      23
    2346    2349    2355    2370      22    2346    2349   -2355    2370      23
    2346    2349    2355    2373      22    2346    2349   -2355    2373      23
    2385    2379    2382    2388      21    2385    2379    2382    2391      21
    2385    2379    2382    2394      21    2382    2379    2385    2397      21
    2382    2379    2385    2400      21    2382    2379    2385    2403      21
    2376    2379    2382    2388      22    2376    2379   -2382    2388      23
    2376    2379    2382    2391      22    2376    2379   -2382    2391      23
    2376    2379    2382    2394      22    2376    2379   -2382    2394      23
    2376    2379    2385    2397      22    2376    2379   -2385    2397      23
    2376    2379    2385    2400      22    2376    2379   -2385    2400      23
    2376    2379    2385    2403      22    2376    2379   -2385    2403      23
    2415    2409    2412    2418      21    2415    2409    2412    2421      21
    2415    2409    2412    2424      21    2412    2409    2415    2427      21
    2412    2409    2415    2430      21    2412    2409    2415    2433      21
    2406    2409    2412    2418      22    2406    2409   -2412    2418      23
    2406    2409    2412    2421      22    2406    2409   -2412    2421      23
    2406    2409    2412    2424      22    2406    2409   -2412    2424      23
    2406    2409    2415    2427      22    2406    2409   -2415    2427      23
    2406    2409    2415    2430      22    2406    2409   -2415    2430      23
    2406    2409    2415    2433      22    2406    2409   -2415    2433      23
    2445    2439    2442    2448      21    2445    2439    2442    2451      21
    2445    2439    2442    2454      21    2442    2439    2445    2457      21
    2442    2439    2445    2460      21    2442    2439    2445    2463      21
    2436    2439    2442    2448      22    2436    2439   -2442    2448      23
    2436    2439    2442    2451      22    2436    2439   -2442    2451      23
    2436    2439    2442    2454      22    2436    2439   -2442    2454      23
    2436    2439    2445    2457      22    2436    2439   -2445    2457      23
    2436    2439    2445    2460      22    2436    2439   -2445    2460      23
    2436    2439    2445    2463      22    2436    2439   -2445    2463      23
    2475    2469    2472    2478      21    2475    2469    2472    2481      21
    2475    2469    2472    2484      21    2472    2469    2475    2487      21
    2472    2469    2475    2490      21    2472    2469    2475    2493      21
    2466    2469    2472    2478      22    2466    2469   -2472    2478      23
    2466    2469    2472    2481      22    2466    2469   -2472    2481      23
    2466    2469    2472    2484      22    2466    2469   -2472    2484      23
    2466    2469    2475    2487      22    2466    2469   -2475    2487      23
    2466    2469    2475    2490      22    2466    2469   -2475    2490      23
    2466    2469    2475    2493      22    2466    2469   -2475    2493      23
    2505    2499    2502    2508      21    2505    2499    2502    2511      21
    2505    2499    2502    2514      21    2502    2499    2505    2517      21
    2502    2499    2505    2520      21    2502    2499    2505    2523      21
    2496    2499    2502    2508      22    2496    2499   -2502    2508      23
    2496    2499    2502    2511      22    2496    2499   -2502    2511      23
    2496    2499    2502    2514      22    2496    2499   -2502    2514      23
    2496    2499    2505    2517      22    2496    2499   -2505    2517      23
    2496    2499    2505    2520      22    2496    2499   -2505    2520      23
    2496    2499    2505    2523      22    2496    2499   -2505    2523      23
    2535    2529    2532    2538      21    2535    2529    2532    2541      21
    2535    2529    2532    2544      21    2532    2529    2535    2547      21
    2532    2529    2535    2550      21    2532    2529    2535    2553      21
    2526    2529    2532    2538      22    2526    2529   -2532    2538      23
    2526    2529    2532    2541      22    2526    2529   -2532    2541      23
    2526    2529    2532    2544      22    2526    2529   -2532    2544      23
    2526    2529    2535    2547      22    2526    2529   -2535    2547      23
    2526    2529    2535    2550      22    2526    2529   -2535    2550      23
    2526    2529    2535    2553      22    2526    2529   -2535    2553      23
    2565    2559    2562    2568      21    2565    2559    2562    2571      21
    2565    2559    2562    2574      21    2562    2559    2565    2577      21
    2562    2559    2565    2580      21    2562    2559    2565    2583      21
    2556    2559    2562    2568      22    2556    2559   -2562    2568      23
    2556    2559    2562    2571      22    2556    2559   -2562    2571      23
    2556    2559    2562    2574      22    2556    2559   -2562    2574      23
    2556    2559    2565    2577      22    2556    2559   -2565    2577      23
    2556    2559    2565    2580      22    2556    2559   -2565    2580      23
    2556    2559    2565    2583      22    2556    2559   -2565    2583      23
    2595    2589    2592    2598      21    2595    2589    2592    2601      21
    2595    2589    2592    2604      21    2592    2589    2595    2607      21
    2592    2589    2595    2610      21    2592    2589    2595    2613      21
    2586    2589    2592    2598      22    2586    2589   -2592    2598      23
    2586    2589    2592    2601      22    2586    2589   -2592    2601      23
    2586    2589    2592    2604      22    2586    2589   -2592    2604      23
    2586    2589    2595    2607      22    2586    2589   -2595    2607      23
    2586    2589    2595    2610      22    2586    2589   -2595    2610      23
    2586    2589    2595    2613      22    2586    2589   -2595    2613      23
    2625    2619    2622    2628      21    2625    2619    2622    2631      21
    2625    2619    2622    2634      21    2622    2619    2625    2637      21
    2622    2619    2625    2640      21    2622    2619    2625    2643      21
    2616    2619    2622    2628      22    2616    2619   -2622    2628      23
    2616    2619    2622    2631      22    2616    2619   -2622    2631      23
    2616    2619    2622    2634      22    2616    2619   -2622    2634      23
    2616    2619    2625    2637      22    2616    2619   -2625    2637      23
    2616    2619    2625    2640      22    2616    2619   -2625    2640      23
    2616    2619    2625    2643      22    2616    2619   -2625    2643      23
    2655    2649    2652    2658      21    2655    2649    2652    2661      21
    2655    2649    2652    2664      21    2652    2649    2655    2667      21
    2652    2649    2655    2670      21    2652    2649    2655    2673      21
    2646    2649    2652    2658      22    2646    2649   -2652    2658      23
    2646    2649    2652    2661      22    2646    2649   -2652    2661      23
    2646    2649    2652    2664      22    2646    2649   -2652    2664      23
    2646    2649    2655    2667      22    2646    2649   -2655    2667      23
    2646    2649    2655    2670      22    2646    2649   -2655    2670      23
    2646    2649    2655    2673      22    2646    2649   -2655    2673      23
    2685    2679    2682    2688      21    2685    2679    2682    2691      21
    2685    2679    2682    2694      21    2682    2679    2685    2697      21
    2682    2679    2685    2700      21    2682    2679    2685    2703      21
    2676    2679    2682    2688      22    2676    2679   -2682    2688      23
    2676    2679    2682    2691      22    2676    2679   -2682    2691      23
    2676    2679    2682    2694      22    2676    2679   -2682    2694      23
    2676    2679    2685    2697      22    2676    2679   -2685    2697      23
    2676    2679    2685    2700      22    2676    2679   -2685    2700      23
    2676    2679    2685    2703      22    2676    2679   -2685    2703      23
    2715    2709    2712    2718      21    2715    2709    2712    2721      21
    2715    2709    2712    2724      21    2712    2709    2715    2727      21
    2712    2709    2715    2730      21    2712    2709    2715    2733      21
    2706    2709    2712    2718      22    2706    2709   -2712    2718      23
    2706    2709    2712    2721      22    2706    2709   -2712    2721      23
    2706    2709    2712    2724      22    2706    2709   -2712    2724      23
    2706    2709    2715    2727      22    2706    2709   -2715    2727      23
    2706    2709    2715    2730      22    2706    2709   -2715    2730      23
    2706    2709    2715    2733      22    2706    2709   -2715    2733      23
    2745    2739    2742    2748      21    2745    2739    2742    2751      21
    2745    2739    2742    2754      21    2742    2739    2745    2757      21
    2742    2739    2745    2760      21    2742    2739    2745    2763      21
    2736    2739    2742    2748      22    2736    2739   -2742    2748      23
    2736    2739    2742    2751      22    2736    2739   -2742    2751      23
    2736    2739    2742    2754      22    2736    2739   -2742    2754      23
    2736    2739    2745    2757      22    2736    2739   -2745    2757      23
    2736    2739    2745    2760      22    2736    2739   -2745    2760      23
    2736    2739    2745    2763      22    2736    2739   -2745    2763      23
    2775    2769    2772    2778      21    2775    2769    2772    2781      21
    2775    2769    2772    2784      21    2772    2769    2775    2787      21
    2772    2769    2775    2790      21    2772    2769    2775    2793      21
    2766    2769    2772    2778      22    2766    2769   -2772    2778      23
    2766    2769    2772    2781      22    2766    2769   -2772    2781      23
    2766    2769    2772    2784      22    2766    2769   -2772    2784      23
    2766    2769    2775    2787      22    2766    2769   -2775    2787      23
    2766    2769    2775    2790      22    2766    2769   -2775    2790      23
    2766    2769    2775    2793      22    2766    2769   -2775    2793      23
    2805    2799    2802    2808      21    2805    2799    2802    2811      21
    2805    2799    2802    2814      21    2802    2799    2805    2817      21
    2802    2799    2805    2820      21    2802    2799    2805    2823      21
    2796    2799    2802    2808      22    2796    2799   -2802    2808      23
    2796    2799    2802    2811      22    2796    2799   -2802    2811      23
    2796    2799    2802    2814      22    2796    2799   -2802    2814      23
    2796    2799    2805    2817      22    2796    2799   -2805    2817      23
    2796    2799    2805    2820      22    2796    2799   -2805    2820      23
    2796    2799    2805    2823      22    2796    2799   -2805    2823      23
    2835    2829    2832    2838      21    2835    2829    2832    2841      21
    2835    2829    2832    2844      21    2832    2829    2835    2847      21
    2832    2829    2835    2850      21    2832    2829    2835    2853      21
    2826    2829    2832    2838      22    2826    2829   -2832    2838      23
    2826    2829    2832    2841      22    2826    2829   -2832    2841      23
    2826    2829    2832    2844      22    2826    2829   -2832    2844      23
    2826    2829    2835    2847      22    2826    2829   -2835    2847      23
    2826    2829    2835    2850      22    2826    2829   -2835    2850      23
    2826    2829    2835    2853      22    2826    2829   -2835    2853      23
    2865    2859    2862    2868      21    2865    2859    2862    2871      21
    2865    2859    2862    2874      21    2862    2859    2865    2877      21
    2862    2859    2865    2880      21    2862    2859    2865    2883      21
    2856    2859    2862    2868      22    2856    2859   -2862    2868      23
    2856    2859    2862    2871      22    2856    2859   -2862    2871      23
    2856    2859    2862    2874      22    2856    2859   -2862    2874      23
    2856    2859    2865    2877      22    2856    2859   -2865    2877      23
    2856    2859    2865    2880      22    2856    2859   -2865    2880      23
    2856    2859    2865    2883      22    2856    2859   -2865    2883      23
    2895    2889    2892    2898      21    2895    2889    2892    2901      21
    2895    2889    2892    2904      21    2892    2889    2895    2907      21
    2892    2889    2895    2910      21    2892    2889    2895    2913      21
    2886    2889    2892    2898      22    2886    2889   -2892    2898      23
    2886    2889    2892    2901      22    2886    2889   -2892    2901      23
    2886    2889    2892    2904      22    2886    2889   -2892    2904      23
    2886    2889    2895    2907      22    2886    2889   -2895    2907      23
    2886    2889    2895    2910      22    2886    2889   -2895    2910      23
    2886    2889    2895    2913      22    2886    2889   -2895    2913      23
    2925    2919    2922    2928      21    2925    2919    2922    2931      21
    2925    2919    2922    2934      21    2922    2919    2925    2937      21
    2922    2919    2925    2940      21    2922    2919    2925    2943      21
    2916    2919    2922    2928      22    2916    2919   -2922    2928      23
    2916    2919    2922    2931      22    2916    2919   -2922    2931      23
    2916    2919    2922    2934      22    2916    2919   -2922    2934      23
    2916    2919    2925    2937      22    2916    2919   -2925    2937      23
    2916    2919    2925    2940      22    2916    2919   -2925    2940      23
    2916    2919    2925    2943      22    2916    2919   -2925    2943      23
    2955    2949    2952    2958      21    2955    2949    2952    2961      21
    2955    2949    2952    2964      21    2952    2949    2955    2967      21
    2952    2949    2955    2970      21    2952    2949    2955    2973      21
    2946    2949    2952    2958      22    2946    2949   -2952    2958      23
    2946    2949    2952    2961      22    2946    2949   -2952    2961      23
    2946    2949    2952    2964      22    2946    2949   -2952    2964      23
    2946    2949    2955    2967      22    2946    2949   -2955    2967      23
    2946    2949    2955    2970      22    2946    2949   -2955    2970      23
    2946    2949    2955    2973      22    2946    2949   -2955    2973      23
    2985    2979    2982    2988      21    2985    2979    2982    2991      21
    2985    2979    2982    2994      21    2982    2979    2985    2997      21
    2982    2979    2985    3000      21    2982    2979    2985    3003      21
    2976    2979    2982    2988      22    2976    2979   -2982    2988      23
    2976    2979    2982    2991      22    2976    2979   -2982    2991      23
    2976    2979    2982    2994      22    2976    2979   -2982    2994      23
    2976    2979    2985    2997      22    2976    2979   -2985    2997      23
    2976    2979    2985    3000      22    2976    2979   -2985    3000      23
    2976    2979    2985    3003      22    2976    2979   -2985    3003      23
    3015    3009    3012    3018      21    3015    3009    3012    3021      21
    3015    3009    3012    3024      21    3012    3009    3015    3027      21
    3012    3009    3015    3030      21    3012    3009    3015    3033      21
    3006    3009    3012    3018      22    3006    3009   -3012    3018      23
    3006    3009    3012    3021      22    3006    3009   -3012    3021      23
    3006    3009    3012    3024      22    3006    3009   -3012    3024      23
    3006    3009    3015    3027      22    3006    3009   -3015    3027      23
    3006    3009    3015    3030      22    3006    3009   -3015    3030      23
    3006    3009    3015    3033      22    3006    3009   -3015    3033      23
    3045    3039    3042    3048      21    3045    3039    3042    3051      21
    3045    3039    3042    3054      21    3042    3039    3045    3057      21
    3042    3039    3045    3060      21    3042    3039    3045    3063      21
    3036    3039    3042    3048      22    3036    3039   -3042    3048      23
    3036    3039    3042    3051      22    3036    3039   -3042    3051      23
    3036    3039    3042    3054      22    3036    3039   -3042    3054      23
    3036    3039    3045    3057      22    3036    3039   -3045    3057      23
    3036    3039    3045    3060      22    3036    3039   -3045    3060      23
    3036    3039    3045    3063      22    3036    3039   -3045    3063      23
    3075    3069    3072    3078      21    3075    3069    3072    3081      21
    3075    3069    3072    3084      21    3072    3069    3075    3087      21
    3072    3069    3075    3090      21    3072    3069    3075    3093      21
    3066    3069    3072    3078      22    3066    3069   -3072    3078      23
    3066    3069    3072    3081      22    3066    3069   -3072    3081      23
    3066    3069    3072    3084      22    3066    3069   -3072    3084      23
    3066    3069    3075    3087      22    3066    3069   -3075    3087      23
    3066    3069    3075    3090      22    3066    3069   -3075    3090      23
    3066    3069    3075    3093      22    3066    3069   -3075    3093      23
    3105    3099    3102    3108      21    3105    3099    3102    3111      21
    3105    3099    3102    3114      21    3102    3099    3105    3117      21
    3102    3099    3105    3120      21    3102    3099    3105    3123      21
    3096    3099    3102    3108      22    3096    3099   -3102    3108      23
    3096    3099    3102    3111      22    3096    3099   -3102    3111      23
    3096    3099    3102    3114      22    3096    3099   -3102    3114      23
    3096    3099    3105    3117      22    3096    3099   -3105    3117      23
    3096    3099    3105    3120      22    3096    3099   -3105    3120      23
    3096    3099    3105    3123      22    3096    3099   -3105    3123      23
    3135    3129    3132    3138      21    3135    3129    3132    3141      21
    3135    3129    3132    3144      21    3132    3129    3135    3147      21
    3132    3129    3135    3150      21    3132    3129    3135    3153      21
    3126    3129    3132    3138      22    3126    3129   -3132    3138      23
    3126    3129    3132    3141      22    3126    3129   -3132    3141      23
    3126    3129    3132    3144      22    3126    3129   -3132    3144      23
    3126    3129    3135    3147      22    3126    3129   -3135    3147      23
    3126    3129    3135    3150      22    3126    3129   -3135    3150      23
    3126    3129    3135    3153      22    3126    3129   -3135    3153      23
    3165    3159    3162    3168      21    3165    3159    3162    3171      21
    3165    3159    3162    3174      21    3162    3159    3165    3177      21
    3162    3159    3165    3180      21    3162    3159    3165    3183      21
    3156    3159    3162    3168      22    3156    3159   -3162    3168      23
    3156    3159    3162    3171      22    3156    3159   -3162    3171      23
    3156    3159    3162    3174      22    3156    3159   -3162    3174      23
    3156    3159    3165    3177      22    3156    3159   -3165    3177      23
    3156    3159    3165    3180      22    3156    3159   -3165    3180      23
    3156    3159    3165    3183      22    3156    3159   -3165    3183      23
    3195    3189    3192    3198      21    3195    3189    3192    3201      21
    3195    3189    3192    3204      21    3192    3189    3195    3207      21
    3192    3189    3195    3210      21    3192    3189    3195    3213      21
    3186    3189    3192    3198      22    3186    3189   -3192    3198      23
    3186    3189    3192    3201      22    3186    3189   -3192    3201      23
    3186    3189    3192    3204      22    3186    3189   -3192    3204      23
    3186    3189    3195    3207      22    3186    3189   -3195    3207      23
    3186    3189    3195    3210      22    3186    3189   -3195    3210      23
    3186    3189    3195    3213      22    3186    3189   -3195    3213      23
    3225    3219    3222    3228      21    3225    3219    3222    3231      21
    3225    3219    3222    3234      21    3222    3219    3225    3237      21
    3222    3219    3225    3240      21    3222    3219    3225    3243      21
    3216    3219    3222    3228      22    3216    3219   -3222    3228      23
    3216    3219    3222    3231      22    3216    3219   -3222    3231      23
    3216    3219    3222    3234      22    3216    3219   -3222    3234      23
    3216    3219    3225    3237      22    3216    3219   -3225    3237      23
    3216    3219    3225    3240      22    3216    3219   -3225    3240      23
    3216    3219    3225    3243      22    3216    3219   -3225    3243      23
    3255    3249    3252    3258      21    3255    3249    3252    3261      21
    3255    3249    3252    3264      21    3252    3249    3255    3267      21
    3252    3249    3255    3270      21    3252    3249    3255    3273      21
    3246    3249    3252    3258      22    3246    3249   -3252    3258      23
    3246    3249    3252    3261      22    3246    3249   -3252    3261      23
    3246    3249    3252    3264      22    3246    3249   -3252    3264      23
    3246    3249    3255    3267      22    3246    3249   -3255    3267      23
    3246    3249    3255    3270      22    3246    3249   -3255    3270      23
    3246    3249    3255    3273      22    3246    3249   -3255    3273      23
    3285    3279    3282    3288      21    3285    3279    3282    3291      21
    3285    3279    3282    3294      21    3282    3279    3285    3297      21
    3282    3279    3285    3300      21    3282    3279    3285    3303      21
    3276    3279    3282    3288      22    3276    3279   -3282    3288      23
    3276    3279    3282    3291      22    3276    3279   -3282    3291      23
    3276    3279    3282    3294      22    3276    3279   -3282    3294      23
    3276    3279    3285    3297      22    3276    3279   -3285    3297      23
    3276    3279    3285    3300      22    3276    3279   -3285    3300      23
    3276    3279    3285    3303      22    3276    3279   -3285    3303      23
    3315    3309    3312    3318      21    3315    3309    3312    3321      21
    3315    3309    3312    3324      21    3312    3309    3315    3327      21
    3312    3309    3315    3330      21    3312    3309    3315    3333      21
    3306    3309    3312    3318      22    3306    3309   -3312    3318      23
    3306    3309    3312    3321      22    3306    3309   -3312    3321      23
    3306    3309    3312    3324      22    3306    3309   -3312    3324      23
    3306    3309    3315    3327      22    3306    3309   -3315    3327      23
    3306    3309    3315    3330      22    3306    3309   -3315    3330      23
    3306    3309    3315    3333      22    3306    3309   -3315    3333      23
    3345    3339    3342    3348      21    3345    3339    3342    3351      21
    3345    3339    3342    3354      21    3342    3339    3345    3357      21
    3342    3339    3345    3360      21    3342    3339    3345    3363      21
    3336    3339    3342    3348      22    3336    3339   -3342    3348      23
    3336    3339    3342    3351      22    3336    3339   -3342    3351      23
    3336    3339    3342    3354      22    3336    3339   -3342    3354      23
    3336    3339    3345    3357      22    3336    3339   -3345    3357      23
    3336    3339    3345    3360      22    3336    3339   -3345    3360      23
    3336    3339    3345    3363      22    3336    3339   -3345    3363      23
    3375    3369    3372    3378      21    3375    3369    3372    3381      21
    3375    3369    3372    3384      21    3372    3369    3375    3387      21
    3372    3369    3375    3390      21    3372    3369    3375    3393      21
    3366    3369    3372    3378      22    3366    3369   -3372    3378      23
    3366    3369    3372    3381      22    3366    3369   -3372    3381      23
    3366    3369    3372    3384      22    3366    3369   -3372    3384      23
    3366    3369    3375    3387      22    3366    3369   -3375    3387      23
    3366    3369    3375    3390      22    3366    3369   -3375    3390      23
    3366    3369    3375    3393      22    3366    3369   -3375    3393      23
    3405    3399    3402    3408      21    3405    3399    3402    3411      21
    3405    3399    3402    3414      21    3402    3399    3405    3417      21
    3402    3399    3405    3420      21    3402    3399    3405    3423      21
    3396    3399    3402    3408      22    3396    3399   -3402    3408      23
    3396    3399    3402    3411      22    3396    3399   -3402    3411      23
    3396    3399    3402    3414      22    3396    3399   -3402    3414      23
    3396    3399    3405    3417      22    3396    3399   -3405    3417      23
    3396    3399    3405    3420      22    3396    3399   -3405    3420      23
    3396    3399    3405    3423      22    3396    3399   -3405    3423      23
    3435    3429    3432    3438      21    3435    3429    3432    3441      21
    3435    3429    3432    3444      21    3432    3429    3435    3447      21
    3432    3429    3435    3450      21    3432    3429    3435    3453      21
    3426    3429    3432    3438      22    3426    3429   -3432    3438      23
    3426    3429    3432    3441      22    3426    3429   -3432    3441      23
    3426    3429    3432    3444      22    3426    3429   -3432    3444      23
    3426    3429    3435    3447      22    3426    3429   -3435    3447      23
    3426    3429    3435    3450      22    3426    3429   -3435    3450      23
    3426    3429    3435    3453      22    3426    3429   -3435    3453      23
    3465    3459    3462    3468      21    3465    3459    3462    3471      21
    3465    3459    3462    3474      21    3462    3459    3465    3477      21
    3462    3459    3465    3480      21    3462    3459    3465    3483      21
    3456    3459    3462    3468      22    3456    3459   -3462    3468      23
    3456    3459    3462    3471      22    3456    3459   -3462    3471      23
    3456    3459    3462    3474      22    3456    3459   -3462    3474      23
    3456    3459    3465    3477      22    3456    3459   -3465    3477      23
    3456    3459    3465    3480      22    3456    3459   -3465    3480      23
    3456    3459    3465    3483      22    3456    3459   -3465    3483      23
    3495    3489    3492    3498      21    3495    3489    3492    3501      21
    3495    3489    3492    3504      21    3492    3489    3495    3507      21
    3492    3489    3495    3510      21    3492    3489    3495    3513      21
    3486    3489    3492    3498      22    3486    3489   -3492    3498      23
    3486    3489    3492    3501      22    3486    3489   -3492    3501      23
    3486    3489    3492    3504      22    3486    3489   -3492    3504      23
    3486    3489    3495    3507      22    3486    3489   -3495    3507      23
    3486    3489    3495    3510      22    3486    3489   -3495    3510      23
    3486    3489    3495    3513      22    3486    3489   -3495    3513      23
    3525    3519    3522    3528      21    3525    3519    3522    3531      21
    3525    3519    3522    3534      21    3522    3519    3525    3537      21
    3522    3519    3525    3540      21    3522    3519    3525    3543      21
    3516    3519    3522    3528      22    3516    3519   -3522    3528      23
    3516    3519    3522    3531      22    3516    3519   -3522    3531      23
    3516    3519    3522    3534      22    3516    3519   -3522    3534      23
    3516    3519    3525    3537      22    3516    3519   -3525    3537      23
    3516    3519    3525    3540      22    3516    3519   -3525    3540      23
    3516    3519    3525    3543      22    3516    3519   -3525    3543      23
    3555    3549    3552    3558      21    3555    3549    3552    3561      21
    3555    3549    3552    3564      21    3552    3549    3555    3567      21
    3552    3549    3555    3570      21    3552    3549    3555    3573      21
    3546    3549    3552    3558      22    3546    3549   -3552    3558      23
    3546    3549    3552    3561      22    3546    3549   -3552    3561      23
    3546    3549    3552    3564      22    3546    3549   -3552    3564      23
    3546    3549    3555    3567      22    3546    3549   -3555    3567      23
    3546    3549    3555    3570      22    3546    3549   -3555    3570      23
    3546    3549    3555    3573      22    3546    3549   -3555    3573      23
    3585    3579    3582    3588      21    3585    3579    3582    3591      21
    3585    3579    3582    3594      21    3582    3579    3585    3597      21
    3582    3579    3585    3600      21    3582    3579    3585    3603      21
    3576    3579    3582    3588      22    3576    3579   -3582    3588      23
    3576    3579    3582    3591      22    3576    3579   -3582    3591      23
    3576    3579    3582    3594      22    3576    3579   -3582    3594      23
    3576    3579    3585    3597      22    3576    3579   -3585    3597      23
    3576    3579    3585    3600      22    3576    3579   -3585    3600      23
    3576    3579    3585    3603      22    3576    3579   -3585    3603      23
    3615    3609    3612    3618      21    3615    3609    3612    3621      21
    3615    3609    3612    3624      21    3612    3609    3615    3627      21
    3612    3609    3615    3630      21    3612    3609    3615    3633      21
    3606    3609    3612    3618      22    3606    3609   -3612    3618      23
    3606    3609    3612    3621      22    3606    3609   -3612    3621      23
    3606    3609    3612    3624      22    3606    3609   -3612    3624      23
    3606    3609    3615    3627      22    3606    3609   -3615    3627      23
    3606    3609    3615    3630      22    3606    3609   -3615    3630      23
    3606    3609    3615    3633      22    3606    3609   -3615    3633      23
    3645    3639    3642    3648      21    3645    3639    3642    3651      21
    3645    3639    3642    3654      21    3642    3639    3645    3657      21
    3642    3639    3645    3660      21    3642    3639    3645    3663      21
    3636    3639    3642    3648      22    3636    3639   -3642    3648      23
    3636    3639    3642    3651      22    3636    3639   -3642    3651      23
    3636    3639    3642    3654      22    3636    3639   -3642    3654      23
    3636    3639    3645    3657      22    3636    3639   -3645    3657      23
    3636    3639    3645    3660      22    3636    3639   -3645    3660      23
    3636    3639    3645    3663      22    3636    3639   -3645    3663      23
    3675    3669    3672    3678      21    3675    3669    3672    3681      21
    3675    3669    3672    3684      21    3672    3669    3675    3687      21
    3672    3669    3675    3690      21    3672    3669    3675    3693      21
    3666    3669    3672    3678      22    3666    3669   -3672    3678      23
    3666    3669    3672    3681      22    3666    3669   -3672    3681      23
    3666    3669    3672    3684      22    3666    3669   -3672    3684      23
    3666    3669    3675    3687      22    3666    3669   -3675    3687      23
    3666    3669    3675    3690      22    3666    3669   -3675    3690      23
    3666    3669    3675    3693      22    3666    3669   -3675    3693      23
    3705    3699    3702    3708      21    3705    3699    3702    3711      21
    3705    3699    3702    3714      21    3702    3699    3705    3717      21
    3702    3699    3705    3720      21    3702    3699    3705    3723      21
    3696    3699    3702    3708      22    3696    3699   -3702    3708      23
    3696    3699    3702    3711      22    3696    3699   -3702    3711      23
    3696    3699    3702    3714      22    3696    3699   -3702    3714      23
    3696    3699    3705    3717      22    3696    3699   -3705    3717      23
    3696    3699    3705    3720      22    3696    3699   -3705    3720      23
    3696    3699    3705    3723      22    3696    3699   -3705    3723      23
    3735    3729    3732    3738      21    3735    3729    3732    3741      21
    3735    3729    3732    3744      21    3732    3729    3735    3747      21
    3732    3729    3735    3750      21    3732    3729    3735    3753      21
    3726    3729    3732    3738      22    3726    3729   -3732    3738      23
    3726    3729    3732    3741      22    3726    3729   -3732    3741      23
    3726    3729    3732    3744      22    3726    3729   -3732    3744      23
    3726    3729    3735    3747      22    3726    3729   -3735    3747      23
    3726    3729    3735    3750      22    3726    3729   -3735    3750      23
    3726    3729    3735    3753      22    3726    3729   -3735    3753      23
    3765    3759    3762    3768      21    3765    3759    3762    3771      21
    3765    3759    3762    3774      21    3762    3759    3765    3777      21
    3762    3759    3765    3780      21    3762    3759    3765    3783      21
    3756    3759    3762    3768      22    3756    3759   -3762    3768      23
    3756    3759    3762    3771      22    3756    3759   -3762    3771      23
    3756    3759    3762    3774      22    3756    3759   -3762    3774      23
    3756    3759    3765    3777      22    3756    3759   -3765    3777      23
    3756    3759    3765    3780      22    3756    3759   -3765    3780      23
    3756    3759    3765    3783      22    3756    3759   -3765    3783      23
    3795    3789    3792    3798      21    3795    3789    3792    3801      21
    3795    3789    3792    3804      21    3792    3789    3795    3807      21
    3792    3789    3795    3810      21    3792    3789    3795    3813      21
    3786    3789    3792    3798      22    3786    3789   -3792    3798      23
    3786    3789    3792    3801      22    3786    3789   -3792    3801      23
    3786    3789    3792    3804      22    3786    3789   -3792    3804      23
    3786    3789    3795    3807      22    3786    3789   -3795    3807      23
    3786    3789    3795    3810      22    3786    3789   -3795    3810      23
    3786    3789    3795    3813      22    3786    3789   -3795    3813      23
    3825    3819    3822    3828      21    3825    3819    3822    3831      21
    3825    3819    3822    3834      21    3822    3819    3825    3837      21
    3822    3819    3825    3840      21    3822    3819    3825    3843      21
    3816    3819    3822    3828      22    3816    3819   -3822    3828      23
    3816    3819    3822    3831      22    3816    3819   -3822    3831      23
    3816    3819    3822    3834      22    3816    3819   -3822    3834      23
    3816    3819    3825    3837      22    3816    3819   -3825    3837      23
    3816    3819    3825    3840      22    3816    3819   -3825    3840      23
    3816    3819    3825    3843      22    3816    3819   -3825    3843      23
    3855    3849    3852    3858      21    3855    3849    3852    3861      21
    3855    3849    3852    3864      21    3852    3849    3855    3867      21
    3852    3849    3855    3870      21    3852    3849    3855    3873      21
    3846    3849    3852    3858      22    3846    3849   -3852    3858      23
    3846    3849    3852    3861      22    3846    3849   -3852    3861      23
    3846    3849    3852    3864      22    3846    3849   -3852    3864      23
    3846    3849    3855    3867      22    3846    3849   -3855    3867      23
    3846    3849    3855    3870      22    3846    3849   -3855    3870      23
    3846    3849    3855    3873      22    3846    3849   -3855    3873      23
    3885    3879    3882    3888      21    3885    3879    3882    3891      21
    3885    3879    3882    3894      21    3882    3879    3885    3897      21
    3882    3879    3885    3900      21    3882    3879    3885    3903      21
    3876    3879    3882    3888      22    3876    3879   -3882    3888      23
    3876    3879    3882    3891      22    3876    3879   -3882    3891      23
    3876    3879    3882    3894      22    3876    3879   -3882    3894      23
    3876    3879    3885    3897      22    3876    3879   -3885    3897      23
    3876    3879    3885    3900      22    3876    3879   -3885    3900      23
    3876    3879    3885    3903      22    3876    3879   -3885    3903      23
    3915    3909    3912    3918      21    3915    3909    3912    3921      21
    3915    3909    3912    3924      21    3912    3909    3915    3927      21
    3912    3909    3915    3930      21    3912    3909    3915    3933      21
    3906    3909    3912    3918      22    3906    3909   -3912    3918      23
    3906    3909    3912    3921      22    3906    3909   -3912    3921      23
    3906    3909    3912    3924      22    3906    3909   -3912    3924      23
    3906    3909    3915    3927      22    3906    3909   -3915    3927      23
    3906    3909    3915    3930      22    3906    3909   -3915    3930      23
    3906    3909    3915    3933      22    3906    3909   -3915    3933      23
    3945    3939    3942    3948      21    3945    3939    3942    3951      21
    3945    3939    3942    3954      21    3942    3939    3945    3957      21
    3942    3939    3945    3960      21    3942    3939    3945    3963      21
    3936    3939    3942    3948      22    3936    3939   -3942    3948      23
    3936    3939    3942    3951      22    3936    3939   -3942    3951      23
    3936    3939    3942    3954      22    3936    3939   -3942    3954      23
    3936    3939    3945    3957      22    3936    3939   -3945    3957      23
    3936    3939    3945    3960      22    3936    3939   -3945    3960      23
    3936    3939    3945    3963      22    3936    3939   -3945    3963      23
    3975    3969    3972    3978      21    3975    3969    3972    3981      21
    3975    3969    3972    3984      21    3972    3969    3975    3987      21
    3972    3969    3975    3990      21    3972    3969    3975    3993      21
    3966    3969    3972    3978      22    3966    3969   -3972    3978      23
    3966    3969    3972    3981      22    3966    3969   -3972    3981      23
    3966    3969    3972    3984      22    3966    3969   -3972    3984      23
    3966    3969    3975    3987      22    3966    3969   -3975    3987      23
    3966    3969    3975    3990      22    3966    3969   -3975    3990      23
    3966    3969    3975    3993      22    3966    3969   -3975    3993      23
    4005    3999    4002    4008      21    4005    3999    4002    4011      21
    4005    3999    4002    4014      21    4002    3999    4005    4017      21
    4002    3999    4005    4020      21    4002    3999    4005    4023      21
    3996    3999    4002    4008      22    3996    3999   -4002    4008      23
    3996    3999    4002    4011      22    3996    3999   -4002    4011      23
    3996    3999    4002    4014      22    3996    3999   -4002    4014      23
    3996    3999    4005    4017      22    3996    3999   -4005    4017      23
    3996    3999    4005    4020      22    3996    3999   -4005    4020      23
    3996    3999    4005    4023      22    3996    3999   -4005    4023      23
    4035    4029    4032    4038      21    4035    4029    4032    4041      21
    4035    4029    4032    4044      21    4032    4029    4035    4047      21
    4032    4029    4035    4050      21    4032    4029    4035    4053      21
    4026    4029    4032    4038      22    4026    4029   -4032    4038      23
    4026    4029    4032    4041      22    4026    4029   -4032    4041      23
    4026    4029    4032    4044      22    4026    4029   -4032    4044      23
    4026    4029    4035    4047      22    4026    4029   -4035    4047      23
    4026    4029    4035    4050      22    4026    4029   -4035    4050      23
    4026    4029    4035    4053      22    4026    4029   -4035    4053      23
    4065    4059    4062    4068      21    4065    4059    4062    4071      21
    4065    4059    4062    4074      21    4062    4059    4065    4077      21
    4062    4059    4065    4080      21    4062    4059    4065    4083      21
    4056    4059    4062    4068      22    4056    4059   -4062    4068      23
    4056    4059    4062    4071      22    4056    4059   -4062    4071      23
    4056    4059    4062    4074      22    4056    4059   -4062    4074      23
    4056    4059    4065    4077      22    4056    4059   -4065    4077      23
    4056    4059    4065    4080      22    4056    4059   -4065    4080      23
    4056    4059    4065    4083      22    4056    4059   -4065    4083      23
    4095    4089    4092    4098      21    4095    4089    4092    4101      21
    4095    4089    4092    4104      21    4092    4089    4095    4107      21
    4092    4089    4095    4110      21    4092    4089    4095    4113      21
    4086    4089    4092    4098      22    4086    4089   -4092    4098      23
    4086    4089    4092    4101      22    4086    4089   -4092    4101      23
    4086    4089    4092    4104      22    4086    4089   -4092    4104      23
    4086    4089    4095    4107      22    4086    4089   -4095    4107      23
    4086    4089    4095    4110      22    4086    4089   -4095    4110      23
    4086    4089    4095    4113      22    4086    4089   -4095    4113      23
    4125    4119    4122    4128      21    4125    4119    4122    4131      21
    4125    4119    4122    4134      21    4122    4119    4125    4137      21
    4122    4119    4125    4140      21    4122    4119    4125    4143      21
    4116    4119    4122    4128      22    4116    4119   -4122    4128      23
    4116    4119    4122    4131      22    4116    4119   -4122    4131      23
    4116    4119    4122    4134      22    4116    4119   -4122    4134      23
    4116    4119    4125    4137      22    4116    4119   -4125    4137      23
    4116    4119    4125    4140      22    4116    4119   -4125    4140      23
    4116    4119    4125    4143      22    4116    4119   -4125    4143      23
    4155    4149    4152    4158      21    4155    4149    4152    4161      21
    4155    4149    4152    4164      21    4152    4149    4155    4167      21
    4152    4149    4155    4170      21    4152    4149    4155    4173      21
    4146    4149    4152    4158      22    4146    4149   -4152    4158      23
    4146    4149    4152    4161      22    4146    4149   -4152    4161      23
    4146    4149    4152    4164      22    4146    4149   -4152    4164      23
    4146    4149    4155    4167      22    4146    4149   -4155    4167      23
    4146    4149    4155    4170      22    4146    4149   -4155    4170      23
    4146    4149    4155    4173      22    4146    4149   -4155    4173      23
    4185    4179    4182    4188      21    4185    4179    4182    4191      21
    4185    4179    4182    4194      21    4182    4179    4185    4197      21
    4182    4179    4185    4200      21    4182    4179    4185    4203      21
    4176    4179    4182    4188      22    4176    4179   -4182    4188      23
    4176    4179    4182    4191      22    4176    4179   -4182    4191      23
    4176    4179    4182    4194      22    4176    4179   -4182    4194      23
    4176    4179    4185    4197      22    4176    4179   -4185    4197      23
    4176    4179    4185    4200      22    4176    4179   -4185    4200      23
    4176    4179    4185    4203      22    4176    4179   -4185    4203      23
    4215    4209    4212    4218      21    4215    4209    4212    4221      21
    4215    4209    4212    4224      21    4212    4209    4215    4227      21
    4212    4209    4215    4230      21    4212    4209    4215    4233      21
    4206    4209    4212    4218      22    4206    4209   -4212    4218      23
    4206    4209    4212    4221      22    4206    4209   -4212    4221      23
    4206    4209    4212    4224      22    4206    4209   -4212    4224      23
    4206    4209    4215    4227      22    4206    4209   -4215    4227      23
    4206    4209    4215    4230      22    4206    4209   -4215    4230      23
    4206    4209    4215    4233      22    4206    4209   -4215    4233      23
    4245    4239    4242    4248      21    4245    4239    4242    4251      21
    4245    4239    4242    4254      21    4242    4239    4245    4257      21
    4242    4239    4245    4260      21    4242    4239    4245    4263      21
    4236    4239    4242    4248      22    4236    4239   -4242    4248      23
    4236    4239    4242    4251      22    4236    4239   -4242    4251      23
    4236    4239    4242    4254      22    4236    4239   -4242    4254      23
    4236    4239    4245    4257      22    4236    4239   -4245    4257      23
    4236    4239    4245    4260      22    4236    4239   -4245    4260      23
    4236    4239    4245    4263      22    4236    4239   -4245    4263      23
    4275    4269    4272    4278      21    4275    4269    4272    4281      21
    4275    4269    4272    4284      21    4272    4269    4275    4287      21
    4272    4269    4275    4290      21    4272    4269    4275    4293      21
    4266    4269    4272    4278      22    4266    4269   -4272    4278      23
    4266    4269    4272    4281      22    4266    4269   -4272    4281      23
    4266    4269    4272    4284      22    4266    4269   -4272    4284      23
    4266    4269    4275    4287      22    4266    4269   -4275    4287      23
    4266    4269    4275    4290      22    4266    4269   -4275    4290      23
    4266    4269    4275    4293      22    4266    4269   -4275    4293      23
    4305    4299    4302    4308      21    4305    4299    4302    4311      21
    4305    4299    4302    4314      21    4302    4299    4305    4317      21
    4302    4299    4305    4320      21    4302    4299    4305    4323      21
    4296    4299    4302    4308      22    4296    4299   -4302    4308      23
    4296    4299    4302    4311      22    4296    4299   -4302    4311      23
    4296    4299    4302    4314      22    4296    4299   -4302    4314      23
    4296    4299    4305    4317      22    4296    4299   -4305    4317      23
    4296    4299    4305    4320      22    4296    4299   -4305    4320      23
    4296    4299    4305    4323      22    4296    4299   -4305    4323      23
    4335    4329    4332    4338      21    4335    4329    4332    4341      21
    4335    4329    4332    4344      21    4332    4329    4335    4347      21
    4332    4329    4335    4350      21    4332    4329    4335    4353      21
    4326    4329    4332    4338      22    4326    4329   -4332    4338      23
    4326    4329    4332    4341      22    4326    4329   -4332    4341      23
    4326    4329    4332    4344      22    4326    4329   -4332    4344      23
    4326    4329    4335    4347      22    4326    4329   -4335    4347      23
    4326    4329    4335    4350      22    4326    4329   -4335    4350      23
    4326    4329    4335    4353      22    4326    4329   -4335    4353      23
    4365    4359    4362    4368      21    4365    4359    4362    4371      21
    4365    4359    4362    4374      21    4362    4359    4365    4377      21
    4362    4359    4365    4380      21    4362    4359    4365    4383      21
    4356    4359    4362    4368      22    4356    4359   -4362    4368      23
    4356    4359    4362    4371      22    4356    4359   -4362    4371      23
    4356    4359    4362    4374      22    4356    4359   -4362    4374      23
    4356    4359    4365    4377      22    4356    4359   -4365    4377      23
    4356    4359    4365    4380      22    4356    4359   -4365    4380      23
    4356    4359    4365    4383      22    4356    4359   -4365    4383      23
    4395    4389    4392    4398      21    4395    4389    4392    4401      21
    4395    4389    4392    4404      21    4392    4389    4395    4407      21
    4392    4389    4395    4410      21    4392    4389    4395    4413      21
    4386    4389    4392    4398      22    4386    4389   -4392    4398      23
    4386    4389    4392    4401      22    4386    4389   -4392    4401      23
    4386    4389    4392    4404      22    4386    4389   -4392    4404      23
    4386    4389    4395    4407      22    4386    4389   -4395    4407      23
    4386    4389    4395    4410      22    4386    4389   -4395    4410      23
    4386    4389    4395    4413      22    4386    4389   -4395    4413      23
    4425    4419    4422    4428      21    4425    4419    4422    4431      21
    4425    4419    4422    4434      21    4422    4419    4425    4437      21
    4422    4419    4425    4440      21    4422    4419    4425    4443      21
    4416    4419    4422    4428      22    4416    4419   -4422    4428      23
    4416    4419    4422    4431      22    4416    4419   -4422    4431      23
    4416    4419    4422    4434      22    4416    4419   -4422    4434      23
    4416    4419    4425    4437      22    4416    4419   -4425    4437      23
    4416    4419    4425    4440      22    4416    4419   -4425    4440      23
    4416    4419    4425    4443      22    4416    4419   -4425    4443      23
    4455    4449    4452    4458      21    4455    4449    4452    4461      21
    4455    4449    4452    4464      21    4452    4449    4455    4467      21
    4452    4449    4455    4470      21    4452    4449    4455    4473      21
    4446    4449    4452    4458      22    4446    4449   -4452    4458      23
    4446    4449    4452    4461      22    4446    4449   -4452    4461      23
    4446    4449    4452    4464      22    4446    4449   -4452    4464      23
    4446    4449    4455    4467      22    4446    4449   -4455    4467      23
    4446    4449    4455    4470      22    4446    4449   -4455    4470      23
    4446    4449    4455    4473      22    4446    4449   -4455    4473      23
    4485    4479    4482    4488      21    4485    4479    4482    4491      21
    4485    4479    4482    4494      21    4482    4479    4485    4497      21
    4482    4479    4485    4500      21    4482    4479    4485    4503      21
    4476    4479    4482    4488      22    4476    4479   -4482    4488      23
    4476    4479    4482    4491      22    4476    4479   -4482    4491      23
    4476    4479    4482    4494      22    4476    4479   -4482    4494      23
    4476    4479    4485    4497      22    4476    4479   -4485    4497      23
    4476    4479    4485    4500      22    4476    4479   -4485    4500      23
    4476    4479    4485    4503      22    4476    4479   -4485    4503      23
    4515    4509    4512    4518      21    4515    4509    4512    4521      21
    4515    4509    4512    4524      21    4512    4509    4515    4527      21
    4512    4509    4515    4530      21    4512    4509    4515    4533      21
    4506    4509    4512    4518      22    4506    4509   -4512    4518      23
    4506    4509    4512    4521      22    4506    4509   -4512    4521      23
    4506    4509    4512    4524      22    4506    4509   -4512    4524      23
    4506    4509    4515    4527      22    4506    4509   -4515    4527      23
    4506    4509    4515    4530      22    4506    4509   -4515    4530      23
    4506    4509    4515    4533      22    4506    4509   -4515    4533      23
    4545    4539    4542    4548      21    4545    4539    4542    4551      21
    4545    4539    4542    4554      21    4542    4539    4545    4557      21
    4542    4539    4545    4560      21    4542    4539    4545    4563      21
    4536    4539    4542    4548      22    4536    4539   -4542    4548      23
    4536    4539    4542    4551      22    4536    4539   -4542    4551      23
    4536    4539    4542    4554      22    4536    4539   -4542    4554      23
    4536    4539    4545    4557      22    4536    4539   -4545    4557      23
    4536    4539    4545    4560      22    4536    4539   -4545    4560      23
    4536    4539    4545    4563      22    4536    4539   -4545    4563      23
    4575    4569    4572    4578      21    4575    4569    4572    4581      21
    4575    4569    4572    4584      21    4572    4569    4575    4587      21
    4572    4569    4575    4590      21    4572    4569    4575    4593      21
    4566    4569    4572    4578      22    4566    4569   -4572    4578      23
    4566    4569    4572    4581      22    4566    4569   -4572    4581      23
    4566    4569    4572    4584      22    4566    4569   -4572    4584      23
    4566    4569    4575    4587      22    4566    4569   -4575    4587      23
    4566    4569    4575    4590      22    4566    4569   -4575    4590      23
    4566    4569    4575    4593      22    4566    4569   -4575    4593      23
    4605    4599    4602    4608      21    4605    4599    4602    4611      21
    4605    4599    4602    4614      21    4602    4599    4605    4617      21
    4602    4599    4605    4620      21    4602    4599    4605    4623      21
    4596    4599    4602    4608      22    4596    4599   -4602    4608      23
    4596    4599    4602    4611      22    4596    4599   -4602    4611      23
    4596    4599    4602    4614      22    4596    4599   -4602    4614      23
    4596    4599    4605    4617      22    4596    4599   -4605    4617      23
    4596    4599    4605    4620      22    4596    4599   -4605    4620      23
    4596    4599    4605    4623      22    4596    4599   -4605    4623      23
    4635    4629    4632    4638      21    4635    4629    4632    4641      21
    4635    4629    4632    4644      21    4632    4629    4635    4647      21
    4632    4629    4635    4650      21    4632    4629    4635    4653      21
    4626    4629    4632    4638      22    4626    4629   -4632    4638      23
    4626    4629    4632    4641      22    4626    4629   -4632    4641      23
    4626    4629    4632    4644      22    4626    4629   -4632    4644      23
    4626    4629    4635    4647      22    4626    4629   -4635    4647      23
    4626    4629    4635    4650      22    4626    4629   -4635    4650      23
    4626    4629    4635    4653      22    4626    4629   -4635    4653      23
    4665    4659    4662    4668      21    4665    4659    4662    4671      21
    4665    4659    4662    4674      21    4662    4659    4665    4677      21
    4662    4659    4665    4680      21    4662    4659    4665    4683      21
    4656    4659    4662    4668      22    4656    4659   -4662    4668      23
    4656    4659    4662    4671      22    4656    4659   -4662    4671      23
    4656    4659    4662    4674      22    4656    4659   -4662    4674      23
    4656    4659    4665    4677      22    4656    4659   -4665    4677      23
    4656    4659    4665    4680      22    4656    4659   -4665    4680      23
    4656    4659    4665    4683      22    4656    4659   -4665    4683      23
    4695    4689    4692    4698      21    4695    4689    4692    4701      21
    4695    4689    4692    4704      21    4692    4689    4695    4707      21
    4692    4689    4695    4710      21    4692    4689    4695    4713      21
    4686    4689    4692    4698      22    4686    4689   -4692    4698      23
    4686    4689    4692    4701      22    4686    4689   -4692    4701      23
    4686    4689    4692    4704      22    4686    4689   -4692    4704      23
    4686    4689    4695    4707      22    4686    4689   -4695    4707      23
    4686    4689    4695    4710      22    4686    4689   -4695    4710      23
    4686    4689    4695    4713      22    4686    4689   -4695    4713      23
    4725    4719    4722    4728      21    4725    4719    4722    4731      21
    4725    4719    4722    4734      21    4722    4719    4725    4737      21
    4722    4719    4725    4740      21    4722    4719    4725    4743      21
    4716    4719    4722    4728      22    4716    4719   -4722    4728      23
    4716    4719    4722    4731      22    4716    4719   -4722    4731      23
    4716    4719    4722    4734      22    4716    4719   -4722    4734      23
    4716    4719    4725    4737      22    4716    4719   -4725    4737      23
    4716    4719    4725    4740      22    4716    4719   -4725    4740      23
    4716    4719    4725    4743      22    4716    4719   -4725    4743      23
    4755    4749    4752    4758      21    4755    4749    4752    4761      21
    4755    4749    4752    4764      21    4752    4749    4755    4767      21
    4752    4749    4755    4770      21    4752    4749    4755    4773      21
    4746    4749    4752    4758      22    4746    4749   -4752    4758      23
    4746    4749    4752    4761      22    4746    4749   -4752    4761      23
    4746    4749    4752    4764      22    4746    4749   -4752    4764      23
    4746    4749    4755    4767      22    4746    4749   -4755    4767      23
    4746    4749    4755    4770      22    4746    4749   -4755    4770      23
    4746    4749    4755    4773      22    4746    4749   -4755    4773      23
    4785    4779    4782    4788      21    4785    4779    4782    4791      21
    4785    4779    4782    4794      21    4782    4779    4785    4797      21
    4782    4779    4785    4800      21    4782    4779    4785    4803      21
    4776    4779    4782    4788      22    4776    4779   -4782    4788      23
    4776    4779    4782    4791      22    4776    4779   -4782    4791      23
    4776    4779    4782    4794      22    4776    4779   -4782    4794      23
    4776    4779    4785    4797      22    4776    4779   -4785    4797      23
    4776    4779    4785    4800      22    4776    4779   -4785    4800      23
    4776    4779    4785    4803      22    4776    4779   -4785    4803      23
    4815    4809    4812    4818      21    4815    4809    4812    4821      21
    4815    4809    4812    4824      21    4812    4809    4815    4827      21
    4812    4809    4815    4830      21    4812    4809    4815    4833      21
    4806    4809    4812    4818      22    4806    4809   -4812    4818      23
    4806    4809    4812    4821      22    4806    4809   -4812    4821      23
    4806    4809    4812    4824      22    4806    4809   -4812    4824      23
    4806    4809    4815    4827      22    4806    4809   -4815    4827      23
    4806    4809    4815    4830      22    4806    4809   -4815    4830      23
    4806    4809    4815    4833      22    4806    4809   -4815    4833      23
    4845    4839    4842    4848      21    4845    4839    4842    4851      21
    4845    4839    4842    4854      21    4842    4839    4845    4857      21
    4842    4839    4845    4860      21    4842    4839    4845    4863      21
    4836    4839    4842    4848      22    4836    4839   -4842    4848      23
    4836    4839    4842    4851      22    4836    4839   -4842    4851      23
    4836    4839    4842    4854      22    4836    4839   -4842    4854      23
    4836    4839    4845    4857      22    4836    4839   -4845    4857      23
    4836    4839    4845    4860      22    4836    4839   -4845    4860      23
    4836    4839    4845    4863      22    4836    4839   -4845    4863      23
    4875    4869    4872    4878      21    4875    4869    4872    4881      21
    4875    4869    4872    4884      21    4872    4869    4875    4887      21
    4872    4869    4875    4890      21    4872    4869    4875    4893      21
    4866    4869    4872    4878      22    4866    4869   -4872    4878      23
    4866    4869    4872    4881      22    4866    4869   -4872    4881      23
    4866    4869    4872    4884      22    4866    4869   -4872    4884      23
    4866    4869    4875    4887      22    4866    4869   -4875    4887      23
    4866    4869    4875    4890      22    4866    4869   -4875    4890      23
    4866    4869    4875    4893      22    4866    4869   -4875    4893      23
    4905    4899    4902    4908      21    4905    4899    4902    4911      21
    4905    4899    4902    4914      21    4902    4899    4905    4917      21
    4902    4899    4905    4920      21    4902    4899    4905    4923      21
    4896    4899    4902    4908      22    4896    4899   -4902    4908      23
    4896    4899    4902    4911      22    4896    4899   -4902    4911      23
    4896    4899    4902    4914      22    4896    4899   -4902    4914      23
    4896    4899    4905    4917      22    4896    4899   -4905    4917      23
    4896    4899    4905    4920      22    4896    4899   -4905    4920      23
    4896    4899    4905    4923      22    4896    4899   -4905    4923      23
    4935    4929    4932    4938      21    4935    4929    4932    4941      21
    4935    4929    4932    4944      21    4932    4929    4935    4947      21
    4932    4929    4935    4950      21    4932    4929    4935    4953      21
    4926    4929    4932    4938      22    4926    4929   -4932    4938      23
    4926    4929    4932    4941      22    4926    4929   -4932    4941      23
    4926    4929    4932    4944      22    4926    4929   -4932    4944      23
    4926    4929    4935    4947      22    4926    4929   -4935    4947      23
    4926    4929    4935    4950      22    4926    4929   -4935    4950      23
    4926    4929    4935    4953      22    4926    4929   -4935    4953      23
    4965    4959    4962    4968      21    4965    4959    4962    4971      21
    4965    4959    4962    4974      21    4962    4959    4965    4977      21
    4962    4959    4965    4980      21    4962    4959    4965    4983      21
    4956    4959    4962    4968      22    4956    4959   -4962    4968      23
    4956    4959    4962    4971      22    4956    4959   -4962    4971      23
    4956    4959    4962    4974      22    4956    4959   -4962    4974      23
    4956    4959    4965    4977      22    4956    4959   -4965    4977      23
    4956    4959    4965    4980      22    4956    4959   -4965    4980      23
    4956    4959    4965    4983      22    4956    4959   -4965    4983      23
    4995    4989    4992    4998      21    4995    4989    4992    5001      21
    4995    4989    4992    5004      21    4992    4989    4995    5007      21
    4992    4989    4995    5010      21    4992    4989    4995    5013      21
    4986    4989    4992    4998      22    4986    4989   -4992    4998      23
    4986    4989    4992    5001      22    4986    4989   -4992    5001      23
    4986    4989    4992    5004      22    4986    4989   -4992    5004      23
    4986    4989    4995    5007      22    4986    4989   -4995    5007      23
    4986    4989    4995    5010      22    4986    4989   -4995    5010      23
    4986    4989    4995    5013      22    4986    4989   -4995    5013      23
    5025    5019    5022    5028      21    5025    5019    5022    5031      21
    5025    5019    5022    5034      21    5022    5019    5025    5037      21
    5022    5019    5025    5040      21    5022    5019    5025    5043      21
    5016    5019    5022    5028      22    5016    5019   -5022    5028      23
    5016    5019    5022    5031      22    5016    5019   -5022    5031      23
    5016    5019    5022    5034      22    5016    5019   -5022    5034      23
    5016    5019    5025    5037      22    5016    5019   -5025    5037      23
    5016    5019    5025    5040      22    5016    5019   -5025    5040      23
    5016    5019    5025    5043      22    5016    5019   -5025    5043      23
    5055    5049    5052    5058      21    5055    5049    5052    5061      21
    5055    5049    5052    5064      21    5052    5049    5055    5067      21
    5052    5049    5055    5070      21    5052    5049    5055    5073      21
    5046    5049    5052    5058      22    5046    5049   -5052    5058      23
    5046    5049    5052    5061      22    5046    5049   -5052    5061      23
    5046    5049    5052    5064      22    5046    5049   -5052    5064      23
    5046    5049    5055    5067      22    5046    5049   -5055    5067      23
    5046    5049    5055    5070      22    5046    5049   -5055    5070      23
    5046    5049    5055    5073      22    5046    5049   -5055    5073      23
    5085    5079    5082    5088      21    5085    5079    5082    5091      21
    5085    5079    5082    5094      21    5082    5079    5085    5097      21
    5082    5079    5085    5100      21    5082    5079    5085    5103      21
    5076    5079    5082    5088      22    5076    5079   -5082    5088      23
    5076    5079    5082    5091      22    5076    5079   -5082    5091      23
    5076    5079    5082    5094      22    5076    5079   -5082    5094      23
    5076    5079    5085    5097      22    5076    5079   -5085    5097      23
    5076    5079    5085    5100      22    5076    5079   -5085    5100      23
    5076    5079    5085    5103      22    5076    5079   -5085    5103      23
    5115    5109    5112    5118      21    5115    5109    5112    5121      21
    5115    5109    5112    5124      21    5112    5109    5115    5127      21
    5112    5109    5115    5130      21    5112    5109    5115    5133      21
    5106    5109    5112    5118      22    5106    5109   -5112    5118      23
    5106    5109    5112    5121      22    5106    5109   -5112    5121      23
    5106    5109    5112    5124      22    5106    5109   -5112    5124      23
    5106    5109    5115    5127      22    5106    5109   -5115    5127      23
    5106    5109    5115    5130      22    5106    5109   -5115    5130      23
    5106    5109    5115    5133      22    5106    5109   -5115    5133      23
    5145    5139    5142    5148      21    5145    5139    5142    5151      21
    5145    5139    5142    5154      21    5142    5139    5145    5157      21
    5142    5139    5145    5160      21    5142    5139    5145    5163      21
    5136    5139    5142    5148      22    5136    5139   -5142    5148      23
    5136    5139    5142    5151      22    5136    5139   -5142    5151      23
    5136    5139    5142    5154      22    5136    5139   -5142    5154      23
    5136    5139    5145    5157      22    5136    5139   -5145    5157      23
    5136    5139    5145    5160      22    5136    5139   -5145    5160      23
    5136    5139    5145    5163      22    5136    5139   -5145    5163      23
    5175    5169    5172    5178      21    5175    5169    5172    5181      21
    5175    5169    5172    5184      21    5172    5169    5175    5187      21
    5172    5169    5175    5190      21    5172    5169    5175    5193      21
    5166    5169    5172    5178      22    5166    5169   -5172    5178      23
    5166    5169    5172    5181      22    5166    5169   -5172    5181      23
    5166    5169    5172    5184      22    5166    5169   -5172    5184      23
    5166    5169    5175    5187      22    5166    5169   -5175    5187      23
    5166    5169    5175    5190      22    5166    5169   -5175    5190      23
    5166    5169    5175    5193      22    5166    5169   -5175    5193      23
    5205    5199    5202    5208      21    5205    5199    5202    5211      21
    5205    5199    5202    5214      21    5202    5199    5205    5217      21
    5202    5199    5205    5220      21    5202    5199    5205    5223      21
    5196    5199    5202    5208      22    5196    5199   -5202    5208      23
    5196    5199    5202    5211      22    5196    5199   -5202    5211      23
    5196    5199    5202    5214      22    5196    5199   -5202    5214      23
    5196    5199    5205    5217      22    5196    5199   -5205    5217      23
    5196    5199    5205    5220      22    5196    5199   -5205    5220      23
    5196    5199    5205    5223      22    5196    5199   -5205    5223      23
    5235    5229    5232    5238      21    5235    5229    5232    5241      21
    5235    5229    5232    5244      21    5232    5229    5235    5247      21
    5232    5229    5235    5250      21    5232    5229    5235    5253      21
    5226    5229    5232    5238      22    5226    5229   -5232    5238      23
    5226    5229    5232    5241      22    5226    5229   -5232    5241      23
    5226    5229    5232    5244      22    5226    5229   -5232    5244      23
    5226    5229    5235    5247      22    5226    5229   -5235    5247      23
    5226    5229    5235    5250      22    5226    5229   -5235    5250      23
    5226    5229    5235    5253      22    5226    5229   -5235    5253      23
    5265    5259    5262    5268      21    5265    5259    5262    5271      21
    5265    5259    5262    5274      21    5262    5259    5265    5277      21
    5262    5259    5265    5280      21    5262    5259    5265    5283      21
    5256    5259    5262    5268      22    5256    5259   -5262    5268      23
    5256    5259    5262    5271      22    5256    5259   -5262    5271      23
    5256    5259    5262    5274      22    5256    5259   -5262    5274      23
    5256    5259    5265    5277      22    5256    5259   -5265    5277      23
    5256    5259    5265    5280      22    5256    5259   -5265    5280      23
    5256    5259    5265    5283      22    5256    5259   -5265    5283      23
    5295    5289    5292    5298      21    5295    5289    5292    5301      21
    5295    5289    5292    5304      21    5292    5289    5295    5307      21
    5292    5289    5295    5310      21    5292    5289    5295    5313      21
    5286    5289    5292    5298      22    5286    5289   -5292    5298      23
    5286    5289    5292    5301      22    5286    5289   -5292    5301      23
    5286    5289    5292    5304      22    5286    5289   -5292    5304      23
    5286    5289    5295    5307      22    5286    5289   -5295    5307      23
    5286    5289    5295    5310      22    5286    5289   -5295    5310      23
    5286    5289    5295    5313      22    5286    5289   -5295    5313      23
    5325    5319    5322    5328      21    5325    5319    5322    5331      21
    5325    5319    5322    5334      21    5322    5319    5325    5337      21
    5322    5319    5325    5340      21    5322    5319    5325    5343      21
    5316    5319    5322    5328      22    5316    5319   -5322    5328      23
    5316    5319    5322    5331      22    5316    5319   -5322    5331      23
    5316    5319    5322    5334      22    5316    5319   -5322    5334      23
    5316    5319    5325    5337      22    5316    5319   -5325    5337      23
    5316    5319    5325    5340      22    5316    5319   -5325    5340      23
    5316    5319    5325    5343      22    5316    5319   -5325    5343      23
    5355    5349    5352    5358      21    5355    5349    5352    5361      21
    5355    5349    5352    5364      21    5352    5349    5355    5367      21
    5352    5349    5355    5370      21    5352    5349    5355    5373      21
    5346    5349    5352    5358      22    5346    5349   -5352    5358      23
    5346    5349    5352    5361      22    5346    5349   -5352    5361      23
    5346    5349    5352    5364      22    5346    5349   -5352    5364      23
    5346    5349    5355    5367      22    5346    5349   -5355    5367      23
    5346    5349    5355    5370      22    5346    5349   -5355    5370      23
    5346    5349    5355    5373      22    5346    5349   -5355    5373      23
    5385    5379    5382    5388      21    5385    5379    5382    5391      21
    5385    5379    5382    5394      21    5382    5379    5385    5397      21
    5382    5379    5385    5400      21    5382    5379    5385    5403      21
    5376    5379    5382    5388      22    5376    5379   -5382    5388      23
    5376    5379    5382    5391      22    5376    5379   -5382    5391      23
    5376    5379    5382    5394      22    5376    5379   -5382    5394      23
    5376    5379    5385    5397      22    5376    5379   -5385    5397      23
    5376    5379    5385    5400      22    5376    5379   -5385    5400      23
    5376    5379    5385    5403      22    5376    5379   -5385    5403      23
    5415    5409    5412    5418      21    5415    5409    5412    5421      21
    5415    5409    5412    5424      21    5412    5409    5415    5427      21
    5412    5409    5415    5430      21    5412    5409    5415    5433      21
    5406    5409    5412    5418      22    5406    5409   -5412    5418      23
    5406    5409    5412    5421      22    5406    5409   -5412    5421      23
    5406    5409    5412    5424      22    5406    5409   -5412    5424      23
    5406    5409    5415    5427      22    5406    5409   -5415    5427      23
    5406    5409    5415    5430      22    5406    5409   -5415    5430      23
    5406    5409    5415    5433      22    5406    5409   -5415    5433      23
    5445    5439    5442    5448      21    5445    5439    5442    5451      21
    5445    5439    5442    5454      21    5442    5439    5445    5457      21
    5442    5439    5445    5460      21    5442    5439    5445    5463      21
    5436    5439    5442    5448      22    5436    5439   -5442    5448      23
    5436    5439    5442    5451      22    5436    5439   -5442    5451      23
    5436    5439    5442    5454      22    5436    5439   -5442    5454      23
    5436    5439    5445    5457      22    5436    5439   -5445    5457      23
    5436    5439    5445    5460      22    5436    5439   -5445    5460      23
    5436    5439    5445    5463      22    5436    5439   -5445    5463      23
    5475    5469    5472    5478      21    5475    5469    5472    5481      21
    5475    5469    5472    5484      21    5472    5469    5475    5487      21
    5472    5469    5475    5490      21    5472    5469    5475    5493      21
    5466    5469    5472    5478      22    5466    5469   -5472    5478      23
    5466    5469    5472    5481      22    5466    5469   -5472    5481      23
    5466    5469    5472    5484      22    5466    5469   -5472    5484      23
    5466    5469    5475    5487      22    5466    5469   -5475    5487      23
    5466    5469    5475    5490      22    5466    5469   -5475    5490      23
    5466    5469    5475    5493      22    5466    5469   -5475    5493      23
    5505    5499    5502    5508      21    5505    5499    5502    5511      21
    5505    5499    5502    5514      21    5502    5499    5505    5517      21
    5502    5499    5505    5520      21    5502    5499    5505    5523      21
    5496    5499    5502    5508      22    5496    5499   -5502    5508      23
    5496    5499    5502    5511      22    5496    5499   -5502    5511      23
    5496    5499    5502    5514      22    5496    5499   -5502    5514      23
    5496    5499    5505    5517      22    5496    5499   -5505    5517      23
    5496    5499    5505    5520      22    5496    5499   -5505    5520      23
    5496    5499    5505    5523      22    5496    5499   -5505    5523      23
    5535    5529    5532    5538      21    5535    5529    5532    5541      21
    5535    5529    5532    5544      21    5532    5529    5535    5547      21
    5532    5529    5535    5550      21    5532    5529    5535    5553      21
    5526    5529    5532    5538      22    5526    5529   -5532    5538      23
    5526    5529    5532    5541      22    5526    5529   -5532    5541      23
    5526    5529    5532    5544      22    5526    5529   -5532    5544      23
    5526    5529    5535    5547      22    5526    5529   -5535    5547      23
    5526    5529    5535    5550      22    5526    5529   -5535    5550      23
    5526    5529    5535    5553      22    5526    5529   -5535    5553      23
    5565    5559    5562    5568      21    5565    5559    5562    5571      21
    5565    5559    5562    5574      21    5562    5559    5565    5577      21
    5562    5559    5565    5580      21    5562    5559    5565    5583      21
    5556    5559    5562    5568      22    5556    5559   -5562    5568      23
    5556    5559    5562    5571      22    5556    5559   -5562    5571      23
    5556    5559    5562    5574      22    5556    5559   -5562    5574      23
    5556    5559    5565    5577      22    5556    5559   -5565    5577      23
    5556    5559    5565    5580      22    5556    5559   -5565    5580      23
    5556    5559    5565    5583      22    5556    5559   -5565    5583      23
    5595    5589    5592    5598      21    5595    5589    5592    5601      21
    5595    5589    5592    5604      21    5592    5589    5595    5607      21
    5592    5589    5595    5610      21    5592    5589    5595    5613      21
    5586    5589    5592    5598      22    5586    5589   -5592    5598      23
    5586    5589    5592    5601      22    5586    5589   -5592    5601      23
    5586    5589    5592    5604      22    5586    5589   -5592    5604      23
    5586    5589    5595    5607      22    5586    5589   -5595    5607      23
    5586    5589    5595    5610      22    5586    5589   -5595    5610      23
    5586    5589    5595    5613      22    5586    5589   -5595    5613      23
    5625    5619    5622    5628      21    5625    5619    5622    5631      21
    5625    5619    5622    5634      21    5622    5619    5625    5637      21
    5622    5619    5625    5640      21    5622    5619    5625    5643      21
    5616    5619    5622    5628      22    5616    5619   -5622    5628      23
    5616    5619    5622    5631      22    5616    5619   -5622    5631      23
    5616    5619    5622    5634      22    5616    5619   -5622    5634      23
    5616    5619    5625    5637      22    5616    5619   -5625    5637      23
    5616    5619    5625    5640      22    5616    5619   -5625    5640      23
    5616    5619    5625    5643      22    5616    5619   -5625    5643      23
    5655    5649    5652    5658      21    5655    5649    5652    5661      21
    5655    5649    5652    5664      21    5652    5649    5655    5667      21
    5652    5649    5655    5670      21    5652    5649    5655    5673      21
    5646    5649    5652    5658      22    5646    5649   -5652    5658      23
    5646    5649    5652    5661      22    5646    5649   -5652    5661      23
    5646    5649    5652    5664      22    5646    5649   -5652    5664      23
    5646    5649    5655    5667      22    5646    5649   -5655    5667      23
    5646    5649    5655    5670      22    5646    5649   -5655    5670      23
    5646    5649    5655    5673      22    5646    5649   -5655    5673      23
    5685    5679    5682    5688      21    5685    5679    5682    5691      21
    5685    5679    5682    5694      21    5682    5679    5685    5697      21
    5682    5679    5685    5700      21    5682    5679    5685    5703      21
    5676    5679    5682    5688      22    5676    5679   -5682    5688      23
    5676    5679    5682    5691      22    5676    5679   -5682    5691      23
    5676    5679    5682    5694      22    5676    5679   -5682    5694      23
    5676    5679    5685    5697      22    5676    5679   -5685    5697      23
    5676    5679    5685    5700      22    5676    5679   -5685    5700      23
    5676    5679    5685    5703      22    5676    5679   -5685    5703      23
    5715    5709    5712    5718      21    5715    5709    5712    5721      21
    5715    5709    5712    5724      21    5712    5709    5715    5727      21
    5712    5709    5715    5730      21    5712    5709    5715    5733      21
    5706    5709    5712    5718      22    5706    5709   -5712    5718      23
    5706    5709    5712    5721      22    5706    5709   -5712    5721      23
    5706    5709    5712    5724      22    5706    5709   -5712    5724      23
    5706    5709    5715    5727      22    5706    5709   -5715    5727      23
    5706    5709    5715    5730      22    5706    5709   -5715    5730      23
    5706    5709    5715    5733      22    5706    5709   -5715    5733      23
    5745    5739    5742    5748      21    5745    5739    5742    5751      21
    5745    5739    5742    5754      21    5742    5739    5745    5757      21
    5742    5739    5745    5760      21    5742    5739    5745    5763      21
    5736    5739    5742    5748      22    5736    5739   -5742    5748      23
    5736    5739    5742    5751      22    5736    5739   -5742    5751      23
    5736    5739    5742    5754      22    5736    5739   -5742    5754      23
    5736    5739    5745    5757      22    5736    5739   -5745    5757      23
    5736    5739    5745    5760      22    5736    5739   -5745    5760      23
    5736    5739    5745    5763      22    5736    5739   -5745    5763      23
    5775    5769    5772    5778      21    5775    5769    5772    5781      21
    5775    5769    5772    5784      21    5772    5769    5775    5787      21
    5772    5769    5775    5790      21    5772    5769    5775    5793      21
    5766    5769    5772    5778      22    5766    5769   -5772    5778      23
    5766    5769    5772    5781      22    5766    5769   -5772    5781      23
    5766    5769    5772    5784      22    5766    5769   -5772    5784      23
    5766    5769    5775    5787      22    5766    5769   -5775    5787      23
    5766    5769    5775    5790      22    5766    5769   -5775    5790      23
    5766    5769    5775    5793      22    5766    5769   -5775    5793      23
    5805    5799    5802    5808      21    5805    5799    5802    5811      21
    5805    5799    5802    5814      21    5802    5799    5805    5817      21
    5802    5799    5805    5820      21    5802    5799    5805    5823      21
    5796    5799    5802    5808      22    5796    5799   -5802    5808      23
    5796    5799    5802    5811      22    5796    5799   -5802    5811      23
    5796    5799    5802    5814      22    5796    5799   -5802    5814      23
    5796    5799    5805    5817      22    5796    5799   -5805    5817      23
    5796    5799    5805    5820      22    5796    5799   -5805    5820      23
    5796    5799    5805    5823      22    5796    5799   -5805    5823      23
    5835    5829    5832    5838      21    5835    5829    5832    5841      21
    5835    5829    5832    5844      21    5832    5829    5835    5847      21
    5832    5829    5835    5850      21    5832    5829    5835    5853      21
    5826    5829    5832    5838      22    5826    5829   -5832    5838      23
    5826    5829    5832    5841      22    5826    5829   -5832    5841      23
    5826    5829    5832    5844      22    5826    5829   -5832    5844      23
    5826    5829    5835    5847      22    5826    5829   -5835    5847      23
    5826    5829    5835    5850      22    5826    5829   -5835    5850      23
    5826    5829    5835    5853      22    5826    5829   -5835    5853      23
    5865    5859    5862    5868      21    5865    5859    5862    5871      21
    5865    5859    5862    5874      21    5862    5859    5865    5877      21
    5862    5859    5865    5880      21    5862    5859    5865    5883      21
    5856    5859    5862    5868      22    5856    5859   -5862    5868      23
    5856    5859    5862    5871      22    5856    5859   -5862    5871      23
    5856    5859    5862    5874      22    5856    5859   -5862    5874      23
    5856    5859    5865    5877      22    5856    5859   -5865    5877      23
    5856    5859    5865    5880      22    5856    5859   -5865    5880      23
    5856    5859    5865    5883      22    5856    5859   -5865    5883      23
    5895    5889    5892    5898      21    5895    5889    5892    5901      21
    5895    5889    5892    5904      21    5892    5889    5895    5907      21
    5892    5889    5895    5910      21    5892    5889    5895    5913      21
    5886    5889    5892    5898      22    5886    5889   -5892    5898      23
    5886    5889    5892    5901      22    5886    5889   -5892    5901      23
    5886    5889    5892    5904      22    5886    5889   -5892    5904      23
    5886    5889    5895    5907      22    5886    5889   -5895    5907      23
    5886    5889    5895    5910      22    5886    5889   -5895    5910      23
    5886    5889    5895    5913      22    5886    5889   -5895    5913      23
    5925    5919    5922    5928      21    5925    5919    5922    5931      21
    5925    5919    5922    5934      21    5922    5919    5925    5937      21
    5922    5919    5925    5940      21    5922    5919    5925    5943      21
    5916    5919    5922    5928      22    5916    5919   -5922    5928      23
    5916    5919    5922    5931      22    5916    5919   -5922    5931      23
    5916    5919    5922    5934      22    5916    5919   -5922    5934      23
    5916    5919    5925    5937      22    5916    5919   -5925    5937      23
    5916    5919    5925    5940      22    5916    5919   -5925    5940      23
    5916    5919    5925    5943      22    5916    5919   -5925    5943      23
    5955    5949    5952    5958      21    5955    5949    5952    5961      21
    5955    5949    5952    5964      21    5952    5949    5955    5967      21
    5952    5949    5955    5970      21    5952    5949    5955    5973      21
    5946    5949    5952    5958      22    5946    5949   -5952    5958      23
    5946    5949    5952    5961      22    5946    5949   -5952    5961      23
    5946    5949    5952    5964      22    5946    5949   -5952    5964      23
    5946    5949    5955    5967      22    5946    5949   -5955    5967      23
    5946    5949    5955    5970      22    5946    5949   -5955    5970      23
    5946    5949    5955    5973      22    5946    5949   -5955    5973      23
    5985    5979    5982    5988      21    5985    5979    5982    5991      21
    5985    5979    5982    5994      21    5982    5979    5985    5997      21
    5982    5979    5985    6000      21    5982    5979    5985    6003      21
    5976    5979    5982    5988      22    5976    5979   -5982    5988      23
    5976    5979    5982    5991      22    5976    5979   -5982    5991      23
    5976    5979    5982    5994      22    5976    5979   -5982    5994      23
    5976    5979    5985    5997      22    5976    5979   -5985    5997      23
    5976    5979    5985    6000      22    5976    5979   -5985    6000      23
    5976    5979    5985    6003      22    5976    5979   -5985    6003      23
    6015    6009    6012    6018      21    6015    6009    6012    6021      21
    6015    6009    6012    6024      21    6012    6009    6015    6027      21
    6012    6009    6015    6030      21    6012    6009    6015    6033      21
    6006    6009    6012    6018      22    6006    6009   -6012    6018      23
    6006    6009    6012    6021      22    6006    6009   -6012    6021      23
    6006    6009    6012    6024      22    6006    6009   -6012    6024      23
    6006    6009    6015    6027      22    6006    6009   -6015    6027      23
    6006    6009    6015    6030      22    6006    6009   -6015    6030      23
    6006    6009    6015    6033      22    6006    6009   -6015    6033      23
    6045    6039    6042    6048      21    6045    6039    6042    6051      21
    6045    6039    6042    6054      21    6042    6039    6045    6057      21
    6042    6039    6045    6060      21    6042    6039    6045    6063      21
    6036    6039    6042    6048      22    6036    6039   -6042    6048      23
    6036    6039    6042    6051      22    6036    6039   -6042    6051      23
    6036    6039    6042    6054      22    6036    6039   -6042    6054      23
    6036    6039    6045    6057      22    6036    6039   -6045    6057      23
    6036    6039    6045    6060      22    6036    6039   -6045    6060      23
    6036    6039    6045    6063      22    6036    6039   -6045    6063      23
    6075    6069    6072    6078      21    6075    6069    6072    6081      21
    6075    6069    6072    6084      21    6072    6069    6075    6087      21
    6072    6069    6075    6090      21    6072    6069    6075    6093      21
    6066    6069    6072    6078      22    6066    6069   -6072    6078      23
    6066    6069    6072    6081      22    6066    6069   -6072    6081      23
    6066    6069    6072    6084      22    6066    6069   -6072    6084      23
    6066    6069    6075    6087      22    6066    6069   -6075    6087      23
    6066    6069    6075    6090      22    6066    6069   -6075    6090      23
    6066    6069    6075    6093      22    6066    6069   -6075    6093      23
    6105    6099    6102    6108      21    6105    6099    6102    6111      21
    6105    6099    6102    6114      21    6102    6099    6105    6117      21
    6102    6099    6105    6120      21    6102    6099    6105    6123      21
    6096    6099    6102    6108      22    6096    6099   -6102    6108      23
    6096    6099    6102    6111      22    6096    6099   -6102    6111      23
    6096    6099    6102    6114      22    6096    6099   -6102    6114      23
    6096    6099    6105    6117      22    6096    6099   -6105    6117      23
    6096    6099    6105    6120      22    6096    6099   -6105    6120      23
    6096    6099    6105    6123      22    6096    6099   -6105    6123      23
    6135    6129    6132    6138      21    6135    6129    6132    6141      21
    6135    6129    6132    6144      21    6132    6129    6135    6147      21
    6132    6129    6135    6150      21    6132    6129    6135    6153      21
    6126    6129    6132    6138      22    6126    6129   -6132    6138      23
    6126    6129    6132    6141      22    6126    6129   -6132    6141      23
    6126    6129    6132    6144      22    6126    6129   -6132    6144      23
    6126    6129    6135    6147      22    6126    6129   -6135    6147      23
    6126    6129    6135    6150      22    6126    6129   -6135    6150      23
    6126    6129    6135    6153      22    6126    6129   -6135    6153      23
    6165    6159    6162    6168      21    6165    6159    6162    6171      21
    6165    6159    6162    6174      21    6162    6159    6165    6177      21
    6162    6159    6165    6180      21    6162    6159    6165    6183      21
    6156    6159    6162    6168      22    6156    6159   -6162    6168      23
    6156    6159    6162    6171      22    6156    6159   -6162    6171      23
    6156    6159    6162    6174      22    6156    6159   -6162    6174      23
    6156    6159    6165    6177      22    6156    6159   -6165    6177      23
    6156    6159    6165    6180      22    6156    6159   -6165    6180      23
    6156    6159    6165    6183      22    6156    6159   -6165    6183      23
    6195    6189    6192    6198      21    6195    6189    6192    6201      21
    6195    6189    6192    6204      21    6192    6189    6195    6207      21
    6192    6189    6195    6210      21    6192    6189    6195    6213      21
    6186    6189    6192    6198      22    6186    6189   -6192    6198      23
    6186    6189    6192    6201      22    6186    6189   -6192    6201      23
    6186    6189    6192    6204      22    6186    6189   -6192    6204      23
    6186    6189    6195    6207      22    6186    6189   -6195    6207      23
    6186    6189    6195    6210      22    6186    6189   -6195    6210      23
    6186    6189    6195    6213      22    6186    6189   -6195    6213      23
    6225    6219    6222    6228      21    6225    6219    6222    6231      21
    6225    6219    6222    6234      21    6222    6219    6225    6237      21
    6222    6219    6225    6240      21    6222    6219    6225    6243      21
    6216    6219    6222    6228      22    6216    6219   -6222    6228      23
    6216    6219    6222    6231      22    6216    6219   -6222    6231      23
    6216    6219    6222    6234      22    6216    6219   -6222    6234      23
    6216    6219    6225    6237      22    6216    6219   -6225    6237      23
    6216    6219    6225    6240      22    6216    6219   -6225    6240      23
    6216    6219    6225    6243      22    6216    6219   -6225    6243      23
    6255    6249    6252    6258      21    6255    6249    6252    6261      21
    6255    6249    6252    6264      21    6252    6249    6255    6267      21
    6252    6249    6255    6270      21    6252    6249    6255    6273      21
    6246    6249    6252    6258      22    6246    6249   -6252    6258      23
    6246    6249    6252    6261      22    6246    6249   -6252    6261      23
    6246    6249    6252    6264      22    6246    6249   -6252    6264      23
    6246    6249    6255    6267      22    6246    6249   -6255    6267      23
    6246    6249    6255    6270      22    6246    6249   -6255    6270      23
    6246    6249    6255    6273      22    6246    6249   -6255    6273      23
    6285    6279    6282    6288      21    6285    6279    6282    6291      21
    6285    6279    6282    6294      21    6282    6279    6285    6297      21
    6282    6279    6285    6300      21    6282    6279    6285    6303      21
    6276    6279    6282    6288      22    6276    6279   -6282    6288      23
    6276    6279    6282    6291      22    6276    6279   -6282    6291      23
    6276    6279    6282    6294      22    6276    6279   -6282    6294      23
    6276    6279    6285    6297      22    6276    6279   -6285    6297      23
    6276    6279    6285    6300      22    6276    6279   -6285    6300      23
    6276    6279    6285    6303      22    6276    6279   -6285    6303      23
    6315    6309    6312    6318      21    6315    6309    6312    6321      21
    6315    6309    6312    6324      21    6312    6309    6315    6327      21
    6312    6309    6315    6330      21    6312    6309    6315    6333      21
    6306    6309    6312    6318      22    6306    6309   -6312    6318      23
    6306    6309    6312    6321      22    6306    6309   -6312    6321      23
    6306    6309    6312    6324      22    6306    6309   -6312    6324      23
    6306    6309    6315    6327      22    6306    6309   -6315    6327      23
    6306    6309    6315    6330      22    6306    6309   -6315    6330      23
    6306    6309    6315    6333      22    6306    6309   -6315    6333      23
    6345    6339    6342    6348      21    6345    6339    6342    6351      21
    6345    6339    6342    6354      21    6342    6339    6345    6357      21
    6342    6339    6345    6360      21    6342    6339    6345    6363      21
    6336    6339    6342    6348      22    6336    6339   -6342    6348      23
    6336    6339    6342    6351      22    6336    6339   -6342    6351      23
    6336    6339    6342    6354      22    6336    6339   -6342    6354      23
    6336    6339    6345    6357      22    6336    6339   -6345    6357      23
    6336    6339    6345    6360      22    6336    6339   -6345    6360      23
    6336    6339    6345    6363      22    6336    6339   -6345    6363      23
    6375    6369    6372    6378      21    6375    6369    6372    6381      21
    6375    6369    6372    6384      21    6372    6369    6375    6387      21
    6372    6369    6375    6390      21    6372    6369    6375    6393      21
    6366    6369    6372    6378      22    6366    6369   -6372    6378      23
    6366    6369    6372    6381      22    6366    6369   -6372    6381      23
    6366    6369    6372    6384      22    6366    6369   -6372    6384      23
    6366    6369    6375    6387      22    6366    6369   -6375    6387      23
    6366    6369    6375    6390      22    6366    6369   -6375    6390      23
    6366    6369    6375    6393      22    6366    6369   -6375    6393      23
    6405    6399    6402    6408      21    6405    6399    6402    6411      21
    6405    6399    6402    6414      21    6402    6399    6405    6417      21
    6402    6399    6405    6420      21    6402    6399    6405    6423      21
    6396    6399    6402    6408      22    6396    6399   -6402    6408      23
    6396    6399    6402    6411      22    6396    6399   -6402    6411      23
    6396    6399    6402    6414      22    6396    6399   -6402    6414      23
    6396    6399    6405    6417      22    6396    6399   -6405    6417      23
    6396    6399    6405    6420      22    6396    6399   -6405    6420      23
    6396    6399    6405    6423      22    6396    6399   -6405    6423      23
    6435    6429    6432    6438      21    6435    6429    6432    6441      21
    6435    6429    6432    6444      21    6432    6429    6435    6447      21
    6432    6429    6435    6450      21    6432    6429    6435    6453      21
    6426    6429    6432    6438      22    6426    6429   -6432    6438      23
    6426    6429    6432    6441      22    6426    6429   -6432    6441      23
    6426    6429    6432    6444      22    6426    6429   -6432    6444      23
    6426    6429    6435    6447      22    6426    6429   -6435    6447      23
    6426    6429    6435    6450      22    6426    6429   -6435    6450      23
    6426    6429    6435    6453      22    6426    6429   -6435    6453      23
    6465    6459    6462    6468      21    6465    6459    6462    6471      21
    6465    6459    6462    6474      21    6462    6459    6465    6477      21
    6462    6459    6465    6480      21    6462    6459    6465    6483      21
    6456    6459    6462    6468      22    6456    6459   -6462    6468      23
    6456    6459    6462    6471      22    6456    6459   -6462    6471      23
    6456    6459    6462    6474      22    6456    6459   -6462    6474      23
    6456    6459    6465    6477      22    6456    6459   -6465    6477      23
    6456    6459    6465    6480      22    6456    6459   -6465    6480      23
    6456    6459    6465    6483      22    6456    6459   -6465    6483      23
    6495    6489    6492    6498      21    6495    6489    6492    6501      21
    6495    6489    6492    6504      21    6492    6489    6495    6507      21
    6492    6489    6495    6510      21    6492    6489    6495    6513      21
    6486    6489    6492    6498      22    6486    6489   -6492    6498      23
    6486    6489    6492    6501      22    6486    6489   -6492    6501      23
    6486    6489    6492    6504      22    6486    6489   -6492    6504      23
    6486    6489    6495    6507      22    6486    6489   -6495    6507      23
    6486    6489    6495    6510      22    6486    6489   -6495    6510      23
    6486    6489    6495    6513      22    6486    6489   -6495    6513      23
    6525    6519    6522    6528      21    6525    6519    6522    6531      21
    6525    6519    6522    6534      21    6522    6519    6525    6537      21
    6522    6519    6525    6540      21    6522    6519    6525    6543      21
    6516    6519    6522    6528      22    6516    6519   -6522    6528      23
    6516    6519    6522    6531      22    6516    6519   -6522    6531      23
    6516    6519    6522    6534      22    6516    6519   -6522    6534      23
    6516    6519    6525    6537      22    6516    6519   -6525    6537      23
    6516    6519    6525    6540      22    6516    6519   -6525    6540      23
    6516    6519    6525    6543      22    6516    6519   -6525    6543      23
    6555    6549    6552    6558      21    6555    6549    6552    6561      21
    6555    6549    6552    6564      21    6552    6549    6555    6567      21
    6552    6549    6555    6570      21    6552    6549    6555    6573      21
    6546    6549    6552    6558      22    6546    6549   -6552    6558      23
    6546    6549    6552    6561      22    6546    6549   -6552    6561      23
    6546    6549    6552    6564      22    6546    6549   -6552    6564      23
    6546    6549    6555    6567      22    6546    6549   -6555    6567      23
    6546    6549    6555    6570      22    6546    6549   -6555    6570      23
    6546    6549    6555    6573      22    6546    6549   -6555    6573      23
    6585    6579    6582    6588      21    6585    6579    6582    6591      21
    6585    6579    6582    6594      21    6582    6579    6585    6597      21
    6582    6579    6585    6600      21    6582    6579    6585    6603      21
    6576    6579    6582    6588      22    6576    6579   -6582    6588      23
    6576    6579    6582    6591      22    6576    6579   -6582    6591      23
    6576    6579    6582    6594      22    6576    6579   -6582    6594      23
    6576    6579    6585    6597      22    6576    6579   -6585    6597      23
    6576    6579    6585    6600      22    6576    6579   -6585    6600      23
    6576    6579    6585    6603      22    6576    6579   -6585    6603      23
    6615    6609    6612    6618      21    6615    6609    6612    6621      21
    6615    6609    6612    6624      21    6612    6609    6615    6627      21
    6612    6609    6615    6630      21    6612    6609    6615    6633      21
    6606    6609    6612    6618      22    6606    6609   -6612    6618      23
    6606    6609    6612    6621      22    6606    6609   -6612    6621      23
    6606    6609    6612    6624      22    6606    6609   -6612    6624      23
    6606    6609    6615    6627      22    6606    6609   -6615    6627      23
    6606    6609    6615    6630      22    6606    6609   -6615    6630      23
    6606    6609    6615    6633      22    6606    6609   -6615    6633      23
    6645    6639    6642    6648      21    6645    6639    6642    6651      21
    6645    6639    6642    6654      21    6642    6639    6645    6657      21
    6642    6639    6645    6660      21    6642    6639    6645    6663      21
    6636    6639    6642    6648      22    6636    6639   -6642    6648      23
    6636    6639    6642    6651      22    6636    6639   -6642    6651      23
    6636    6639    6642    6654      22    6636    6639   -6642    6654      23
    6636    6639    6645    6657      22    6636    6639   -6645    6657      23
    6636    6639    6645    6660      22    6636    6639   -6645    6660      23
    6636    6639    6645    6663      22    6636    6639   -6645    6663      23
    6675    6669    6672    6678      21    6675    6669    6672    6681      21
    6675    6669    6672    6684      21    6672    6669    6675    6687      21
    6672    6669    6675    6690      21    6672    6669    6675    6693      21
    6666    6669    6672    6678      22    6666    6669   -6672    6678      23
    6666    6669    6672    6681      22    6666    6669   -6672    6681      23
    6666    6669    6672    6684      22    6666    6669   -6672    6684      23
    6666    6669    6675    6687      22    6666    6669   -6675    6687      23
    6666    6669    6675    6690      22    6666    6669   -6675    6690      23
    6666    6669    6675    6693      22    6666    6669   -6675    6693      23
    6705    6699    6702    6708      21    6705    6699    6702    6711      21
    6705    6699    6702    6714      21    6702    6699    6705    6717      21
    6702    6699    6705    6720      21    6702    6699    6705    6723      21
    6696    6699    6702    6708      22    6696    6699   -6702    6708      23
    6696    6699    6702    6711      22    6696    6699   -6702    6711      23
    6696    6699    6702    6714      22    6696    6699   -6702    6714      23
    6696    6699    6705    6717      22    6696    6699   -6705    6717      23
    6696    6699    6705    6720      22    6696    6699   -6705    6720      23
    6696    6699    6705    6723      22    6696    6699   -6705    6723      23
    6735    6729    6732    6738      21    6735    6729    6732    6741      21
    6735    6729    6732    6744      21    6732    6729    6735    6747      21
    6732    6729    6735    6750      21    6732    6729    6735    6753      21
    6726    6729    6732    6738      22    6726    6729   -6732    6738      23
    6726    6729    6732    6741      22    6726    6729   -6732    6741      23
    6726    6729    6732    6744      22    6726    6729   -6732    6744      23
    6726    6729    6735    6747      22    6726    6729   -6735    6747      23
    6726    6729    6735    6750      22    6726    6729   -6735    6750      23
    6726    6729    6735    6753      22    6726    6729   -6735    6753      23
    6765    6759    6762    6768      21    6765    6759    6762    6771      21
    6765    6759    6762    6774      21    6762    6759    6765    6777      21
    6762    6759    6765    6780      21    6762    6759    6765    6783      21
    6756    6759    6762    6768      22    6756    6759   -6762    6768      23
    6756    6759    6762    6771      22    6756    6759   -6762    6771      23
    6756    6759    6762    6774      22    6756    6759   -6762    6774      23
    6756    6759    6765    6777      22    6756    6759   -6765    6777      23
    6756    6759    6765    6780      22    6756    6759   -6765    6780      23
    6756    6759    6765    6783      22    6756    6759   -6765    6783      23
    6795    6789    6792    6798      21    6795    6789    6792    6801      21
    6795    6789    6792    6804      21    6792    6789    6795    6807      21
    6792    6789    6795    6810      21    6792    6789    6795    6813      21
    6786    6789    6792    6798      22    6786    6789   -6792    6798      23
    6786    6789    6792    6801      22    6786    6789   -6792    6801      23
    6786    6789    6792    6804      22    6786    6789   -6792    6804      23
    6786    6789    6795    6807      22    6786    6789   -6795    6807      23
    6786    6789    6795    6810      22    6786    6789   -6795    6810      23
    6786    6789    6795    6813      22    6786    6789   -6795    6813      23
    6825    6819    6822    6828      21    6825    6819    6822    6831      21
    6825    6819    6822    6834      21    6822    6819    6825    6837      21
    6822    6819    6825    6840      21    6822    6819    6825    6843      21
    6816    6819    6822    6828      22    6816    6819   -6822    6828      23
    6816    6819    6822    6831      22    6816    6819   -6822    6831      23
    6816    6819    6822    6834      22    6816    6819   -6822    6834      23
    6816    6819    6825    6837      22    6816    6819   -6825    6837      23
    6816    6819    6825    6840      22    6816    6819   -6825    6840      23
    6816    6819    6825    6843      22    6816    6819   -6825    6843      23
    6855    6849    6852    6858      21    6855    6849    6852    6861      21
    6855    6849    6852    6864      21    6852    6849    6855    6867      21
    6852    6849    6855    6870      21    6852    6849    6855    6873      21
    6846    6849    6852    6858      22    6846    6849   -6852    6858      23
    6846    6849    6852    6861      22    6846    6849   -6852    6861      23
    6846    6849    6852    6864      22    6846    6849   -6852    6864      23
    6846    6849    6855    6867      22    6846    6849   -6855    6867      23
    6846    6849    6855    6870      22    6846    6849   -6855    6870      23
    6846    6849    6855    6873      22    6846    6849   -6855    6873      23
    6885    6879    6882    6888      21    6885    6879    6882    6891      21
    6885    6879    6882    6894      21    6882    6879    6885    6897      21
    6882    6879    6885    6900      21    6882    6879    6885    6903      21
    6876    6879    6882    6888      22    6876    6879   -6882    6888      23
    6876    6879    6882    6891      22    6876    6879   -6882    6891      23
    6876    6879    6882    6894      22    6876    6879   -6882    6894      23
    6876    6879    6885    6897      22    6876    6879   -6885    6897      23
    6876    6879    6885    6900      22    6876    6879   -6885    6900      23
    6876    6879    6885    6903      22    6876    6879   -6885    6903      23
    6915    6909    6912    6918      21    6915    6909    6912    6921      21
    6915    6909    6912    6924      21    6912    6909    6915    6927      21
    6912    6909    6915    6930      21    6912    6909    6915    6933      21
    6906    6909    6912    6918      22    6906    6909   -6912    6918      23
    6906    6909    6912    6921      22    6906    6909   -6912    6921      23
    6906    6909    6912    6924      22    6906    6909   -6912    6924      23
    6906    6909    6915    6927      22    6906    6909   -6915    6927      23
    6906    6909    6915    6930      22    6906    6909   -6915    6930      23
    6906    6909    6915    6933      22    6906    6909   -6915    6933      23
    6945    6939    6942    6948      21    6945    6939    6942    6951      21
    6945    6939    6942    6954      21    6942    6939    6945    6957      21
    6942    6939    6945    6960      21    6942    6939    6945    6963      21
    6936    6939    6942    6948      22    6936    6939   -6942    6948      23
    6936    6939    6942    6951      22    6936    6939   -6942    6951      23
    6936    6939    6942    6954      22    6936    6939   -6942    6954      23
    6936    6939    6945    6957      22    6936    6939   -6945    6957      23
    6936    6939    6945    6960      22    6936    6939   -6945    6960      23
    6936    6939    6945    6963      22    6936    6939   -6945    6963      23
    6975    6969    6972    6978      21    6975    6969    6972    6981      21
    6975    6969    6972    6984      21    6972    6969    6975    6987      21
    6972    6969    6975    6990      21    6972    6969    6975    6993      21
    6966    6969    6972    6978      22    6966    6969   -6972    6978      23
    6966    6969    6972    6981      22    6966    6969   -6972    6981      23
    6966    6969    6972    6984      22    6966    6969   -6972    6984      23
    6966    6969    6975    6987      22    6966    6969   -6975    6987      23
    6966    6969    6975    6990      22    6966    6969   -6975    6990      23
    6966    6969    6975    6993      22    6966    6969   -6975    6993      23
    7005    6999    7002    7008      21    7005    6999    7002    7011      21
    7005    6999    7002    7014      21    7002    6999    7005    7017      21
    7002    6999    7005    7020      21    7002    6999    7005    7023      21
    6996    6999    7002    7008      22    6996    6999   -7002    7008      23
    6996    6999    7002    7011      22    6996    6999   -7002    7011      23
    6996    6999    7002    7014      22    6996    6999   -7002    7014      23
    6996    6999    7005    7017      22    6996    6999   -7005    7017      23
    6996    6999    7005    7020      22    6996    6999   -7005    7020      23
    6996    6999    7005    7023      22    6996    6999   -7005    7023      23
    7035    7029    7032    7038      21    7035    7029    7032    7041      21
    7035    7029    7032    7044      21    7032    7029    7035    7047      21
    7032    7029    7035    7050      21    7032    7029    7035    7053      21
    7026    7029    7032    7038      22    7026    7029   -7032    7038      23
    7026    7029    7032    7041      22    7026    7029   -7032    7041      23
    7026    7029    7032    7044      22    7026    7029   -7032    7044      23
    7026    7029    7035    7047      22    7026    7029   -7035    7047      23
    7026    7029    7035    7050      22    7026    7029   -7035    7050      23
    7026    7029    7035    7053      22    7026    7029   -7035    7053      23
    7065    7059    7062    7068      21    7065    7059    7062    7071      21
    7065    7059    7062    7074      21    7062    7059    7065    7077      21
    7062    7059    7065    7080      21    7062    7059    7065    7083      21
    7056    7059    7062    7068      22    7056    7059   -7062    7068      23
    7056    7059    7062    7071      22    7056    7059   -7062    7071      23
    7056    7059    7062    7074      22    7056    7059   -7062    7074      23
    7056    7059    7065    7077      22    7056    7059   -7065    7077      23
    7056    7059    7065    7080      22    7056    7059   -7065    7080      23
    7056    7059    7065    7083      22    7056    7059   -7065    7083      23
    7095    7089    7092    7098      21    7095    7089    7092    7101      21
    7095    7089    7092    7104      21    7092    7089    7095    7107      21
    7092    7089    7095    7110      21    7092    7089    7095    7113      21
    7086    7089    7092    7098      22    7086    7089   -7092    7098      23
    7086    7089    7092    7101      22    7086    7089   -7092    7101      23
    7086    7089    7092    7104      22    7086    7089   -7092    7104      23
    7086    7089    7095    7107      22    7086    7089   -7095    7107      23
    7086    7089    7095    7110      22    7086    7089   -7095    7110      23
    7086    7089    7095    7113      22    7086    7089   -7095    7113      23
    7125    7119    7122    7128      21    7125    7119    7122    7131      21
    7125    7119    7122    7134      21    7122    7119    7125    7137      21
    7122    7119    7125    7140      21    7122    7119    7125    7143      21
    7116    7119    7122    7128      22    7116    7119   -7122    7128      23
    7116    7119    7122    7131      22    7116    7119   -7122    7131      23
    7116    7119    7122    7134      22    7116    7119   -7122    7134      23
    7116    7119    7125    7137      22    7116    7119   -7125    7137      23
    7116    7119    7125    7140      22    7116    7119   -7125    7140      23
    7116    7119    7125    7143      22    7116    7119   -7125    7143      23
    7155    7149    7152    7158      21    7155    7149    7152    7161      21
    7155    7149    7152    7164      21    7152    7149    7155    7167      21
    7152    7149    7155    7170      21    7152    7149    7155    7173      21
    7146    7149    7152    7158      22    7146    7149   -7152    7158      23
    7146    7149    7152    7161      22    7146    7149   -7152    7161      23
    7146    7149    7152    7164      22    7146    7149   -7152    7164      23
    7146    7149    7155    7167      22    7146    7149   -7155    7167      23
    7146    7149    7155    7170      22    7146    7149   -7155    7170      23
    7146    7149    7155    7173      22    7146    7149   -7155    7173      23
    7185    7179    7182    7188      21    7185    7179    7182    7191      21
    7185    7179    7182    7194      21    7182    7179    7185    7197      21
    7182    7179    7185    7200      21    7182    7179    7185    7203      21
    7176    7179    7182    7188      22    7176    7179   -7182    7188      23
    7176    7179    7182    7191      22    7176    7179   -7182    7191      23
    7176    7179    7182    7194      22    7176    7179   -7182    7194      23
    7176    7179    7185    7197      22    7176    7179   -7185    7197      23
    7176    7179    7185    7200      22    7176    7179   -7185    7200      23
    7176    7179    7185    7203      22    7176    7179   -7185    7203      23
    7215    7209    7212    7218      21    7215    7209    7212    7221      21
    7215    7209    7212    7224      21    7212    7209    7215    7227      21
    7212    7209    7215    7230      21    7212    7209    7215    7233      21
    7206    7209    7212    7218      22    7206    7209   -7212    7218      23
    7206    7209    7212    7221      22    7206    7209   -7212    7221      23
    7206    7209    7212    7224      22    7206    7209   -7212    7224      23
    7206    7209    7215    7227      22    7206    7209   -7215    7227      23
    7206    7209    7215    7230      22    7206    7209   -7215    7230      23
    7206    7209    7215    7233      22    7206    7209   -7215    7233      23
    7245    7239    7242    7248      21    7245    7239    7242    7251      21
    7245    7239    7242    7254      21    7242    7239    7245    7257      21
    7242    7239    7245    7260      21    7242    7239    7245    7263      21
    7236    7239    7242    7248      22    7236    7239   -7242    7248      23
    7236    7239    7242    7251      22    7236    7239   -7242    7251      23
    7236    7239    7242    7254      22    7236    7239   -7242    7254      23
    7236    7239    7245    7257      22    7236    7239   -7245    7257      23
    7236    7239    7245    7260      22    7236    7239   -7245    7260      23
    7236    7239    7245    7263      22    7236    7239   -7245    7263      23
    7275    7269    7272    7278      21    7275    7269    7272    7281      21
    7275    7269    7272    7284      21    7272    7269    7275    7287      21
    7272    7269    7275    7290      21    7272    7269    7275    7293      21
    7266    7269    7272    7278      22    7266    7269   -7272    7278      23
    7266    7269    7272    7281      22    7266    7269   -7272    7281      23
    7266    7269    7272    7284      22    7266    7269   -7272    7284      23
    7266    7269    7275    7287      22    7266    7269   -7275    7287      23
    7266    7269    7275    7290      22    7266    7269   -7275    7290      23
    7266    7269    7275    7293      22    7266    7269   -7275    7293      23
    7305    7299    7302    7308      21    7305    7299    7302    7311      21
    7305    7299    7302    7314      21    7302    7299    7305    7317      21
    7302    7299    7305    7320      21    7302    7299    7305    7323      21
    7296    7299    7302    7308      22    7296    7299   -7302    7308      23
    7296    7299    7302    7311      22    7296    7299   -7302    7311      23
    7296    7299    7302    7314      22    7296    7299   -7302    7314      23
    7296    7299    7305    7317      22    7296    7299   -7305    7317      23
    7296    7299    7305    7320      22    7296    7299   -7305    7320      23
    7296    7299    7305    7323      22    7296    7299   -7305    7323      23
    7335    7329    7332    7338      21    7335    7329    7332    7341      21
    7335    7329    7332    7344      21    7332    7329    7335    7347      21
    7332    7329    7335    7350      21    7332    7329    7335    7353      21
    7326    7329    7332    7338      22    7326    7329   -7332    7338      23
    7326    7329    7332    7341      22    7326    7329   -7332    7341      23
    7326    7329    7332    7344      22    7326    7329   -7332    7344      23
    7326    7329    7335    7347      22    7326    7329   -7335    7347      23
    7326    7329    7335    7350      22    7326    7329   -7335    7350      23
    7326    7329    7335    7353      22    7326    7329   -7335    7353      23
    7365    7359    7362    7368      21    7365    7359    7362    7371      21
    7365    7359    7362    7374      21    7362    7359    7365    7377      21
    7362    7359    7365    7380      21    7362    7359    7365    7383      21
    7356    7359    7362    7368      22    7356    7359   -7362    7368      23
    7356    7359    7362    7371      22    7356    7359   -7362    7371      23
    7356    7359    7362    7374      22    7356    7359   -7362    7374      23
    7356    7359    7365    7377      22    7356    7359   -7365    7377      23
    7356    7359    7365    7380      22    7356    7359   -7365    7380      23
    7356    7359    7365    7383      22    7356    7359   -7365    7383      23
    7395    7389    7392    7398      21    7395    7389    7392    7401      21
    7395    7389    7392    7404      21    7392    7389    7395    7407      21
    7392    7389    7395    7410      21    7392    7389    7395    7413      21
    7386    7389    7392    7398      22    7386    7389   -7392    7398      23
    7386    7389    7392    7401      22    7386    7389   -7392    7401      23
    7386    7389    7392    7404      22    7386    7389   -7392    7404      23
    7386    7389    7395    7407      22    7386    7389   -7395    7407      23
    7386    7389    7395    7410      22    7386    7389   -7395    7410      23
    7386    7389    7395    7413      22    7386    7389   -7395    7413      23
    7425    7419    7422    7428      21    7425    7419    7422    7431      21
    7425    7419    7422    7434      21    7422    7419    7425    7437      21
    7422    7419    7425    7440      21    7422    7419    7425    7443      21
    7416    7419    7422    7428      22    7416    7419   -7422    7428      23
    7416    7419    7422    7431      22    7416    7419   -7422    7431      23
    7416    7419    7422    7434      22    7416    7419   -7422    7434      23
    7416    7419    7425    7437      22    7416    7419   -7425    7437      23
    7416    7419    7425    7440      22    7416    7419   -7425    7440      23
    7416    7419    7425    7443      22    7416    7419   -7425    7443      23
    7455    7449    7452    7458      21    7455    7449    7452    7461      21
    7455    7449    7452    7464      21    7452    7449    7455    7467      21
    7452    7449    7455    7470      21    7452    7449    7455    7473      21
    7446    7449    7452    7458      22    7446    7449   -7452    7458      23
    7446    7449    7452    7461      22    7446    7449   -7452    7461      23
    7446    7449    7452    7464      22    7446    7449   -7452    7464      23
    7446    7449    7455    7467      22    7446    7449   -7455    7467      23
    7446    7449    7455    7470      22    7446    7449   -7455    7470      23
    7446    7449    7455    7473      22    7446    7449   -7455    7473      23
    7485    7479    7482    7488      21    7485    7479    7482    7491      21
    7485    7479    7482    7494      21    7482    7479    7485    7497      21
    7482    7479    7485    7500      21    7482    7479    7485    7503      21
    7476    7479    7482    7488      22    7476    7479   -7482    7488      23
    7476    7479    7482    7491      22    7476    7479   -7482    7491      23
    7476    7479    7482    7494      22    7476    7479   -7482    7494      23
    7476    7479    7485    7497      22    7476    7479   -7485    7497      23
    7476    7479    7485    7500      22    7476    7479   -7485    7500      23
    7476    7479    7485    7503      22    7476    7479   -7485    7503      23
    7515    7509    7512    7518      21    7515    7509    7512    7521      21
    7515    7509    7512    7524      21    7512    7509    7515    7527      21
    7512    7509    7515    7530      21    7512    7509    7515    7533      21
    7506    7509    7512    7518      22    7506    7509   -7512    7518      23
    7506    7509    7512    7521      22    7506    7509   -7512    7521      23
    7506    7509    7512    7524      22    7506    7509   -7512    7524      23
    7506    7509    7515    7527      22    7506    7509   -7515    7527      23
    7506    7509    7515    7530      22    7506    7509   -7515    7530      23
    7506    7509    7515    7533      22    7506    7509   -7515    7533      23
    7545    7539    7542    7548      21    7545    7539    7542    7551      21
    7545    7539    7542    7554      21    7542    7539    7545    7557      21
    7542    7539    7545    7560      21    7542    7539    7545    7563      21
    7536    7539    7542    7548      22    7536    7539   -7542    7548      23
    7536    7539    7542    7551      22    7536    7539   -7542    7551      23
    7536    7539    7542    7554      22    7536    7539   -7542    7554      23
    7536    7539    7545    7557      22    7536    7539   -7545    7557      23
    7536    7539    7545    7560      22    7536    7539   -7545    7560      23
    7536    7539    7545    7563      22    7536    7539   -7545    7563      23
    7575    7569    7572    7578      21    7575    7569    7572    7581      21
    7575    7569    7572    7584      21    7572    7569    7575    7587      21
    7572    7569    7575    7590      21    7572    7569    7575    7593      21
    7566    7569    7572    7578      22    7566    7569   -7572    7578      23
    7566    7569    7572    7581      22    7566    7569   -7572    7581      23
    7566    7569    7572    7584      22    7566    7569   -7572    7584      23
    7566    7569    7575    7587      22    7566    7569   -7575    7587      23
    7566    7569    7575    7590      22    7566    7569   -7575    7590      23
    7566    7569    7575    7593      22    7566    7569   -7575    7593      23
    7605    7599    7602    7608      21    7605    7599    7602    7611      21
    7605    7599    7602    7614      21    7602    7599    7605    7617      21
    7602    7599    7605    7620      21    7602    7599    7605    7623      21
    7596    7599    7602    7608      22    7596    7599   -7602    7608      23
    7596    7599    7602    7611      22    7596    7599   -7602    7611      23
    7596    7599    7602    7614      22    7596    7599   -7602    7614      23
    7596    7599    7605    7617      22    7596    7599   -7605    7617      23
    7596    7599    7605    7620      22    7596    7599   -7605    7620      23
    7596    7599    7605    7623      22    7596    7599   -7605    7623      23
    7635    7629    7632    7638      21    7635    7629    7632    7641      21
    7635    7629    7632    7644      21    7632    7629    7635    7647      21
    7632    7629    7635    7650      21    7632    7629    7635    7653      21
    7626    7629    7632    7638      22    7626    7629   -7632    7638      23
    7626    7629    7632    7641      22    7626    7629   -7632    7641      23
    7626    7629    7632    7644      22    7626    7629   -7632    7644      23
    7626    7629    7635    7647      22    7626    7629   -7635    7647      23
    7626    7629    7635    7650      22    7626    7629   -7635    7650      23
    7626    7629    7635    7653      22    7626    7629   -7635    7653      23
    7665    7659    7662    7668      21    7665    7659    7662    7671      21
    7665    7659    7662    7674      21    7662    7659    7665    7677      21
    7662    7659    7665    7680      21    7662    7659    7665    7683      21
    7656    7659    7662    7668      22    7656    7659   -7662    7668      23
    7656    7659    7662    7671      22    7656    7659   -7662    7671      23
    7656    7659    7662    7674      22    7656    7659   -7662    7674      23
    7656    7659    7665    7677      22    7656    7659   -7665    7677      23
    7656    7659    7665    7680      22    7656    7659   -7665    7680      23
    7656    7659    7665    7683      22    7656    7659   -7665    7683      23
    7695    7689    7692    7698      21    7695    7689    7692    7701      21
    7695    7689    7692    7704      21    7692    7689    7695    7707      21
    7692    7689    7695    7710      21    7692    7689    7695    7713      21
    7686    7689    7692    7698      22    7686    7689   -7692    7698      23
    7686    7689    7692    7701      22    7686    7689   -7692    7701      23
    7686    7689    7692    7704      22    7686    7689   -7692    7704      23
    7686    7689    7695    7707      22    7686    7689   -7695    7707      23
    7686    7689    7695    7710      22    7686    7689   -7695    7710      23
    7686    7689    7695    7713      22    7686    7689   -7695    7713      23
    7725    7719    7722    7728      21    7725    7719    7722    7731      21
    7725    7719    7722    7734      21    7722    7719    7725    7737      21
    7722    7719    7725    7740      21    7722    7719    7725    7743      21
    7716    7719    7722    7728      22    7716    7719   -7722    7728      23
    7716    7719    7722    7731      22    7716    7719   -7722    7731      23
    7716    7719    7722    7734      22    7716    7719   -7722    7734      23
    7716    7719    7725    7737      22    7716    7719   -7725    7737      23
    7716    7719    7725    7740      22    7716    7719   -7725    7740      23
    7716    7719    7725    7743      22    7716    7719   -7725    7743      23
    7755    7749    7752    7758      21    7755    7749    7752    7761      21
    7755    7749    7752    7764      21    7752    7749    7755    7767      21
    7752    7749    7755    7770      21    7752    7749    7755    7773      21
    7746    7749    7752    7758      22    7746    7749   -7752    7758      23
    7746    7749    7752    7761      22    7746    7749   -7752    7761      23
    7746    7749    7752    7764      22    7746    7749   -7752    7764      23
    7746    7749    7755    7767      22    7746    7749   -7755    7767      23
    7746    7749    7755    7770      22    7746    7749   -7755    7770      23
    7746    7749    7755    7773      22    7746    7749   -7755    7773      23
    7785    7779    7782    7788      21    7785    7779    7782    7791      21
    7785    7779    7782    7794      21    7782    7779    7785    7797      21
    7782    7779    7785    7800      21    7782    7779    7785    7803      21
    7776    7779    7782    7788      22    7776    7779   -7782    7788      23
    7776    7779    7782    7791      22    7776    7779   -7782    7791      23
    7776    7779    7782    7794      22    7776    7779   -7782    7794      23
    7776    7779    7785    7797      22    7776    7779   -7785    7797      23
    7776    7779    7785    7800      22    7776    7779   -7785    7800      23
    7776    7779    7785    7803      22    7776    7779   -7785    7803      23
    7815    7809    7812    7818      21    7815    7809    7812    7821      21
    7815    7809    7812    7824      21    7812    7809    7815    7827      21
    7812    7809    7815    7830      21    7812    7809    7815    7833      21
    7806    7809    7812    7818      22    7806    7809   -7812    7818      23
    7806    7809    7812    7821      22    7806    7809   -7812    7821      23
    7806    7809    7812    7824      22    7806    7809   -7812    7824      23
    7806    7809    7815    7827      22    7806    7809   -7815    7827      23
    7806    7809    7815    7830      22    7806    7809   -7815    7830      23
    7806    7809    7815    7833      22    7806    7809   -7815    7833      23
    7845    7839    7842    7848      21    7845    7839    7842    7851      21
    7845    7839    7842    7854      21    7842    7839    7845    7857      21
    7842    7839    7845    7860      21    7842    7839    7845    7863      21
    7836    7839    7842    7848      22    7836    7839   -7842    7848      23
    7836    7839    7842    7851      22    7836    7839   -7842    7851      23
    7836    7839    7842    7854      22    7836    7839   -7842    7854      23
    7836    7839    7845    7857      22    7836    7839   -7845    7857      23
    7836    7839    7845    7860      22    7836    7839   -7845    7860      23
    7836    7839    7845    7863      22    7836    7839   -7845    7863      23
    7875    7869    7872    7878      21    7875    7869    7872    7881      21
    7875    7869    7872    7884      21    7872    7869    7875    7887      21
    7872    7869    7875    7890      21    7872    7869    7875    7893      21
    7866    7869    7872    7878      22    7866    7869   -7872    7878      23
    7866    7869    7872    7881      22    7866    7869   -7872    7881      23
    7866    7869    7872    7884      22    7866    7869   -7872    7884      23
    7866    7869    7875    7887      22    7866    7869   -7875    7887      23
    7866    7869    7875    7890      22    7866    7869   -7875    7890      23
    7866    7869    7875    7893      22    7866    7869   -7875    7893      23
    7905    7899    7902    7908      21    7905    7899    7902    7911      21
    7905    7899    7902    7914      21    7902    7899    7905    7917      21
    7902    7899    7905    7920      21    7902    7899    7905    7923      21
    7896    7899    7902    7908      22    7896    7899   -7902    7908      23
    7896    7899    7902    7911      22    7896    7899   -7902    7911      23
    7896    7899    7902    7914      22    7896    7899   -7902    7914      23
    7896    7899    7905    7917      22    7896    7899   -7905    7917      23
    7896    7899    7905    7920      22    7896    7899   -7905    7920      23
    7896    7899    7905    7923      22    7896    7899   -7905    7923      23
    7935    7929    7932    7938      21    7935    7929    7932    7941      21
    7935    7929    7932    7944      21    7932    7929    7935    7947      21
    7932    7929    7935    7950      21    7932    7929    7935    7953      21
    7926    7929    7932    7938      22    7926    7929   -7932    7938      23
    7926    7929    7932    7941      22    7926    7929   -7932    7941      23
    7926    7929    7932    7944      22    7926    7929   -7932    7944      23
    7926    7929    7935    7947      22    7926    7929   -7935    7947      23
    7926    7929    7935    7950      22    7926    7929   -7935    7950      23
    7926    7929    7935    7953      22    7926    7929   -7935    7953      23
    7965    7959    7962    7968      21    7965    7959    7962    7971      21
    7965    7959    7962    7974      21    7962    7959    7965    7977      21
    7962    7959    7965    7980      21    7962    7959    7965    7983      21
    7956    7959    7962    7968      22    7956    7959   -7962    7968      23
    7956    7959    7962    7971      22    7956    7959   -7962    7971      23
    7956    7959    7962    7974      22    7956    7959   -7962    7974      23
    7956    7959    7965    7977      22    7956    7959   -7965    7977      23
    7956    7959    7965    7980      22    7956    7959   -7965    7980      23
    7956    7959    7965    7983      22    7956    7959   -7965    7983      23
    7995    7989    7992    7998      21    7995    7989    7992    8001      21
    7995    7989    7992    8004      21    7992    7989    7995    8007      21
    7992    7989    7995    8010      21    7992    7989    7995    8013      21
    7986    7989    7992    7998      22    7986    7989   -7992    7998      23
    7986    7989    7992    8001      22    7986    7989   -7992    8001      23
    7986    7989    7992    8004      22    7986    7989   -7992    8004      23
    7986    7989    7995    8007      22    7986    7989   -7995    8007      23
    7986    7989    7995    8010      22    7986    7989   -7995    8010      23
    7986    7989    7995    8013      22    7986    7989   -7995    8013      23
    8025    8019    8022    8028      21    8025    8019    8022    8031      21
    8025    8019    8022    8034      21    8022    8019    8025    8037      21
    8022    8019    8025    8040      21    8022    8019    8025    8043      21
    8016    8019    8022    8028      22    8016    8019   -8022    8028      23
    8016    8019    8022    8031      22    8016    8019   -8022    8031      23
    8016    8019    8022    8034      22    8016    8019   -8022    8034      23
    8016    8019    8025    8037      22    8016    8019   -8025    8037      23
    8016    8019    8025    8040      22    8016    8019   -8025    8040      23
    8016    8019    8025    8043      22    8016    8019   -8025    8043      23
    8055    8049    8052    8058      21    8055    8049    8052    8061      21
    8055    8049    8052    8064      21    8052    8049    8055    8067      21
    8052    8049    8055    8070      21    8052    8049    8055    8073      21
    8046    8049    8052    8058      22    8046    8049   -8052    8058      23
    8046    8049    8052    8061      22    8046    8049   -8052    8061      23
    8046    8049    8052    8064      22    8046    8049   -8052    8064      23
    8046    8049    8055    8067      22    8046    8049   -8055    8067      23
    8046    8049    8055    8070      22    8046    8049   -8055    8070      23
    8046    8049    8055    8073      22    8046    8049   -8055    8073      23
    8085    8079    8082    8088      21    8085    8079    8082    8091      21
    8085    8079    8082    8094      21    8082    8079    8085    8097      21
    8082    8079    8085    8100      21    8082    8079    8085    8103      21
    8076    8079    8082    8088      22    8076    8079   -8082    8088      23
    8076    8079    8082    8091      22    8076    8079   -8082    8091      23
    8076    8079    8082    8094      22    8076    8079   -8082    8094      23
    8076    8079    8085    8097      22    8076    8079   -8085    8097      23
    8076    8079    8085    8100      22    8076    8079   -8085    8100      23
    8076    8079    8085    8103      22    8076    8079   -8085    8103      23
    8115    8109    8112    8118      21    8115    8109    8112    8121      21
    8115    8109    8112    8124      21    8112    8109    8115    8127      21
    8112    8109    8115    8130      21    8112    8109    8115    8133      21
    8106    8109    8112    8118      22    8106    8109   -8112    8118      23
    8106    8109    8112    8121      22    8106    8109   -8112    8121      23
    8106    8109    8112    8124      22    8106    8109   -8112    8124      23
    8106    8109    8115    8127      22    8106    8109   -8115    8127      23
    8106    8109    8115    8130      22    8106    8109   -8115    8130      23
    8106    8109    8115    8133      22    8106    8109   -8115    8133      23
    8145    8139    8142    8148      21    8145    8139    8142    8151      21
    8145    8139    8142    8154      21    8142    8139    8145    8157      21
    8142    8139    8145    8160      21    8142    8139    8145    8163      21
    8136    8139    8142    8148      22    8136    8139   -8142    8148      23
    8136    8139    8142    8151      22    8136    8139   -8142    8151      23
    8136    8139    8142    8154      22    8136    8139   -8142    8154      23
    8136    8139    8145    8157      22    8136    8139   -8145    8157      23
    8136    8139    8145    8160      22    8136    8139   -8145    8160      23
    8136    8139    8145    8163      22    8136    8139   -8145    8163      23
    8175    8169    8172    8178      21    8175    8169    8172    8181      21
    8175    8169    8172    8184      21    8172    8169    8175    8187      21
    8172    8169    8175    8190      21    8172    8169    8175    8193      21
    8166    8169    8172    8178      22    8166    8169   -8172    8178      23
    8166    8169    8172    8181      22    8166    8169   -8172    8181      23
    8166    8169    8172    8184      22    8166    8169   -8172    8184      23
    8166    8169    8175    8187      22    8166    8169   -8175    8187      23
    8166    8169    8175    8190      22    8166    8169   -8175    8190      23
    8166    8169    8175    8193      22    8166    8169   -8175    8193      23
    8205    8199    8202    8208      21    8205    8199    8202    8211      21
    8205    8199    8202    8214      21    8202    8199    8205    8217      21
    8202    8199    8205    8220      21    8202    8199    8205    8223      21
    8196    8199    8202    8208      22    8196    8199   -8202    8208      23
    8196    8199    8202    8211      22    8196    8199   -8202    8211      23
    8196    8199    8202    8214      22    8196    8199   -8202    8214      23
    8196    8199    8205    8217      22    8196    8199   -8205    8217      23
    8196    8199    8205    8220      22    8196    8199   -8205    8220      23
    8196    8199    8205    8223      22    8196    8199   -8205    8223      23
    8235    8229    8232    8238      21    8235    8229    8232    8241      21
    8235    8229    8232    8244      21    8232    8229    8235    8247      21
    8232    8229    8235    8250      21    8232    8229    8235    8253      21
    8226    8229    8232    8238      22    8226    8229   -8232    8238      23
    8226    8229    8232    8241      22    8226    8229   -8232    8241      23
    8226    8229    8232    8244      22    8226    8229   -8232    8244      23
    8226    8229    8235    8247      22    8226    8229   -8235    8247      23
    8226    8229    8235    8250      22    8226    8229   -8235    8250      23
    8226    8229    8235    8253      22    8226    8229   -8235    8253      23
    8265    8259    8262    8268      21    8265    8259    8262    8271      21
    8265    8259    8262    8274      21    8262    8259    8265    8277      21
    8262    8259    8265    8280      21    8262    8259    8265    8283      21
    8256    8259    8262    8268      22    8256    8259   -8262    8268      23
    8256    8259    8262    8271      22    8256    8259   -8262    8271      23
    8256    8259    8262    8274      22    8256    8259   -8262    8274      23
    8256    8259    8265    8277      22    8256    8259   -8265    8277      23
    8256    8259    8265    8280      22    8256    8259   -8265    8280      23
    8256    8259    8265    8283      22    8256    8259   -8265    8283      23
    8295    8289    8292    8298      21    8295    8289    8292    8301      21
    8295    8289    8292    8304      21    8292    8289    8295    8307      21
    8292    8289    8295    8310      21    8292    8289    8295    8313      21
    8286    8289    8292    8298      22    8286    8289   -8292    8298      23
    8286    8289    8292    8301      22    8286    8289   -8292    8301      23
    8286    8289    8292    8304      22    8286    8289   -8292    8304      23
    8286    8289    8295    8307      22    8286    8289   -8295    8307      23
    8286    8289    8295    8310      22    8286    8289   -8295    8310      23
    8286    8289    8295    8313      22    8286    8289   -8295    8313      23
    8325    8319    8322    8328      21    8325    8319    8322    8331      21
    8325    8319    8322    8334      21    8322    8319    8325    8337      21
    8322    8319    8325    8340      21    8322    8319    8325    8343      21
    8316    8319    8322    8328      22    8316    8319   -8322    8328      23
    8316    8319    8322    8331      22    8316    8319   -8322    8331      23
    8316    8319    8322    8334      22    8316    8319   -8322    8334      23
    8316    8319    8325    8337      22    8316    8319   -8325    8337      23
    8316    8319    8325    8340      22    8316    8319   -8325    8340      23
    8316    8319    8325    8343      22    8316    8319   -8325    8343      23
    8355    8349    8352    8358      21    8355    8349    8352    8361      21
    8355    8349    8352    8364      21    8352    8349    8355    8367      21
    8352    8349    8355    8370      21    8352    8349    8355    8373      21
    8346    8349    8352    8358      22    8346    8349   -8352    8358      23
    8346    8349    8352    8361      22    8346    8349   -8352    8361      23
    8346    8349    8352    8364      22    8346    8349   -8352    8364      23
    8346    8349    8355    8367      22    8346    8349   -8355    8367      23
    8346    8349    8355    8370      22    8346    8349   -8355    8370      23
    8346    8349    8355    8373      22    8346    8349   -8355    8373      23
    8385    8379    8382    8388      21    8385    8379    8382    8391      21
    8385    8379    8382    8394      21    8382    8379    8385    8397      21
    8382    8379    8385    8400      21    8382    8379    8385    8403      21
    8376    8379    8382    8388      22    8376    8379   -8382    8388      23
    8376    8379    8382    8391      22    8376    8379   -8382    8391      23
    8376    8379    8382    8394      22    8376    8379   -8382    8394      23
    8376    8379    8385    8397      22    8376    8379   -8385    8397      23
    8376    8379    8385    8400      22    8376    8379   -8385    8400      23
    8376    8379    8385    8403      22    8376    8379   -8385    8403      23
    8415    8409    8412    8418      21    8415    8409    8412    8421      21
    8415    8409    8412    8424      21    8412    8409    8415    8427      21
    8412    8409    8415    8430      21    8412    8409    8415    8433      21
    8406    8409    8412    8418      22    8406    8409   -8412    8418      23
    8406    8409    8412    8421      22    8406    8409   -8412    8421      23
    8406    8409    8412    8424      22    8406    8409   -8412    8424      23
    8406    8409    8415    8427      22    8406    8409   -8415    8427      23
    8406    8409    8415    8430      22    8406    8409   -8415    8430      23
    8406    8409    8415    8433      22    8406    8409   -8415    8433      23
    8445    8439    8442    8448      21    8445    8439    8442    8451      21
    8445    8439    8442    8454      21    8442    8439    8445    8457      21
    8442    8439    8445    8460      21    8442    8439    8445    8463      21
    8436    8439    8442    8448      22    8436    8439   -8442    8448      23
    8436    8439    8442    8451      22    8436    8439   -8442    8451      23
    8436    8439    8442    8454      22    8436    8439   -8442    8454      23
    8436    8439    8445    8457      22    8436    8439   -8445    8457      23
    8436    8439    8445    8460      22    8436    8439   -8445    8460      23
    8436    8439    8445    8463      22    8436    8439   -8445    8463      23
    8475    8469    8472    8478      21    8475    8469    8472    8481      21
    8475    8469    8472    8484      21    8472    8469    8475    8487      21
    8472    8469    8475    8490      21    8472    8469    8475    8493      21
    8466    8469    8472    8478      22    8466    8469   -8472    8478      23
    8466    8469    8472    8481      22    8466    8469   -8472    8481      23
    8466    8469    8472    8484      22    8466    8469   -8472    8484      23
    8466    8469    8475    8487      22    8466    8469   -8475    8487      23
    8466    8469    8475    8490      22    8466    8469   -8475    8490      23
    8466    8469    8475    8493      22    8466    8469   -8475    8493      23
    8505    8499    8502    8508      21    8505    8499    8502    8511      21
    8505    8499    8502    8514      21    8502    8499    8505    8517      21
    8502    8499    8505    8520      21    8502    8499    8505    8523      21
    8496    8499    8502    8508      22    8496    8499   -8502    8508      23
    8496    8499    8502    8511      22    8496    8499   -8502    8511      23
    8496    8499    8502    8514      22    8496    8499   -8502    8514      23
    8496    8499    8505    8517      22    8496    8499   -8505    8517      23
    8496    8499    8505    8520      22    8496    8499   -8505    8520      23
    8496    8499    8505    8523      22    8496    8499   -8505    8523      23
    8535    8529    8532    8538      21    8535    8529    8532    8541      21
    8535    8529    8532    8544      21    8532    8529    8535    8547      21
    8532    8529    8535    8550      21    8532    8529    8535    8553      21
    8526    8529    8532    8538      22    8526    8529   -8532    8538      23
    8526    8529    8532    8541      22    8526    8529   -8532    8541      23
    8526    8529    8532    8544      22    8526    8529   -8532    8544      23
    8526    8529    8535    8547      22    8526    8529   -8535    8547      23
    8526    8529    8535    8550      22    8526    8529   -8535    8550      23
    8526    8529    8535    8553      22    8526    8529   -8535    8553      23
    8565    8559    8562    8568      21    8565    8559    8562    8571      21
    8565    8559    8562    8574      21    8562    8559    8565    8577      21
    8562    8559    8565    8580      21    8562    8559    8565    8583      21
    8556    8559    8562    8568      22    8556    8559   -8562    8568      23
    8556    8559    8562    8571      22    8556    8559   -8562    8571      23
    8556    8559    8562    8574      22    8556    8559   -8562    8574      23
    8556    8559    8565    8577      22    8556    8559   -8565    8577      23
    8556    8559    8565    8580      22    8556    8559   -8565    8580      23
    8556    8559    8565    8583      22    8556    8559   -8565    8583      23
    8595    8589    8592    8598      21    8595    8589    8592    8601      21
    8595    8589    8592    8604      21    8592    8589    8595    8607      21
    8592    8589    8595    8610      21    8592    8589    8595    8613      21
    8586    8589    8592    8598      22    8586    8589   -8592    8598      23
    8586    8589    8592    8601      22    8586    8589   -8592    8601      23
    8586    8589    8592    8604      22    8586    8589   -8592    8604      23
    8586    8589    8595    8607      22    8586    8589   -8595    8607      23
    8586    8589    8595    8610      22    8586    8589   -8595    8610      23
    8586    8589    8595    8613      22    8586    8589   -8595    8613      23
    8625    8619    8622    8628      21    8625    8619    8622    8631      21
    8625    8619    8622    8634      21    8622    8619    8625    8637      21
    8622    8619    8625    8640      21    8622    8619    8625    8643      21
    8616    8619    8622    8628      22    8616    8619   -8622    8628      23
    8616    8619    8622    8631      22    8616    8619   -8622    8631      23
    8616    8619    8622    8634      22    8616    8619   -8622    8634      23
    8616    8619    8625    8637      22    8616    8619   -8625    8637      23
    8616    8619    8625    8640      22    8616    8619   -8625    8640      23
    8616    8619    8625    8643      22    8616    8619   -8625    8643      23
    8655    8649    8652    8658      21    8655    8649    8652    8661      21
    8655    8649    8652    8664      21    8652    8649    8655    8667      21
    8652    8649    8655    8670      21    8652    8649    8655    8673      21
    8646    8649    8652    8658      22    8646    8649   -8652    8658      23
    8646    8649    8652    8661      22    8646    8649   -8652    8661      23
    8646    8649    8652    8664      22    8646    8649   -8652    8664      23
    8646    8649    8655    8667      22    8646    8649   -8655    8667      23
    8646    8649    8655    8670      22    8646    8649   -8655    8670      23
    8646    8649    8655    8673      22    8646    8649   -8655    8673      23
    8685    8679    8682    8688      21    8685    8679    8682    8691      21
    8685    8679    8682    8694      21    8682    8679    8685    8697      21
    8682    8679    8685    8700      21    8682    8679    8685    8703      21
    8676    8679    8682    8688      22    8676    8679   -8682    8688      23
    8676    8679    8682    8691      22    8676    8679   -8682    8691      23
    8676    8679    8682    8694      22    8676    8679   -8682    8694      23
    8676    8679    8685    8697      22    8676    8679   -8685    8697      23
    8676    8679    8685    8700      22    8676    8679   -8685    8700      23
    8676    8679    8685    8703      22    8676    8679   -8685    8703      23
    8715    8709    8712    8718      21    8715    8709    8712    8721      21
    8715    8709    8712    8724      21    8712    8709    8715    8727      21
    8712    8709    8715    8730      21    8712    8709    8715    8733      21
    8706    8709    8712    8718      22    8706    8709   -8712    8718      23
    8706    8709    8712    8721      22    8706    8709   -8712    8721      23
    8706    8709    8712    8724      22    8706    8709   -8712    8724      23
    8706    8709    8715    8727      22    8706    8709   -8715    8727      23
    8706    8709    8715    8730      22    8706    8709   -8715    8730      23
    8706    8709    8715    8733      22    8706    8709   -8715    8733      23
    8745    8739    8742    8748      21    8745    8739    8742    8751      21
    8745    8739    8742    8754      21    8742    8739    8745    8757      21
    8742    8739    8745    8760      21    8742    8739    8745    8763      21
    8736    8739    8742    8748      22    8736    8739   -8742    8748      23
    8736    8739    8742    8751      22    8736    8739   -8742    8751      23
    8736    8739    8742    8754      22    8736    8739   -8742    8754      23
    8736    8739    8745    8757      22    8736    8739   -8745    8757      23
    8736    8739    8745    8760      22    8736    8739   -8745    8760      23
    8736    8739    8745    8763      22    8736    8739   -8745    8763      23
    8775    8769    8772    8778      21    8775    8769    8772    8781      21
    8775    8769    8772    8784      21    8772    8769    8775    8787      21
    8772    8769    8775    8790      21    8772    8769    8775    8793      21
    8766    8769    8772    8778      22    8766    8769   -8772    8778      23
    8766    8769    8772    8781      22    8766    8769   -8772    8781      23
    8766    8769    8772    8784      22    8766    8769   -8772    8784      23
    8766    8769    8775    8787      22    8766    8769   -8775    8787      23
    8766    8769    8775    8790      22    8766    8769   -8775    8790      23
    8766    8769    8775    8793      22    8766    8769   -8775    8793      23
    8805    8799    8802    8808      21    8805    8799    8802    8811      21
    8805    8799    8802    8814      21    8802    8799    8805    8817      21
    8802    8799    8805    8820      21    8802    8799    8805    8823      21
    8796    8799    8802    8808      22    8796    8799   -8802    8808      23
    8796    8799    8802    8811      22    8796    8799   -8802    8811      23
    8796    8799    8802    8814      22    8796    8799   -8802    8814      23
    8796    8799    8805    8817      22    8796    8799   -8805    8817      23
    8796    8799    8805    8820      22    8796    8799   -8805    8820      23
    8796    8799    8805    8823      22    8796    8799   -8805    8823      23
    8835    8829    8832    8838      21    8835    8829    8832    8841      21
    8835    8829    8832    8844      21    8832    8829    8835    8847      21
    8832    8829    8835    8850      21    8832    8829    8835    8853      21
    8826    8829    8832    8838      22    8826    8829   -8832    8838      23
    8826    8829    8832    8841      22    8826    8829   -8832    8841      23
    8826    8829    8832    8844      22    8826    8829   -8832    8844      23
    8826    8829    8835    8847      22    8826    8829   -8835    8847      23
    8826    8829    8835    8850      22    8826    8829   -8835    8850      23
    8826    8829    8835    8853      22    8826    8829   -8835    8853      23
    8865    8859    8862    8868      21    8865    8859    8862    8871      21
    8865    8859    8862    8874      21    8862    8859    8865    8877      21
    8862    8859    8865    8880      21    8862    8859    8865    8883      21
    8856    8859    8862    8868      22    8856    8859   -8862    8868      23
    8856    8859    8862    8871      22    8856    8859   -8862    8871      23
    8856    8859    8862    8874      22    8856    8859   -8862    8874      23
    8856    8859    8865    8877      22    8856    8859   -8865    8877      23
    8856    8859    8865    8880      22    8856    8859   -8865    8880      23
    8856    8859    8865    8883      22    8856    8859   -8865    8883      23
    8895    8889    8892    8898      21    8895    8889    8892    8901      21
    8895    8889    8892    8904      21    8892    8889    8895    8907      21
    8892    8889    8895    8910      21    8892    8889    8895    8913      21
    8886    8889    8892    8898      22    8886    8889   -8892    8898      23
    8886    8889    8892    8901      22    8886    8889   -8892    8901      23
    8886    8889    8892    8904      22    8886    8889   -8892    8904      23
    8886    8889    8895    8907      22    8886    8889   -8895    8907      23
    8886    8889    8895    8910      22    8886    8889   -8895    8910      23
    8886    8889    8895    8913      22    8886    8889   -8895    8913      23
    8925    8919    8922    8928      21    8925    8919    8922    8931      21
    8925    8919    8922    8934      21    8922    8919    8925    8937      21
    8922    8919    8925    8940      21    8922    8919    8925    8943      21
    8916    8919    8922    8928      22    8916    8919   -8922    8928      23
    8916    8919    8922    8931      22    8916    8919   -8922    8931      23
    8916    8919    8922    8934      22    8916    8919   -8922    8934      23
    8916    8919    8925    8937      22    8916    8919   -8925    8937      23
    8916    8919    8925    8940      22    8916    8919   -8925    8940      23
    8916    8919    8925    8943      22    8916    8919   -8925    8943      23
    8955    8949    8952    8958      21    8955    8949    8952    8961      21
    8955    8949    8952    8964      21    8952    8949    8955    8967      21
    8952    8949    8955    8970      21    8952    8949    8955    8973      21
    8946    8949    8952    8958      22    8946    8949   -8952    8958      23
    8946    8949    8952    8961      22    8946    8949   -8952    8961      23
    8946    8949    8952    8964      22    8946    8949   -8952    8964      23
    8946    8949    8955    8967      22    8946    8949   -8955    8967      23
    8946    8949    8955    8970      22    8946    8949   -8955    8970      23
    8946    8949    8955    8973      22    8946    8949   -8955    8973      23
    8985    8979    8982    8988      21    8985    8979    8982    8991      21
    8985    8979    8982    8994      21    8982    8979    8985    8997      21
    8982    8979    8985    9000      21    8982    8979    8985    9003      21
    8976    8979    8982    8988      22    8976    8979   -8982    8988      23
    8976    8979    8982    8991      22    8976    8979   -8982    8991      23
    8976    8979    8982    8994      22    8976    8979   -8982    8994      23
    8976    8979    8985    8997      22    8976    8979   -8985    8997      23
    8976    8979    8985    9000      22    8976    8979   -8985    9000      23
    8976    8979    8985    9003      22    8976    8979   -8985    9003      23
    9015    9009    9012    9018      21    9015    9009    9012    9021      21
    9015    9009    9012    9024      21    9012    9009    9015    9027      21
    9012    9009    9015    9030      21    9012    9009    9015    9033      21
    9006    9009    9012    9018      22    9006    9009   -9012    9018      23
    9006    9009    9012    9021      22    9006    9009   -9012    9021      23
    9006    9009    9012    9024      22    9006    9009   -9012    9024      23
    9006    9009    9015    9027      22    9006    9009   -9015    9027      23
    9006    9009    9015    9030      22    9006    9009   -9015    9030      23
    9006    9009    9015    9033      22    9006    9009   -9015    9033      23
    9045    9039    9042    9048      21    9045    9039    9042    9051      21
    9045    9039    9042    9054      21    9042    9039    9045    9057      21
    9042    9039    9045    9060      21    9042    9039    9045    9063      21
    9036    9039    9042    9048      22    9036    9039   -9042    9048      23
    9036    9039    9042    9051      22    9036    9039   -9042    9051      23
    9036    9039    9042    9054      22    9036    9039   -9042    9054      23
    9036    9039    9045    9057      22    9036    9039   -9045    9057      23
    9036    9039    9045    9060      22    9036    9039   -9045    9060      23
    9036    9039    9045    9063      22    9036    9039   -9045    9063      23
    9075    9069    9072    9078      21    9075    9069    9072    9081      21
    9075    9069    9072    9084      21    9072    9069    9075    9087      21
    9072    9069    9075    9090      21    9072    9069    9075    9093      21
    9066    9069    9072    9078      22    9066    9069   -9072    9078      23
    9066    9069    9072    9081      22    9066    9069   -9072    9081      23
    9066    9069    9072    9084      22    9066    9069   -9072    9084      23
    9066    9069    9075    9087      22    9066    9069   -9075    9087      23
    9066    9069    9075    9090      22    9066    9069   -9075    9090      23
    9066    9069    9075    9093      22    9066    9069   -9075    9093      23
    9105    9099    9102    9108      21    9105    9099    9102    9111      21
    9105    9099    9102    9114      21    9102    9099    9105    9117      21
    9102    9099    9105    9120      21    9102    9099    9105    9123      21
    9096    9099    9102    9108      22    9096    9099   -9102    9108      23
    9096    9099    9102    9111      22    9096    9099   -9102    9111      23
    9096    9099    9102    9114      22    9096    9099   -9102    9114      23
    9096    9099    9105    9117      22    9096    9099   -9105    9117      23
    9096    9099    9105    9120      22    9096    9099   -9105    9120      23
    9096    9099    9105    9123      22    9096    9099   -9105    9123      23
    9135    9129    9132    9138      21    9135    9129    9132    9141      21
    9135    9129    9132    9144      21    9132    9129    9135    9147      21
    9132    9129    9135    9150      21    9132    9129    9135    9153      21
    9126    9129    9132    9138      22    9126    9129   -9132    9138      23
    9126    9129    9132    9141      22    9126    9129   -9132    9141      23
    9126    9129    9132    9144      22    9126    9129   -9132    9144      23
    9126    9129    9135    9147      22    9126    9129   -9135    9147      23
    9126    9129    9135    9150      22    9126    9129   -9135    9150      23
    9126    9129    9135    9153      22    9126    9129   -9135    9153      23
    9165    9159    9162    9168      21    9165    9159    9162    9171      21
    9165    9159    9162    9174      21    9162    9159    9165    9177      21
    9162    9159    9165    9180      21    9162    9159    9165    9183      21
    9156    9159    9162    9168      22    9156    9159   -9162    9168      23
    9156    9159    9162    9171      22    9156    9159   -9162    9171      23
    9156    9159    9162    9174      22    9156    9159   -9162    9174      23
    9156    9159    9165    9177      22    9156    9159   -9165    9177      23
    9156    9159    9165    9180      22    9156    9159   -9165    9180      23
    9156    9159    9165    9183      22    9156    9159   -9165    9183      23
    9195    9189    9192    9198      21    9195    9189    9192    9201      21
    9195    9189    9192    9204      21    9192    9189    9195    9207      21
    9192    9189    9195    9210      21    9192    9189    9195    9213      21
    9186    9189    9192    9198      22    9186    9189   -9192    9198      23
    9186    9189    9192    9201      22    9186    9189   -9192    9201      23
    9186    9189    9192    9204      22    9186    9189   -9192    9204      23
    9186    9189    9195    9207      22    9186    9189   -9195    9207      23
    9186    9189    9195    9210      22    9186    9189   -9195    9210      23
    9186    9189    9195    9213      22    9186    9189   -9195    9213      23
    9225    9219    9222    9228      21    9225    9219    9222    9231      21
    9225    9219    9222    9234      21    9222    9219    9225    9237      21
    9222    9219    9225    9240      21    9222    9219    9225    9243      21
    9216    9219    9222    9228      22    9216    9219   -9222    9228      23
    9216    9219    9222    9231      22    9216    9219   -9222    9231      23
    9216    9219    9222    9234      22    9216    9219   -9222    9234      23
    9216    9219    9225    9237      22    9216    9219   -9225    9237      23
    9216    9219    9225    9240      22    9216    9219   -9225    9240      23
    9216    9219    9225    9243      22    9216    9219   -9225    9243      23
    9255    9249    9252    9258      21    9255    9249    9252    9261      21
    9255    9249    9252    9264      21    9252    9249    9255    9267      21
    9252    9249    9255    9270      21    9252    9249    9255    9273      21
    9246    9249    9252    9258      22    9246    9249   -9252    9258      23
    9246    9249    9252    9261      22    9246    9249   -9252    9261      23
    9246    9249    9252    9264      22    9246    9249   -9252    9264      23
    9246    9249    9255    9267      22    9246    9249   -9255    9267      23
    9246    9249    9255    9270      22    9246    9249   -9255    9270      23
    9246    9249    9255    9273      22    9246    9249   -9255    9273      23
    9285    9279    9282    9288      21    9285    9279    9282    9291      21
    9285    9279    9282    9294      21    9282    9279    9285    9297      21
    9282    9279    9285    9300      21    9282    9279    9285    9303      21
    9276    9279    9282    9288      22    9276    9279   -9282    9288      23
    9276    9279    9282    9291      22    9276    9279   -9282    9291      23
    9276    9279    9282    9294      22    9276    9279   -9282    9294      23
    9276    9279    9285    9297      22    9276    9279   -9285    9297      23
    9276    9279    9285    9300      22    9276    9279   -9285    9300      23
    9276    9279    9285    9303      22    9276    9279   -9285    9303      23
    9315    9309    9312    9318      21    9315    9309    9312    9321      21
    9315    9309    9312    9324      21    9312    9309    9315    9327      21
    9312    9309    9315    9330      21    9312    9309    9315    9333      21
    9306    9309    9312    9318      22    9306    9309   -9312    9318      23
    9306    9309    9312    9321      22    9306    9309   -9312    9321      23
    9306    9309    9312    9324      22    9306    9309   -9312    9324      23
    9306    9309    9315    9327      22    9306    9309   -9315    9327      23
    9306    9309    9315    9330      22    9306    9309   -9315    9330      23
    9306    9309    9315    9333      22    9306    9309   -9315    9333      23
    9345    9339    9342    9348      21    9345    9339    9342    9351      21
    9345    9339    9342    9354      21    9342    9339    9345    9357      21
    9342    9339    9345    9360      21    9342    9339    9345    9363      21
    9336    9339    9342    9348      22    9336    9339   -9342    9348      23
    9336    9339    9342    9351      22    9336    9339   -9342    9351      23
    9336    9339    9342    9354      22    9336    9339   -9342    9354      23
    9336    9339    9345    9357      22    9336    9339   -9345    9357      23
    9336    9339    9345    9360      22    9336    9339   -9345    9360      23
    9336    9339    9345    9363      22    9336    9339   -9345    9363      23
    9375    9369    9372    9378      21    9375    9369    9372    9381      21
    9375    9369    9372    9384      21    9372    9369    9375    9387      21
    9372    9369    9375    9390      21    9372    9369    9375    9393      21
    9366    9369    9372    9378      22    9366    9369   -9372    9378      23
    9366    9369    9372    9381      22    9366    9369   -9372    9381      23
    9366    9369    9372    9384      22    9366    9369   -9372    9384      23
    9366    9369    9375    9387      22    9366    9369   -9375    9387      23
    9366    9369    9375    9390      22    9366    9369   -9375    9390      23
    9366    9369    9375    9393      22    9366    9369   -9375    9393      23
    9405    9399    9402    9408      21    9405    9399    9402    9411      21
    9405    9399    9402    9414      21    9402    9399    9405    9417      21
    9402    9399    9405    9420      21    9402    9399    9405    9423      21
    9396    9399    9402    9408      22    9396    9399   -9402    9408      23
    9396    9399    9402    9411      22    9396    9399   -9402    9411      23
    9396    9399    9402    9414      22    9396    9399   -9402    9414      23
    9396    9399    9405    9417      22    9396    9399   -9405    9417      23
    9396    9399    9405    9420      22    9396    9399   -9405    9420      23
    9396    9399    9405    9423      22    9396    9399   -9405    9423      23
    9435    9429    9432    9438      21    9435    9429    9432    9441      21
    9435    9429    9432    9444      21    9432    9429    9435    9447      21
    9432    9429    9435    9450      21    9432    9429    9435    9453      21
    9426    9429    9432    9438      22    9426    9429   -9432    9438      23
    9426    9429    9432    9441      22    9426    9429   -9432    9441      23
    9426    9429    9432    9444      22    9426    9429   -9432    9444      23
    9426    9429    9435    9447      22    9426    9429   -9435    9447      23
    9426    9429    9435    9450      22    9426    9429   -9435    9450      23
    9426    9429    9435    9453      22    9426    9429   -9435    9453      23
    9465    9459    9462    9468      21    9465    9459    9462    9471      21
    9465    9459    9462    9474      21    9462    9459    9465    9477      21
    9462    9459    9465    9480      21    9462    9459    9465    9483      21
    9456    9459    9462    9468      22    9456    9459   -9462    9468      23
    9456    9459    9462    9471      22    9456    9459   -9462    9471      23
    9456    9459    9462    9474      22    9456    9459   -9462    9474      23
    9456    9459    9465    9477      22    9456    9459   -9465    9477      23
    9456    9459    9465    9480      22    9456    9459   -9465    9480      23
    9456    9459    9465    9483      22    9456    9459   -9465    9483      23
    9495    9489    9492    9498      21    9495    9489    9492    9501      21
    9495    9489    9492    9504      21    9492    9489    9495    9507      21
    9492    9489    9495    9510      21    9492    9489    9495    9513      21
    9486    9489    9492    9498      22    9486    9489   -9492    9498      23
    9486    9489    9492    9501      22    9486    9489   -9492    9501      23
    9486    9489    9492    9504      22    9486    9489   -9492    9504      23
    9486    9489    9495    9507      22    9486    9489   -9495    9507      23
    9486    9489    9495    9510      22    9486    9489   -9495    9510      23
    9486    9489    9495    9513      22    9486    9489   -9495    9513      23
    9525    9519    9522    9528      21    9525    9519    9522    9531      21
    9525    9519    9522    9534      21    9522    9519    9525    9537      21
    9522    9519    9525    9540      21    9522    9519    9525    9543      21
    9516    9519    9522    9528      22    9516    9519   -9522    9528      23
    9516    9519    9522    9531      22    9516    9519   -9522    9531      23
    9516    9519    9522    9534      22    9516    9519   -9522    9534      23
    9516    9519    9525    9537      22    9516    9519   -9525    9537      23
    9516    9519    9525    9540      22    9516    9519   -9525    9540      23
    9516    9519    9525    9543      22    9516    9519   -9525    9543      23
    9555    9549    9552    9558      21    9555    9549    9552    9561      21
    9555    9549    9552    9564      21    9552    9549    9555    9567      21
    9552    9549    9555    9570      21    9552    9549    9555    9573      21
    9546    9549    9552    9558      22    9546    9549   -9552    9558      23
    9546    9549    9552    9561      22    9546    9549   -9552    9561      23
    9546    9549    9552    9564      22    9546    9549   -9552    9564      23
    9546    9549    9555    9567      22    9546    9549   -9555    9567      23
    9546    9549    9555    9570      22    9546    9549   -9555    9570      23
    9546    9549    9555    9573      22    9546    9549   -9555    9573      23
    9585    9579    9582    9588      21    9585    9579    9582    9591      21
    9585    9579    9582    9594      21    9582    9579    9585    9597      21
    9582    9579    9585    9600      21    9582    9579    9585    9603      21
    9576    9579    9582    9588      22    9576    9579   -9582    9588      23
    9576    9579    9582    9591      22    9576    9579   -9582    9591      23
    9576    9579    9582    9594      22    9576    9579   -9582    9594      23
    9576    9579    9585    9597      22    9576    9579   -9585    9597      23
    9576    9579    9585    9600      22    9576    9579   -9585    9600      23
    9576    9579    9585    9603      22    9576    9579   -9585    9603      23
    9615    9609    9612    9618      21    9615    9609    9612    9621      21
    9615    9609    9612    9624      21    9612    9609    9615    9627      21
    9612    9609    9615    9630      21    9612    9609    9615    9633      21
    9606    9609    9612    9618      22    9606    9609   -9612    9618      23
    9606    9609    9612    9621      22    9606    9609   -9612    9621      23
    9606    9609    9612    9624      22    9606    9609   -9612    9624      23
    9606    9609    9615    9627      22    9606    9609   -9615    9627      23
    9606    9609    9615    9630      22    9606    9609   -9615    9630      23
    9606    9609    9615    9633      22    9606    9609   -9615    9633      23
    9645    9639    9642    9648      21    9645    9639    9642    9651      21
    9645    9639    9642    9654      21    9642    9639    9645    9657      21
    9642    9639    9645    9660      21    9642    9639    9645    9663      21
    9636    9639    9642    9648      22    9636    9639   -9642    9648      23
    9636    9639    9642    9651      22    9636    9639   -9642    9651      23
    9636    9639    9642    9654      22    9636    9639   -9642    9654      23
    9636    9639    9645    9657      22    9636    9639   -9645    9657      23
    9636    9639    9645    9660      22    9636    9639   -9645    9660      23
    9636    9639    9645    9663      22    9636    9639   -9645    9663      23
    9675    9669    9672    9678      21    9675    9669    9672    9681      21
    9675    9669    9672    9684      21    9672    9669    9675    9687      21
    9672    9669    9675    9690      21    9672    9669    9675    9693      21
    9666    9669    9672    9678      22    9666    9669   -9672    9678      23
    9666    9669    9672    9681      22    9666    9669   -9672    9681      23
    9666    9669    9672    9684      22    9666    9669   -9672    9684      23
    9666    9669    9675    9687      22    9666    9669   -9675    9687      23
    9666    9669    9675    9690      22    9666    9669   -9675    9690      23
    9666    9669    9675    9693      22    9666    9669   -9675    9693      23
    9705    9699    9702    9708      21    9705    9699    9702    9711      21
    9705    9699    9702    9714      21    9702    9699    9705    9717      21
    9702    9699    9705    9720      21    9702    9699    9705    9723      21
    9696    9699    9702    9708      22    9696    9699   -9702    9708      23
    9696    9699    9702    9711      22    9696    9699   -9702    9711      23
    9696    9699    9702    9714      22    9696    9699   -9702    9714      23
    9696    9699    9705    9717      22    9696    9699   -9705    9717      23
    9696    9699    9705    9720      22    9696    9699   -9705    9720      23
    9696    9699    9705    9723      22    9696    9699   -9705    9723      23
    9735    9729    9732    9738      21    9735    9729    9732    9741      21
    9735    9729    9732    9744      21    9732    9729    9735    9747      21
    9732    9729    9735    9750      21    9732    9729    9735    9753      21
    9726    9729    9732    9738      22    9726    9729   -9732    9738      23
    9726    9729    9732    9741      22    9726    9729   -9732    9741      23
    9726    9729    9732    9744      22    9726    9729   -9732    9744      23
    9726    9729    9735    9747      22    9726    9729   -9735    9747      23
    9726    9729    9735    9750      22    9726    9729   -9735    9750      23
    9726    9729    9735    9753      22    9726    9729   -9735    9753      23
    9765    9759    9762    9768      21    9765    9759    9762    9771      21
    9765    9759    9762    9774      21    9762    9759    9765    9777      21
    9762    9759    9765    9780      21    9762    9759    9765    9783      21
    9756    9759    9762    9768      22    9756    9759   -9762    9768      23
    9756    9759    9762    9771      22    9756    9759   -9762    9771      23
    9756    9759    9762    9774      22    9756    9759   -9762    9774      23
    9756    9759    9765    9777      22    9756    9759   -9765    9777      23
    9756    9759    9765    9780      22    9756    9759   -9765    9780      23
    9756    9759    9765    9783      22    9756    9759   -9765    9783      23
    9795    9789    9792    9798      21    9795    9789    9792    9801      21
    9795    9789    9792    9804      21    9792    9789    9795    9807      21
    9792    9789    9795    9810      21    9792    9789    9795    9813      21
    9786    9789    9792    9798      22    9786    9789   -9792    9798      23
    9786    9789    9792    9801      22    9786    9789   -9792    9801      23
    9786    9789    9792    9804      22    9786    9789   -9792    9804      23
    9786    9789    9795    9807      22    9786    9789   -9795    9807      23
    9786    9789    9795    9810      22    9786    9789   -9795    9810      23
    9786    9789    9795    9813      22    9786    9789   -9795    9813      23
    9825    9819    9822    9828      21    9825    9819    9822    9831      21
    9825    9819    9822    9834      21    9822    9819    9825    9837      21
    9822    9819    9825    9840      21    9822    9819    9825    9843      21
    9816    9819    9822    9828      22    9816    9819   -9822    9828      23
    9816    9819    9822    9831      22    9816    9819   -9822    9831      23
    9816    9819    9822    9834      22    9816    9819   -9822    9834      23
    9816    9819    9825    9837      22    9816    9819   -9825    9837      23
    9816    9819    9825    9840      22    9816    9819   -9825    9840      23
    9816    9819    9825    9843      22    9816    9819   -9825    9843      23
    9855    9849    9852    9858      21    9855    9849    9852    9861      21
    9855    9849    9852    9864      21    9852    9849    9855    9867      21
    9852    9849    9855    9870      21    9852    9849    9855    9873      21
    9846    9849    9852    9858      22    9846    9849   -9852    9858      23
    9846    9849    9852    9861      22    9846    9849   -9852    9861      23
    9846    9849    9852    9864      22    9846    9849   -9852    9864      23
    9846    9849    9855    9867      22    9846    9849   -9855    9867      23
    9846    9849    9855    9870      22    9846    9849   -9855    9870      23
    9846    9849    9855    9873      22    9846    9849   -9855    9873      23
    9885    9879    9882    9888      21    9885    9879    9882    9891      21
    9885    9879    9882    9894      21    9882    9879    9885    9897      21
    9882    9879    9885    9900      21    9882    9879    9885    9903      21
    9876    9879    9882    9888      22    9876    9879   -9882    9888      23
    9876    9879    9882    9891      22    9876    9879   -9882    9891      23
    9876    9879    9882    9894      22    9876    9879   -9882    9894      23
    9876    9879    9885    9897      22    9876    9879   -9885    9897      23
    9876    9879    9885    9900      22    9876    9879   -9885    9900      23
    9876    9879    9885    9903      22    9876    9879   -9885    9903      23
    9915    9909    9912    9918      21    9915    9909    9912    9921      21
    9915    9909    9912    9924      21    9912    9909    9915    9927      21
    9912    9909    9915    9930      21    9912    9909    9915    9933      21
    9906    9909    9912    9918      22    9906    9909   -9912    9918      23
    9906    9909    9912    9921      22    9906    9909   -9912    9921      23
    9906    9909    9912    9924      22    9906    9909   -9912    9924      23
    9906    9909    9915    9927      22    9906    9909   -9915    9927      23
    9906    9909    9915    9930      22    9906    9909   -9915    9930      23
    9906    9909    9915    9933      22    9906    9909   -9915    9933      23
    9945    9939    9942    9948      21    9945    9939    9942    9951      21
    9945    9939    9942    9954      21    9942    9939    9945    9957      21
    9942    9939    9945    9960      21    9942    9939    9945    9963      21
    9936    9939    9942    9948      22    9936    9939   -9942    9948      23
    9936    9939    9942    9951      22    9936    9939   -9942    9951      23
    9936    9939    9942    9954      22    9936    9939   -9942    9954      23
    9936    9939    9945    9957      22    9936    9939   -9945    9957      23
    9936    9939    9945    9960      22    9936    9939   -9945    9960      23
    9936    9939    9945    9963      22    9936    9939   -9945    9963      23
    9975    9969    9972    9978      21    9975    9969    9972    9981      21
    9975    9969    9972    9984      21    9972    9969    9975    9987      21
    9972    9969    9975    9990      21    9972    9969    9975    9993      21
    9966    9969    9972    9978      22    9966    9969   -9972    9978      23
    9966    9969    9972    9981      22    9966    9969   -9972    9981      23
    9966    9969    9972    9984      22    9966    9969   -9972    9984      23
    9966    9969    9975    9987      22    9966    9969   -9975    9987      23
    9966    9969    9975    9990      22    9966    9969   -9975    9990      23
    9966    9969    9975    9993      22    9966    9969   -9975    9993      23
   10005    9999   10002   10008      21   10005    9999   10002   10011      21
   10005    9999   10002   10014      21   10002    9999   10005   10017      21
   10002    9999   10005   10020      21   10002    9999   10005   10023      21
    9996    9999   10002   10008      22    9996    9999  -10002   10008      23
    9996    9999   10002   10011      22    9996    9999  -10002   10011      23
    9996    9999   10002   10014      22    9996    9999  -10002   10014      23
    9996    9999   10005   10017      22    9996    9999  -10005   10017      23
    9996    9999   10005   10020      22    9996    9999  -10005   10020      23
    9996    9999   10005   10023      22    9996    9999  -10005   10023      23
   10035   10029   10032   10038      21   10035   10029   10032   10041      21
   10035   10029   10032   10044      21   10032   10029   10035   10047      21
   10032   10029   10035   10050      21   10032   10029   10035   10053      21
   10026   10029   10032   10038      22   10026   10029  -10032   10038      23
   10026   10029   10032   10041      22   10026   10029  -10032   10041      23
   10026   10029   10032   10044      22   10026   10029  -10032   10044      23
   10026   10029   10035   10047      22   10026   10029  -10035   10047      23
   10026   10029   10035   10050      22   10026   10029  -10035   10050      23
   10026   10029   10035   10053      22   10026   10029  -10035   10053      23
   10065   10059   10062   10068      21   10065   10059   10062   10071      21
   10065   10059   10062   10074      21   10062   10059   10065   10077      21
   10062   10059   10065   10080      21   10062   10059   10065   10083      21
   10056   10059   10062   10068      22   10056   10059  -10062   10068      23
   10056   10059   10062   10071      22   10056   10059  -10062   10071      23
   10056   10059   10062   10074      22   10056   10059  -10062   10074      23
   10056   10059   10065   10077      22   10056   10059  -10065   10077      23
   10056   10059   10065   10080      22   10056   10059  -10065   10080      23
   10056   10059   10065   10083      22   10056   10059  -10065   10083      23
   10095   10089   10092   10098      21   10095   10089   10092   10101      21
   10095   10089   10092   10104      21   10092   10089   10095   10107      21
   10092   10089   10095   10110      21   10092   10089   10095   10113      21
   10086   10089   10092   10098      22   10086   10089  -10092   10098      23
   10086   10089   10092   10101      22   10086   10089  -10092   10101      23
   10086   10089   10092   10104      22   10086   10089  -10092   10104      23
   10086   10089   10095   10107      22   10086   10089  -10095   10107      23
   10086   10089   10095   10110      22   10086   10089  -10095   10110      23
   10086   10089   10095   10113      22   10086   10089  -10095   10113      23
   10125   10119   10122   10128      21   10125   10119   10122   10131      21
   10125   10119   10122   10134      21   10122   10119   10125   10137      21
   10122   10119   10125   10140      21   10122   10119   10125   10143      21
   10116   10119   10122   10128      22   10116   10119  -10122   10128      23
   10116   10119   10122   10131      22   10116   10119  -10122   10131      23
   10116   10119   10122   10134      22   10116   10119  -10122   10134      23
   10116   10119   10125   10137      22   10116   10119  -10125   10137      23
   10116   10119   10125   10140      22   10116   10119  -10125   10140      23
   10116   10119   10125   10143      22   10116   10119  -10125   10143      23
   10155   10149   10152   10158      21   10155   10149   10152   10161      21
   10155   10149   10152   10164      21   10152   10149   10155   10167      21
   10152   10149   10155   10170      21   10152   10149   10155   10173      21
   10146   10149   10152   10158      22   10146   10149  -10152   10158      23
   10146   10149   10152   10161      22   10146   10149  -10152   10161      23
   10146   10149   10152   10164      22   10146   10149  -10152   10164      23
   10146   10149   10155   10167      22   10146   10149  -10155   10167      23
   10146   10149   10155   10170      22   10146   10149  -10155   10170      23
   10146   10149   10155   10173      22   10146   10149  -10155   10173      23
   10185   10179   10182   10188      21   10185   10179   10182   10191      21
   10185   10179   10182   10194      21   10182   10179   10185   10197      21
   10182   10179   10185   10200      21   10182   10179   10185   10203      21
   10176   10179   10182   10188      22   10176   10179  -10182   10188      23
   10176   10179   10182   10191      22   10176   10179  -10182   10191      23
   10176   10179   10182   10194      22   10176   10179  -10182   10194      23
   10176   10179   10185   10197      22   10176   10179  -10185   10197      23
   10176   10179   10185   10200      22   10176   10179  -10185   10200      23
   10176   10179   10185   10203      22   10176   10179  -10185   10203      23
   10215   10209   10212   10218      21   10215   10209   10212   10221      21
   10215   10209   10212   10224      21   10212   10209   10215   10227      21
   10212   10209   10215   10230      21   10212   10209   10215   10233      21
   10206   10209   10212   10218      22   10206   10209  -10212   10218      23
   10206   10209   10212   10221      22   10206   10209  -10212   10221      23
   10206   10209   10212   10224      22   10206   10209  -10212   10224      23
   10206   10209   10215   10227      22   10206   10209  -10215   10227      23
   10206   10209   10215   10230      22   10206   10209  -10215   10230      23
   10206   10209   10215   10233      22   10206   10209  -10215   10233      23
   10245   10239   10242   10248      21   10245   10239   10242   10251      21
   10245   10239   10242   10254      21   10242   10239   10245   10257      21
   10242   10239   10245   10260      21   10242   10239   10245   10263      21
   10236   10239   10242   10248      22   10236   10239  -10242   10248      23
   10236   10239   10242   10251      22   10236   10239  -10242   10251      23
   10236   10239   10242   10254      22   10236   10239  -10242   10254      23
   10236   10239   10245   10257      22   10236   10239  -10245   10257      23
   10236   10239   10245   10260      22   10236   10239  -10245   10260      23
   10236   10239   10245   10263      22   10236   10239  -10245   10263      23
   10275   10269   10272   10278      21   10275   10269   10272   10281      21
   10275   10269   10272   10284      21   10272   10269   10275   10287      21
   10272   10269   10275   10290      21   10272   10269   10275   10293      21
   10266   10269   10272   10278      22   10266   10269  -10272   10278      23
   10266   10269   10272   10281      22   10266   10269  -10272   10281      23
   10266   10269   10272   10284      22   10266   10269  -10272   10284      23
   10266   10269   10275   10287      22   10266   10269  -10275   10287      23
   10266   10269   10275   10290      22   10266   10269  -10275   10290      23
   10266   10269   10275   10293      22   10266   10269  -10275   10293      23
   10305   10299   10302   10308      21   10305   10299   10302   10311      21
   10305   10299   10302   10314      21   10302   10299   10305   10317      21
   10302   10299   10305   10320      21   10302   10299   10305   10323      21
   10296   10299   10302   10308      22   10296   10299  -10302   10308      23
   10296   10299   10302   10311      22   10296   10299  -10302   10311      23
   10296   10299   10302   10314      22   10296   10299  -10302   10314      23
   10296   10299   10305   10317      22   10296   10299  -10305   10317      23
   10296   10299   10305   10320      22   10296   10299  -10305   10320      23
   10296   10299   10305   10323      22   10296   10299  -10305   10323      23
      63      66     -69    -123      24      60      69     -66    -120      24
      42      69     -63    -117      24      33      66     -60    -114      24
      51      36     -48     -93      24      21      39     -45     -90      24
      12      45     -39     -87      24      12      15     -30     -84      24
%FLAG DIHEDRALS_WITHOUT_HYDROGEN                                                
%FORMAT(10I8)                                                                   
      60      33      42      63       1      60      66     -69      63       1
      51      42      33      60       1      51      42      63      69       1
      48      51      42      63       3      42      33      60      66       1
      42      63     -69      66       1      36      18      33      42       5
      36      18      33      60       5      36      48     -51      42       6
      36      48     -51      42       7      36      48     -51      42       8
      33      18      36      48       9      33      42     -51      48       3
      33      42      63      69       1      33      60     -66      69       1
      30      12      39      45       1      36       0      15      30      10
      30      15     -21      45       1      27       6      12      30      11
      27       6      12      39      11      27       6      24      54      12
      24       6      12      30      11      24       6      12      39      11
      24       6      27      57      12      21       9      18      33      13
      21       9      18      36      13      36       0     -15      21      10
      18       9      21      45      14      18      33      42      51       1
      18      33      42      63       1      18      33      60      66       1
      18      36     -48      51       9      15       0      36      18      15
      15       0      36      48      15      15      21      -9      18      14
      15      21      45      39       1      15      30     -12      39       1
      12       6      24      54      12      12       6      27      57      12
      12      30      15      21       1      12      39     -45      21       1
       9      18      33      42      17       9      18     -33      42      18
       9      18     -33      42      19       9      18      33      60      17
       9      18     -33      60      18       9      18     -33      60      19
       9      18      36      48       9       9      21      15      30       1
       9      21      45      39       1       6      12      30      15       1
       6      12      39      45       1       3      51      42      33      20
       3      51      42      63      20       3      51      48      36       4
       0      15      21       9       1       0      15      21      45       1
       0      15      30      12       1       0      36     -18       9       9
       0      36      18      33       9       0      36      48      51       9
      42      48     -51      -3      25      51      33     -42     -63      24
       0      36     -18     -48      24      42      60     -33     -18      24
      15      45     -21      -9      24      33      36     -18      -9      24
       0      15     -30     -21      24      30      39     -12      -6      24
      24      27      -6     -12      24     132     135    -129    -126      24
     162     165    -159    -156      24     192     195    -189    -186      24
     222     225    -219    -216      24     252     255    -249    -246      24
     282     285    -279    -276      24     312     315    -309    -306      24
     342     345    -339    -336      24     372     375    -369    -366      24
     402     405    -399    -396      24     432     435    -429    -426      24
     462     465    -459    -456      24     492     495    -489    -486      24
     522     525    -519    -516      24     552     555    -549    -546      24
     582     585    -579    -576      24     612     615    -609    -606      24
     642     645    -639    -636      24     672     675    -669    -666      24
     702     705    -699    -696      24     732     735    -729    -726      24
     762     765    -759    -756      24     792     795    -789    -786      24
     822     825    -819    -816      24     852     855    -849    -846      24
     882     885    -879    -876      24     912     915    -909    -906      24
     942     945    -939    -936      24     972     975    -969    -966      24
    1002    1005    -999    -996      24    1032    1035   -1029   -1026      24
    1062    1065   -1059   -1056      24    1092    1095   -1089   -1086      24
    1122    1125   -1119   -1116      24    1152    1155   -1149   -1146      24
    1182    1185   -1179   -1176      24    1212    1215   -1209   -1206      24
    1242    1245   -1239   -1236      24    1272    1275   -1269   -1266      24
    1302    1305   -1299   -1296      24    1332    1335   -1329   -1326      24
    1362    1365   -1359   -1356      24    1392    1395   -1389   -1386      24
    1422    1425   -1419   -1416      24    1452    1455   -1449   -1446      24
    1482    1485   -1479   -1476      24    1512    1515   -1509   -1506      24
    1542    1545   -1539   -1536      24    1572    1575   -1569   -1566      24
    1602    1605   -1599   -1596      24    1632    1635   -1629   -1626      24
    1662    1665   -1659   -1656      24    1692    1695   -1689   -1686      24
    1722    1725   -1719   -1716      24    1752    1755   -1749   -1746      24
    1782    1785   -1779   -1776      24    1812    1815   -1809   -1806      24
    1842    1845   -1839   -1836      24    1872    1875   -1869   -1866      24
    1902    1905   -1899   -1896      24    1932    1935   -1929   -1926      24
    1962    1965   -1959   -1956      24    1992    1995   -1989   -1986      24
    2022    2025   -2019   -2016      24    2052    2055   -2049   -2046      24
    2082    2085   -2079   -2076      24    2112    2115   -2109   -2106      24
    2142    2145   -2139   -2136      24    2172    2175   -2169   -2166      24
    2202    2205   -2199   -2196      24    2232    2235   -2229   -2226      24
    2262    2265   -2259   -2256      24    2292    2295   -2289   -2286      24
    2322    2325   -2319   -2316      24    2352    2355   -2349   -2346      24
    2382    2385   -2379   -2376      24    2412    2415   -2409   -2406      24
    2442    2445   -2439   -2436      24    2472    2475   -2469   -2466      24
    2502    2505   -2499   -2496      24    2532    2535   -2529   -2526      24
    2562    2565   -2559   -2556      24    2592    2595   -2589   -2586      24
    2622    2625   -2619   -2616      24    2652    2655   -2649   -2646      24
    2682    2685   -2679   -2676      24    2712    2715   -2709   -2706      24
    2742    2745   -2739   -2736      24    2772    2775   -2769   -2766      24
    2802    2805   -2799   -2796      24    2832    2835   -2829   -2826      24
    2862    2865   -2859   -2856      24    2892    2895   -2889   -2886      24
    2922    2925   -2919   -2916      24    2952    2955   -2949   -2946      24
    2982    2985   -2979   -2976      24    3012    3015   -3009   -3006      24
    3042    3045   -3039   -3036      24    3072    3075   -3069   -3066      24
    3102    3105   -3099   -3096      24    3132    3135   -3129   -3126      24
    3162    3165   -3159   -3156      24    3192    3195   -3189   -3186      24
    3222    3225   -3219   -3216      24    3252    3255   -3249   -3246      24
    3282    3285   -3279   -3276      24    3312    3315   -3309   -3306      24
    3342    3345   -3339   -3336      24    3372    3375   -3369   -3366      24
    3402    3405   -3399   -3396      24    3432    3435   -3429   -3426      24
    3462    3465   -3459   -3456      24    3492    3495   -3489   -3486      24
    3522    3525   -3519   -3516      24    3552    3555   -3549   -3546      24
    3582    3585   -3579   -3576      24    3612    3615   -3609   -3606      24
    3642    3645   -3639   -3636      24    3672    3675   -3669   -3666      24
    3702    3705   -3699   -3696      24    3732    3735   -3729   -3726      24
    3762    3765   -3759   -3756      24    3792    3795   -3789   -3786      24
    3822    3825   -3819   -3816      24    3852    3855   -3849   -3846      24
    3882    3885   -3879   -3876      24    3912    3915   -3909   -3906      24
    3942    3945   -3939   -3936      24    3972    3975   -3969   -3966      24
    4002    4005   -3999   -3996      24    4032    4035   -4029   -4026      24
    4062    4065   -4059   -4056      24    4092    4095   -4089   -4086      24
    4122    4125   -4119   -4116      24    4152    4155   -4149   -4146      24
    4182    4185   -4179   -4176      24    4212    4215   -4209   -4206      24
    4242    4245   -4239   -4236      24    4272    4275   -4269   -4266      24
    4302    4305   -4299   -4296      24    4332    4335   -4329   -4326      24
    4362    4365   -4359   -4356      24    4392    4395   -4389   -4386      24
    4422    4425   -4419   -4416      24    4452    4455   -4449   -4446      24
    4482    4485   -4479   -4476      24    4512    4515   -4509   -4506      24
    4542    4545   -4539   -4536      24    4572    4575   -4569   -4566      24
    4602    4605   -4599   -4596      24    4632    4635   -4629   -4626      24
    4662    4665   -4659   -4656      24    4692    4695   -4689   -4686      24
    4722    4725   -4719   -4716      24    4752    4755   -4749   -4746      24
    4782    4785   -4779   -4776      24    4812    4815   -4809   -4806      24
    4842    4845   -4839   -4836      24    4872    4875   -4869   -4866      24
    4902    4905   -4899   -4896      24    4932    4935   -4929   -4926      24
    4962    4965   -4959   -4956      24    4992    4995   -4989   -4986      24
    5022    5025   -5019   -5016      24    5052    5055   -5049   -5046      24
    5082    5085   -5079   -5076      24    5112    5115   -5109   -5106      24
    5142    5145   -5139   -5136      24    5172    5175   -5169   -5166      24
    5202    5205   -5199   -5196      24    5232    5235   -5229   -5226      24
    5262    5265   -5259   -5256      24    5292    5295   -5289   -5286      24
    5322    5325   -5319   -5316      24    5352    5355   -5349   -5346      24
    5382    5385   -5379   -5376      24    5412    5415   -5409   -5406      24
    5442    5445   -5439   -5436      24    5472    5475   -5469   -5466      24
    5502    5505   -5499   -5496      24    5532    5535   -5529   -5526      24
    5562    5565   -5559   -5556      24    5592    5595   -5589   -5586      24
    5622    5625   -5619   -5616      24    5652    5655   -5649   -5646      24
    5682    5685   -5679   -5676      24    5712    5715   -5709   -5706      24
    5742    5745   -5739   -5736      24    5772    5775   -5769   -5766      24
    5802    5805   -5799   -5796      24    5832    5835   -5829   -5826      24
    5862    5865   -5859   -5856      24    5892    5895   -5889   -5886      24
    5922    5925   -5919   -5916      24    5952    5955   -5949   -5946      24
    5982    5985   -5979   -5976      24    6012    6015   -6009   -6006      24
    6042    6045   -6039   -6036      24    6072    6075   -6069   -6066      24
    6102    6105   -6099   -6096      24    6132    6135   -6129   -6126      24
    6162    6165   -6159   -6156      24    6192    6195   -6189   -6186      24
    6222    6225   -6219   -6216      24    6252    6255   -6249   -6246      24
    6282    6285   -6279   -6276      24    6312    6315   -6309   -6306      24
    6342    6345   -6339   -6336      24    6372    6375   -6369   -6366      24
    6402    6405   -6399   -6396      24    6432    6435   -6429   -6426      24
    6462    6465   -6459   -6456      24    6492    6495   -6489   -6486      24
    6522    6525   -6519   -6516      24    6552    6555   -6549   -6546      24
    6582    6585   -6579   -6576      24    6612    6615   -6609   -6606      24
    6642    6645   -6639   -6636      24    6672    6675   -6669   -6666      24
    6702    6705   -6699   -6696      24    6732    6735   -6729   -6726      24
    6762    6765   -6759   -6756      24    6792    6795   -6789   -6786      24
    6822    6825   -6819   -6816      24    6852    6855   -6849   -6846      24
    6882    6885   -6879   -6876      24    6912    6915   -6909   -6906      24
    6942    6945   -6939   -6936      24    6972    6975   -6969   -6966      24
    7002    7005   -6999   -6996      24    7032    7035   -7029   -7026      24
    7062    7065   -7059   -7056      24    7092    7095   -7089   -7086      24
    7122    7125   -7119   -7116      24    7152    7155   -7149   -7146      24
    7182    7185   -7179   -7176      24    7212    7215   -7209   -7206      24
    7242    7245   -7239   -7236      24    7272    7275   -7269   -7266      24
    7302    7305   -7299   -7296      24    7332    7335   -7329   -7326      24
    7362    7365   -7359   -7356      24    7392    7395   -7389   -7386      24
    7422    7425   -7419   -7416      24    7452    7455   -7449   -7446      24
    7482    7485   -7479   -7476      24    7512    7515   -7509   -7506      24
    7542    7545   -7539   -7536      24    7572    7575   -7569   -7566      24
    7602    7605   -7599   -7596      24    7632    7635   -7629   -7626      24
    7662    7665   -7659   -7656      24    7692    7695   -7689   -7686      24
    7722    7725   -7719   -7716      24    7752    7755   -7749   -7746      24
    7782    7785   -7779   -7776      24    7812    7815   -7809   -7806      24
    7842    7845   -7839   -7836      24    7872    7875   -7869   -7866      24
    7902    7905   -7899   -7896      24    7932    7935   -7929   -7926      24
    7962    7965   -7959   -7956      24    7992    7995   -7989   -7986      24
    8022    8025   -8019   -8016      24    8052    8055   -8049   -8046      24
    8082    8085   -8079   -8076      24    8112    8115   -8109   -8106      24
    8142    8145   -8139   -8136      24    8172    8175   -8169   -8166      24
    8202    8205   -8199   -8196      24    8232    8235   -8229   -8226      24
    8262    8265   -8259   -8256      24    8292    8295   -8289   -8286      24
    8322    8325   -8319   -8316      24    8352    8355   -8349   -8346      24
    8382    8385   -8379   -8376      24    8412    8415   -8409   -8406      24
    8442    8445   -8439   -8436      24    8472    8475   -8469   -8466      24
    8502    8505   -8499   -8496      24    8532    8535   -8529   -8526      24
    8562    8565   -8559   -8556      24    8592    8595   -8589   -8586      24
    8622    8625   -8619   -8616      24    8652    8655   -8649   -8646      24
    8682    8685   -8679   -8676      24    8712    8715   -8709   -8706      24
    8742    8745   -8739   -8736      24    8772    8775   -8769   -8766      24
    8802    8805   -8799   -8796      24    8832    8835   -8829   -8826      24
    8862    8865   -8859   -8856      24    8892    8895   -8889   -8886      24
    8922    8925   -8919   -8916      24    8952    8955   -8949   -8946      24
    8982    8985   -8979   -8976      24    9012    9015   -9009   -9006      24
    9042    9045   -9039   -9036      24    9072    9075   -9069   -9066      24
    9102    9105   -9099   -9096      24    9132    9135   -9129   -9126      24
    9162    9165   -9159   -9156      24    9192    9195   -9189   -9186      24
    9222    9225   -9219   -9216      24    9252    9255   -9249   -9246      24
    9282    9285   -9279   -9276      24    9312    9315   -9309   -9306      24
    9342    9345   -9339   -9336      24    9372    9375   -9369   -9366      24
    9402    9405   -9399   -9396      24    9432    9435   -9429   -9426      24
    9462    9465   -9459   -9456      24    9492    9495   -9489   -9486      24
    9522    9525   -9519   -9516      24    9552    9555   -9549   -9546      24
    9582    9585   -9579   -9576      24    9612    9615   -9609   -9606      24
    9642    9645   -9639   -9636      24    9672    9675   -9669   -9666      24
    9702    9705   -9699   -9696      24    9732    9735   -9729   -9726      24
    9762    9765   -9759   -9756      24    9792    9795   -9789   -9786      24
    9822    9825   -9819   -9816      24    9852    9855   -9849   -9846      24
    9882    9885   -9879   -9876      24    9912    9915   -9909   -9906      24
    9942    9945   -9939   -9936      24    9972    9975   -9969   -9966      24
   10002   10005   -9999   -9996      24   10032   10035  -10029  -10026      24
   10062   10065  -10059  -10056      24   10092   10095  -10089  -10086      24
   10122   10125  -10119  -10116      24   10152   10155  -10149  -10146      24
   10182   10185  -10179  -10176      24   10212   10215  -10209  -10206      24
   10242   10245  -10239  -10236      24   10272   10275  -10269  -10266      24
   10302   10305  -10299  -10296      24
%FLAG EXCLUDED_ATOMS_LIST                                                       
%FORMAT(10I8)                                                                   
       4       5       6       7       8      11      12      13      16      17
      18      29      32      12      13      15      17      18      22      32
       5       6       9      10      11      14      16      19      20      25
      26      27      28      29      30      33      34      35      36      37
      38       6       7       8      11      12      13      14      15      16
      17      21      31       6       8       9      10      11      14      16
      19      20      25      26      27      28      29      30      31       7
       8      11      13      14      16      17      29      31       8      12
      13      15      16      17      18      21      22      23      32      39
      11      12      13      14      16      29      30      31      10      11
      14      19      20      25      26      27      28      33      34      35
      11      14      19      20      25      26      27      28      36      37
      38      13      14      16      29      30      13      15      17      18
      21      22      23      24      39      40      41      15      17      18
      21      32      16      29      30      31      17      18      21      22
      23      24      32      39      40      42      30      31      18      22
      32      21      22      24      32      40      25      26      33      34
      35      27      28      36      37      38      22      23      24      39
      41      42      23      24      40      41      42      24      39      40
      41      42      39      40      41      42      26      33      34      35
      33      34      35      28      36      37      38      36      37      38
       0      31       0       0      34      35      35       0      37      38
      38       0      41      42      42       0      44      45      46      47
      48      49      50      51      52      45      46      47      48      49
      50      51      52      46      47      48      49      50      51      52
      47      48      49      50      51      52      48      49      49       0
      51      52      52       0      54      55      56      57      58      59
      60      61      62      55      56      57      58      59      60      61
      62      56      57      58      59      60      61      62      57      58
      59      60      61      62      58      59      59       0      61      62
      62       0      64      65      66      67      68      69      70      71
      72      65      66      67      68      69      70      71      72      66
      67      68      69      70      71      72      67      68      69      70
      71      72      68      69      69       0      71      72      72       0
      74      75      76      77      78      79      80      81      82      75
      76      77      78      79      80      81      82      76      77      78
      79      80      81      82      77      78      79      80      81      82
      78      79      79       0      81      82      82       0      84      85
      86      87      88      89      90      91      92      85      86      87
      88      89      90      91      92      86      87      88      89      90
      91      92      87      88      89      90      91      92      88      89
      89       0      91      92      92       0      94      95      96      97
      98      99     100     101     102      95      96      97      98      99
     100     101     102      96      97      98      99     100     101     102
      97      98      99     100     101     102      98      99      99       0
     101     102     102       0     104     105     106     107     108     109
     110     111     112     105     106     107     108     109     110     111
     112     106     107     108     109     110     111     112     107     108
     109     110     111     112     108     109     109       0     111     112
     112       0     114     115     116     117     118     119     120     121
     122     115     116     117     118     119     120     121     122     116
     117     118     119     120     121     122     117     118     119     120
     121     122     118     119     119       0     121     122     122       0
     124     125     126     127     128     129     130     131     132     125
     126     127     128     129     130     131     132     126     127     128
     129     130     131     132     127     128     129     130     131     132
     128     129     129       0     131     132     132       0     134     135
     136     137     138     139     140     141     142     135     136     137
     138     139     140     141     142     136     137     138     139     140
     141     142     137     138     139     140     141     142     138     139
     139       0     141     142     142       0     144     145     146     147
     148     149     150     151     152     145     146     147     148     149
     150     151     152     146     147     148     149     150     151     152
     147     148     149     150     151     152     148     149     149       0
     151     152     152       0     154     155     156     157     158     159
     160     161     162     155     156     157     158     159     160     161
     162     156     157     158     159     160     161     162     157     158
     159     160     161     162     158     159     159       0     161     162
     162       0     164     165     166     167     168     169     170     171
     172     165     166     167     168     169     170     171     172     166
     167     168     169     170     171     172     167     168     169     170
     171     172     168     169     169       0     171     172     172       0
     174     175     176     177     178     179     180     181     182     175
     176     177     178     179     180     181     182     176     177     178
     179     180     181     182     177     178     179     180     181     182
     178     179     179       0     181     182     182       0     184     185
     186     187     188     189     190     191     192     185     186     187
     188     189     190     191     192     186     187     188     189     190
     191     192     187     188     189     190     191     192     188     189
     189       0     191     192     192       0     194     195     196     197
     198     199     200     201     202     195     196     197     198     199
     200     201     202     196     197     198     199     200     201     202
     197     198     199     200     201     202     198     199     199       0
     201     202     202       0     204     205     206     207     208     209
     210     211     212     205     206     207     208     209     210     211
     212     206     207     208     209     210     211     212     207     208
     209     210     211     212     208     209     209       0     211     212
     212       0     214     215     216     217     218     219     220     221
     222     215     216     217     218     219     220     221     222     216
     217     218     219     220     221     222     217     218     219     220
     221     222     218     219     219       0     221     222     222       0
     224     225     226     227     228     229     230     231     232     225
     226     227     228     229     230     231     232     226     227     228
     229     230     231     232     227     228     229     230     231     232
     228     229     229       0     231     232     232       0     234     235
     236     237     238     239     240     241     242     235     236     237
     238     239     240     241     242     236     237     238     239     240
     241     242     237     238     239     240     241     242     238     239
     239       0     241     242     242       0     244     245     246     247
     248     249     250     251     252     245     246     247     248     249
     250     251     252     246     247     248     249     250     251     252
     247     248     249     250     251     252     248     249     249       0
     251     252     252       0     254     255     256     257     258     259
     260     261     262     255     256     257     258     259     260     261
     262     256     257     258     259     260     261     262     257     258
     259     260     261     262     258     259     259       0     261     262
     262       0     264     265     266     267     268     269     270     271
     272     265     266     267     268     269     270     271     272     266
     267     268     269     270     271     272     267     268     269     270
     271     272     268     269     269       0     271     272     272       0
     274     275     276     277     278     279     280     281     282     275
     276     277     278     279     280     281     282     276     277     278
     279     280     281     282     277     278     279     280     281     282
     278     279     279       0     281     282     282       0     284     285
     286     287     288     289     290     291     292     285     286     287
     288     289     290     291     292     286     287     288     289     290
     291     292     287     288     289     290     291     292     288     289
     289       0     291     292     292       0     294     295     296     297
     298     299     300     301     302     295     296     297     298     299
     300     301     302     296     297     298     299     300     301     302
     297     298     299     300     301     302     298     299     299       0
     301     302     302       0     304     305     306     307     308     309
     310     311     312     305     306     307     308     309     310     311
     312     306     307     308     309     310     311     312     307     308
     309     310     311     312     308     309     309       0     311     312
     312       0     314     315     316     317     318     319     320     321
     322     315     316     317     318     319     320     321     322     316
     317     318     319     320     321     322     317     318     319     320
     321     322     318     319     319       0     321     322     322       0
     324     325     326     327     328     329     330     331     332     325
     326     327     328     329     330     331     332     326     327     328
     329     330     331     332     327     328     329     330     331     332
     328     329     329       0     331     332     332       0     334     335
     336     337     338     339     340     341     342     335     336     337
     338     339     340     341     342     336     337     338     339     340
     341     342     337     338     339     340     341     342     338     339
     339       0     341     342     342       0     344     345     346     347
     348     349     350     351     352     345     346     347     348     349
     350     351     352     346     347     348     349     350     351     352
     347     348     349     350     351     352     348     349     349       0
     351     352     352       0     354     355     356     357     358     359
     360     361     362     355     356     357     358     359     360     361
     362     356     357     358     359     360     361     362     357     358
     359     360     361     362     358     359     359       0     361     362
     362       0     364     365     366     367     368     369     370     371
     372     365     366     367     368     369     370     371     372     366
     367     368     369     370     371     372     367     368     369     370
     371     372     368     369     369       0     371     372     372       0
     374     375     376     377     378     379     380     381     382     375
     376     377     378     379     380     381     382     376     377     378
     379     380     381     382     377     378     379     380     381     382
     378     379     379       0     381     382     382       0     384     385
     386     387     388     389     390     391     392     385     386     387
     388     389     390     391     392     386     387     388     389     390
     391     392     387     388     389     390     391     392     388     389
     389       0     391     392     392       0     394     395     396     397
     398     399     400     401     402     395     396     397     398     399
     400     401     402     396     397     398     399     400     401     402
     397     398     399     400     401     402     398     399     399       0
     401     402     402       0     404     405     406     407     408     409
     410     411     412     405     406     407     408     409     410     411
     412     406     407     408     409     410     411     412     407     408
     409     410     411     412     408     409     409       0     411     412
     412       0     414     415     416     417     418     419     420     421
     422     415     416     417     418     419     420     421     422     416
     417     418     419     420     421     422     417     418     419     420
     421     422     418     419     419       0     421     422     422       0
     424     425     426     427     428     429     430     431     432     425
     426     427     428     429     430     431     432     426     427     428
     429     430     431     432     427     428     429     430     431     432
     428     429     429       0     431     432     432       0     434     435
     436     437     438     439     440     441     442     435     436     437
     438     439     440     441     442     436     437     438     439     440
     441     442     437     438     439     440     441     442     438     439
     439       0     441     442     442       0     444     445     446     447
     448     449     450     451     452     445     446     447     448     449
     450     451     452     446     447     448     449     450     451     452
     447     448     449     450     451     452     448     449     449       0
     451     452     452       0     454     455     456     457     458     459
     460     461     462     455     456     457     458     459     460     461
     462     456     457     458     459     460     461     462     457     458
     459     460     461     462     458     459     459       0     461     462
     462       0     464     465     466     467     468     469     470     471
     472     465     466     467     468     469     470     471     472     466
     467     468     469     470     471     472     467     468     469     470
     471     472     468     469     469       0     471     472     472       0
     474     475     476     477     478     479     480     481     482     475
     476     477     478     479     480     481     482     476     477     478
     479     480     481     482     477     478     479     480     481     482
     478     479     479       0     481     482     482       0     484     485
     486     487     488     489     490     491     492     485     486     487
     488     489     490     491     492     486     487     488     489     490
     491     492     487     488     489     490     491     492     488     489
     489       0     491     492     492       0     494     495     496     497
     498     499     500     501     502     495     496     497     498     499
     500     501     502     496     497     498     499     500     501     502
     497     498     499     500     501     502     498     499     499       0
     501     502     502       0     504     505     506     507     508     509
     510     511     512     505     506     507     508     509     510     511
     512     506     507     508     509     510     511     512     507     508
     509     510     511     512     508     509     509       0     511     512
     512       0     514     515     516     517     518     519     520     521
     522     515     516     517     518     519     520     521     522     516
     517     518     519     520     521     522     517     518     519     520
     521     522     518     519     519       0     521     522     522       0
     524     525     526     527     528     529     530     531     532     525
     526     527     528     529     530     531     532     526     527     528
     529     530     531     532     527     528     529     530     531     532
     528     529     529       0     531     532     532       0     534     535
     536     537     538     539     540     541     542     535     536     537
     538     539     540     541     542     536     537     538     539     540
     541     542     537     538     539     540     541     542     538     539
     539       0     541     542     542       0     544     545     546     547
     548     549     550     551     552     545     546     547     548     549
     550     551     552     546     547     548     549     550     551     552
     547     548     549     550     551     552     548     549     549       0
     551     552     552       0     554     555     556     557     558     559
     560     561     562     555     556     557     558     559     560     561
     562     556     557     558     559     560     561     562     557     558
     559     560     561     562     558     559     559       0     561     562
     562       0     564     565     566     567     568     569     570     571
     572     565     566     567     568     569     570     571     572     566
     567     568     569     570     571     572     567     568     569     570
     571     572     568     569     569       0     571     572     572       0
     574     575     576     577     578     579     580     581     582     575
     576     577     578     579     580     581     582     576     577     578
     579     580     581     582     577     578     579     580     581     582
     578     579     579       0     581     582     582       0     584     585
     586     587     588     589     590     591     592     585     586     587
     588     589     590     591     592     586     587     588     589     590
     591     592     587     588     589     590     591     592     588     589
     589       0     591     592     592       0     594     595     596     597
     598     599     600     601     602     595     596     597     598     599
     600     601     602     596     597     598     599     600     601     602
     597     598     599     600     601     602     598     599     599       0
     601     602     602       0     604     605     606     607     608     609
     610     611     612     605     606     607     608     609     610     611
     612     606     607     608     609     610     611     612     607     608
     609     610     611     612     608     609     609       0     611     612
     612       0     614     615     616     617     618     619     620     621
     622     615     616     617     618     619     620     621     622     616
     617     618     619     620     621     622     617     618     619     620
     621     622     618     619     619       0     621     622     622       0
     624     625     626     627     628     629     630     631     632     625
     626     627     628     629     630     631     632     626     627     628
     629     630     631     632     627     628     629     630     631     632
     628     629     629       0     631     632     632       0     634     635
     636     637     638     639     640     641     642     635     636     637
     638     639     640     641     642     636     637     638     639     640
     641     642     637     638     639     640     641     642     638     639
     639       0     641     642     642       0     644     645     646     647
     648     649     650     651     652     645     646     647     648     649
     650     651     652     646     647     648     649     650     651     652
     647     648     649     650     651     652     648     649     649       0
     651     652     652       0     654     655     656     657     658     659
     660     661     662     655     656     657     658     659     660     661
     662     656     657     658     659     660     661     662     657     658
     659     660     661     662     658     659     659       0     661     662
     662       0     664     665     666     667     668     669     670     671
     672     665     666     667     668     669     670     671     672     666
     667     668     669     670     671     672     667     668     669     670
     671     672     668     669     669       0     671     672     672       0
     674     675     676     677     678     679     680     681     682     675
     676     677     678     679     680     681     682     676     677     678
     679     680     681     682     677     678     679     680     681     682
     678     679     679       0     681     682     682       0     684     685
     686     687     688     689     690     691     692     685     686     687
     688     689     690     691     692     686     687     688     689     690
     691     692     687     688     689     690     691     692     688     689
     689       0     691     692     692       0     694     695     696     697
     698     699     700     701     702     695     696     697     698     699
     700     701     702     696     697     698     699     700     701     702
     697     698     699     700     701     702     698     699     699       0
     701     702     702       0     704     705     706     707     708     709
     710     711     712     705     706     707     708     709     710     711
     712     706     707     708     709     710     711     712     707     708
     709     710     711     712     708     709     709       0     711     712
     712       0     714     715     716     717     718     719     720     721
     722     715     716     717     718     719     720     721     722     716
     717     718     719     720     721     722     717     718     719     720
     721     722     718     719     719       0     721     722     722       0
     724     725     726     727     728     729     730     731     732     725
     726     727     728     729     730     731     732     726     727     728
     729     730     731     732     727     728     729     730     731     732
     728     729     729       0     731     732     732       0     734     735
     736     737     738     739     740     741     742     735     736     737
     738     739     740     741     742     736     737     738     739     740
     741     742     737     738     739     740     741     742     738     739
     739       0     741     742     742       0     744     745     746     747
     748     749     750     751     752     745     746     747     748     749
     750     751     752     746     747     748     749     750     751     752
     747     748     749     750     751     752     748     749     749       0
     751     752     752       0     754     755     756     757     758     759
     760     761     762     755     756     757     758     759     760     761
     762     756     757     758     759     760     761     762     757     758
     759     760     761     762     758     759     759       0     761     762
     762       0     764     765     766     767     768     769     770     771
     772     765     766     767     768     769     770     771     772     766
     767     768     769     770     771     772     767     768     769     770
     771     772     768     769     769       0     771     772     772       0
     774     775     776     777     778     779     780     781     782     775
     776     777     778     779     780     781     782     776     777     778
     779     780     781     782     777     778     779     780     781     782
     778     779     779       0     781     782     782       0     784     785
     786     787     788     789     790     791     792     785     786     787
     788     789     790     791     792     786     787     788     789     790
     791     792     787     788     789     790     791     792     788     789
     789       0     791     792     792       0     794     795     796     797
     798     799     800     801     802     795     796     797     798     799
     800     801     802     796     797     798     799     800     801     802
     797     798     799     800     801     802     798     799     799       0
     801     802     802       0     804     805     806     807     808     809
     810     811     812     805     806     807     808     809     810     811
     812     806     807     808     809     810     811     812     807     808
     809     810     811     812     808     809     809       0     811     812
     812       0     814     815     816     817     818     819     820     821
     822     815     816     817     818     819     820     821     822     816
     817     818     819     820     821     822     817     818     819     820
     821     822     818     819     819       0     821     822     822       0
     824     825     826     827     828     829     830     831     832     825
     826     827     828     829     830     831     832     826     827     828
     829     830     831     832     827     828     829     830     831     832
     828     829     829       0     831     832     832       0     834     835
     836     837     838     839     840     841     842     835     836     837
     838     839     840     841     842     836     837     838     839     840
     841     842     837     838     839     840     841     842     838     839
     839       0     841     842     842       0     844     845     846     847
     848     849     850     851     852     845     846     847     848     849
     850     851     852     846     847     848     849     850     851     852
     847     848     849     850     851     852     848     849     849       0
     851     852     852       0     854     855     856     857     858     859
     860     861     862     855     856     857     858     859     860     861
     862     856     857     858     859     860     861     862     857     858
     859     860     861     862     858     859     859       0     861     862
     862       0     864     865     866     867     868     869     870     871
     872     865     866     867     868     869     870     871     872     866
     867     868     869     870     871     872     867     868     869     870
     871     872     868     869     869       0     871     872     872       0
     874     875     876     877     878     879     880     881     882     875
     876     877     878     879     880     881     882     876     877     878
     879     880     881     882     877     878     879     880     881     882
     878     879     879       0     881     882     882       0     884     885
     886     887     888     889     890     891     892     885     886     887
     888     889     890     891     892     886     887     888     889     890
     891     892     887     888     889     890     891     892     888     889
     889       0     891     892     892       0     894     895     896     897
     898     899     900     901     902     895     896     897     898     899
     900     901     902     896     897     898     899     900     901     902
     897     898     899     900     901     902     898     899     899       0
     901     902     902       0     904     905     906     907     908     909
     910     911     912     905     906     907     908     909     910     911
     912     906     907     908     909     910     911     912     907     908
     909     910     911     912     908     909     909       0     911     912
     912       0     914     915     916     917     918     919     920     921
     922     915     916     917     918     919     920     921     922     916
     917     918     919     920     921     922     917     918     919     920
     921     922     918     919     919       0     921     922     922       0
     924     925     926     927     928     929     930     931     932     925
     926     927     928     929     930     931     932     926     927     928
     929     930     931     932     927     928     929     930     931     932
     928     929     929       0     931     932     932       0     934     935
     936     937     938     939     940     941     942     935     936     937
     938     939     940     941     942     936     937     938     939     940
     941     942     937     938     939     940     941     942     938     939
     939       0     941     942     942       0     944     945     946     947
     948     949     950     951     952     945     946     947     948     949
     950     951     952     946     947     948     949     950     951     952
     947     948     949     950     951     952     948     949     949       0
     951     952     952       0     954     955     956     957     958     959
     960     961     962     955     956     957     958     959     960     961
     962     956     957     958     959     960     961     962     957     958
     959     960     961     962     958     959     959       0     961     962
     962       0     964     965     966     967     968     969     970     971
     972     965     966     967     968     969     970     971     972     966
     967     968     969     970     971     972     967     968     969     970
     971     972     968     969     969       0     971     972     972       0
     974     975     976     977     978     979     980     981     982     975
     976     977     978     979     980     981     982     976     977     978
     979     980     981     982     977     978     979     980     981     982
     978     979     979       0     981     982     982       0     984     985
     986     987     988     989     990     991     992     985     986     987
     988     989     990     991     992     986     987     988     989     990
     991     992     987     988     989     990     991     992     988     989
     989       0     991     992     992       0     994     995     996     997
     998     999    1000    1001    1002     995     996     997     998     999
    1000    1001    1002     996     997     998     999    1000    1001    1002
     997     998     999    1000    1001    1002     998     999     999       0
    1001    1002    1002       0    1004    1005    1006    1007    1008    1009
    1010    1011    1012    1005    1006    1007    1008    1009    1010    1011
    1012    1006    1007    1008    1009    1010    1011    1012    1007    1008
    1009    1010    1011    1012    1008    1009    1009       0    1011    1012
    1012       0    1014    1015    1016    1017    1018    1019    1020    1021
    1022    1015    1016    1017    1018    1019    1020    1021    1022    1016
    1017    1018    1019    1020    1021    1022    1017    1018    1019    1020
    1021    1022    1018    1019    1019       0    1021    1022    1022       0
    1024    1025    1026    1027    1028    1029    1030    1031    1032    1025
    1026    1027    1028    1029    1030    1031    1032    1026    1027    1028
    1029    1030    1031    1032    1027    1028    1029    1030    1031    1032
    1028    1029    1029       0    1031    1032    1032       0    1034    1035
    1036    1037    1038    1039    1040    1041    1042    1035    1036    1037
    1038    1039    1040    1041    1042    1036    1037    1038    1039    1040
    1041    1042    1037    1038    1039    1040    1041    1042    1038    1039
    1039       0    1041    1042    1042       0    1044    1045    1046    1047
    1048    1049    1050    1051    1052    1045    1046    1047    1048    1049
    1050    1051    1052    1046    1047    1048    1049    1050    1051    1052
    1047    1048    1049    1050    1051    1052    1048    1049    1049       0
    1051    1052    1052       0    1054    1055    1056    1057    1058    1059
    1060    1061    1062    1055    1056    1057    1058    1059    1060    1061
    1062    1056    1057    1058    1059    1060    1061    1062    1057    1058
    1059    1060    1061    1062    1058    1059    1059       0    1061    1062
    1062       0    1064    1065    1066    1067    1068    1069    1070    1071
    1072    1065    1066    1067    1068    1069    1070    1071    1072    1066
    1067    1068    1069    1070    1071    1072    1067    1068    1069    1070
    1071    1072    1068    1069    1069       0    1071    1072    1072       0
    1074    1075    1076    1077    1078    1079    1080    1081    1082    1075
    1076    1077    1078    1079    1080    1081    1082    1076    1077    1078
    1079    1080    1081    1082    1077    1078    1079    1080    1081    1082
    1078    1079    1079       0    1081    1082    1082       0    1084    1085
    1086    1087    1088    1089    1090    1091    1092    1085    1086    1087
    1088    1089    1090    1091    1092    1086    1087    1088    1089    1090
    1091    1092    1087    1088    1089    1090    1091    1092    1088    1089
    1089       0    1091    1092    1092       0    1094    1095    1096    1097
    1098    1099    1100    1101    1102    1095    1096    1097    1098    1099
    1100    1101    1102    1096    1097    1098    1099    1100    1101    1102
    1097    1098    1099    1100    1101    1102    1098    1099    1099       0
    1101    1102    1102       0    1104    1105    1106    1107    1108    1109
    1110    1111    1112    1105    1106    1107    1108    1109    1110    1111
    1112    1106    1107    1108    1109    1110    1111    1112    1107    1108
    1109    1110    1111    1112    1108    1109    1109       0    1111    1112
    1112       0    1114    1115    1116    1117    1118    1119    1120    1121
    1122    1115    1116    1117    1118    1119    1120    1121    1122    1116
    1117    1118    1119    1120    1121    1122    1117    1118    1119    1120
    1121    1122    1118    1119    1119       0    1121    1122    1122       0
    1124    1125    1126    1127    1128    1129    1130    1131    1132    1125
    1126    1127    1128    1129    1130    1131    1132    1126    1127    1128
    1129    1130    1131    1132    1127    1128    1129    1130    1131    1132
    1128    1129    1129       0    1131    1132    1132       0    1134    1135
    1136    1137    1138    1139    1140    1141    1142    1135    1136    1137
    1138    1139    1140    1141    1142    1136    1137    1138    1139    1140
    1141    1142    1137    1138    1139    1140    1141    1142    1138    1139
    1139       0    1141    1142    1142       0    1144    1145    1146    1147
    1148    1149    1150    1151    1152    1145    1146    1147    1148    1149
    1150    1151    1152    1146    1147    1148    1149    1150    1151    1152
    1147    1148    1149    1150    1151    1152    1148    1149    1149       0
    1151    1152    1152       0    1154    1155    1156    1157    1158    1159
    1160    1161    1162    1155    1156    1157    1158    1159    1160    1161
    1162    1156    1157    1158    1159    1160    1161    1162    1157    1158
    1159    1160    1161    1162    1158    1159    1159       0    1161    1162
    1162       0    1164    1165    1166    1167    1168    1169    1170    1171
    1172    1165    1166    1167    1168    1169    1170    1171    1172    1166
    1167    1168    1169    1170    1171    1172    1167    1168    1169    1170
    1171    1172    1168    1169    1169       0    1171    1172    1172       0
    1174    1175    1176    1177    1178    1179    1180    1181    1182    1175
    1176    1177    1178    1179    1180    1181    1182    1176    1177    1178
    1179    1180    1181    1182    1177    1178    1179    1180    1181    1182
    1178    1179    1179       0    1181    1182    1182       0    1184    1185
    1186    1187    1188    1189    1190    1191    1192    1185    1186    1187
    1188    1189    1190    1191    1192    1186    1187    1188    1189    1190
    1191    1192    1187    1188    1189    1190    1191    1192    1188    1189
    1189       0    1191    1192    1192       0    1194    1195    1196    1197
    1198    1199    1200    1201    1202    1195    1196    1197    1198    1199
    1200    1201    1202    1196    1197    1198    1199    1200    1201    1202
    1197    1198    1199    1200    1201    1202    1198    1199    1199       0
    1201    1202    1202       0    1204    1205    1206    1207    1208    1209
    1210    1211    1212    1205    1206    1207    1208    1209    1210    1211
    1212    1206    1207    1208    1209    1210    1211    1212    1207    1208
    1209    1210    1211    1212    1208    1209    1209       0    1211    1212
    1212       0    1214    1215    1216    1217    1218    1219    1220    1221
    1222    1215    1216    1217    1218    1219    1220    1221    1222    1216
    1217    1218    1219    1220    1221    1222    1217    1218    1219    1220
    1221    1222    1218    1219    1219       0    1221    1222    1222       0
    1224    1225    1226    1227    1228    1229    1230    1231    1232    1225
    1226    1227    1228    1229    1230    1231    1232    1226    1227    1228
    1229    1230    1231    1232    1227    1228    1229    1230    1231    1232
    1228    1229    1229       0    1231    1232    1232       0    1234    1235
    1236    1237    1238    1239    1240    1241    1242    1235    1236    1237
    1238    1239    1240    1241    1242    1236    1237    1238    1239    1240
    1241    1242    1237    1238    1239    1240    1241    1242    1238    1239
    1239       0    1241    1242    1242       0    1244    1245    1246    1247
    1248    1249    1250    1251    1252    1245    1246    1247    1248    1249
    1250    1251    1252    1246    1247    1248    1249    1250    1251    1252
    1247    1248    1249    1250    1251    1252    1248    1249    1249       0
    1251    1252    1252       0    1254    1255    1256    1257    1258    1259
    1260    1261    1262    1255    1256    1257    1258    1259    1260    1261
    1262    1256    1257    1258    1259    1260    1261    1262    1257    1258
    1259    1260    1261    1262    1258    1259    1259       0    1261    1262
    1262       0    1264    1265    1266    1267    1268    1269    1270    1271
    1272    1265    1266    1267    1268    1269    1270    1271    1272    1266
    1267    1268    1269    1270    1271    1272    1267    1268    1269    1270
    1271    1272    1268    1269    1269       0    1271    1272    1272       0
    1274    1275    1276    1277    1278    1279    1280    1281    1282    1275
    1276    1277    1278    1279    1280    1281    1282    1276    1277    1278
    1279    1280    1281    1282    1277    1278    1279    1280    1281    1282
    1278    1279    1279       0    1281    1282    1282       0    1284    1285
    1286    1287    1288    1289    1290    1291    1292    1285    1286    1287
    1288    1289    1290    1291    1292    1286    1287    1288    1289    1290
    1291    1292    1287    1288    1289    1290    1291    1292    1288    1289
    1289       0    1291    1292    1292       0    1294    1295    1296    1297
    1298    1299    1300    1301    1302    1295    1296    1297    1298    1299
    1300    1301    1302    1296    1297    1298    1299    1300    1301    1302
    1297    1298    1299    1300    1301    1302    1298    1299    1299       0
    1301    1302    1302       0    1304    1305    1306    1307    1308    1309
    1310    1311    1312    1305    1306    1307    1308    1309    1310    1311
    1312    1306    1307    1308    1309    1310    1311    1312    1307    1308
    1309    1310    1311    1312    1308    1309    1309       0    1311    1312
    1312       0    1314    1315    1316    1317    1318    1319    1320    1321
    1322    1315    1316    1317    1318    1319    1320    1321    1322    1316
    1317    1318    1319    1320    1321    1322    1317    1318    1319    1320
    1321    1322    1318    1319    1319       0    1321    1322    1322       0
    1324    1325    1326    1327    1328    1329    1330    1331    1332    1325
    1326    1327    1328    1329    1330    1331    1332    1326    1327    1328
    1329    1330    1331    1332    1327    1328    1329    1330    1331    1332
    1328    1329    1329       0    1331    1332    1332       0    1334    1335
    1336    1337    1338    1339    1340    1341    1342    1335    1336    1337
    1338    1339    1340    1341    1342    1336    1337    1338    1339    1340
    1341    1342    1337    1338    1339    1340    1341    1342    1338    1339
    1339       0    1341    1342    1342       0    1344    1345    1346    1347
    1348    1349    1350    1351    1352    1345    1346    1347    1348    1349
    1350    1351    1352    1346    1347    1348    1349    1350    1351    1352
    1347    1348    1349    1350    1351    1352    1348    1349    1349       0
    1351    1352    1352       0    1354    1355    1356    1357    1358    1359
    1360    1361    1362    1355    1356    1357    1358    1359    1360    1361
    1362    1356    1357    1358    1359    1360    1361    1362    1357    1358
    1359    1360    1361    1362    1358    1359    1359       0    1361    1362
    1362       0    1364    1365    1366    1367    1368    1369    1370    1371
    1372    1365    1366    1367    1368    1369    1370    1371    1372    1366
    1367    1368    1369    1370    1371    1372    1367    1368    1369    1370
    1371    1372    1368    1369    1369       0    1371    1372    1372       0
    1374    1375    1376    1377    1378    1379    1380    1381    1382    1375
    1376    1377    1378    1379    1380    1381    1382    1376    1377    1378
    1379    1380    1381    1382    1377    1378    1379    1380    1381    1382
    1378    1379    1379       0    1381    1382    1382       0    1384    1385
    1386    1387    1388    1389    1390    1391    1392    1385    1386    1387
    1388    1389    1390    1391    1392    1386    1387    1388    1389    1390
    1391    1392    1387    1388    1389    1390    1391    1392    1388    1389
    1389       0    1391    1392    1392       0    1394    1395    1396    1397
    1398    1399    1400    1401    1402    1395    1396    1397    1398    1399
    1400    1401    1402    1396    1397    1398    1399    1400    1401    1402
    1397    1398    1399    1400    1401    1402    1398    1399    1399       0
    1401    1402    1402       0    1404    1405    1406    1407    1408    1409
    1410    1411    1412    1405    1406    1407    1408    1409    1410    1411
    1412    1406    1407    1408    1409    1410    1411    1412    1407    1408
    1409    1410    1411    1412    1408    1409    1409       0    1411    1412
    1412       0    1414    1415    1416    1417    1418    1419    1420    1421
    1422    1415    1416    1417    1418    1419    1420    1421    1422    1416
    1417    1418    1419    1420    1421    1422    1417    1418    1419    1420
    1421    1422    1418    1419    1419       0    1421    1422    1422       0
    1424    1425    1426    1427    1428    1429    1430    1431    1432    1425
    1426    1427    1428    1429    1430    1431    1432    1426    1427    1428
    1429    1430    1431    1432    1427    1428    1429    1430    1431    1432
    1428    1429    1429       0    1431    1432    1432       0    1434    1435
    1436    1437    1438    1439    1440    1441    1442    1435    1436    1437
    1438    1439    1440    1441    1442    1436    1437    1438    1439    1440
    1441    1442    1437    1438    1439    1440    1441    1442    1438    1439
    1439       0    1441    1442    1442       0    1444    1445    1446    1447
    1448    1449    1450    1451    1452    1445    1446    1447    1448    1449
    1450    1451    1452    1446    1447    1448    1449    1450    1451    1452
    1447    1448    1449    1450    1451    1452    1448    1449    1449       0
    1451    1452    1452       0    1454    1455    1456    1457    1458    1459
    1460    1461    1462    1455    1456    1457    1458    1459    1460    1461
    1462    1456    1457    1458    1459    1460    1461    1462    1457    1458
    1459    1460    1461    1462    1458    1459    1459       0    1461    1462
    1462       0    1464    1465    1466    1467    1468    1469    1470    1471
    1472    1465    1466    1467    1468    1469    1470    1471    1472    1466
    1467    1468    1469    1470    1471    1472    1467    1468    1469    1470
    1471    1472    1468    1469    1469       0    1471    1472    1472       0
    1474    1475    1476    1477    1478    1479    1480    1481    1482    1475
    1476    1477    1478    1479    1480    1481    1482    1476    1477    1478
    1479    1480    1481    1482    1477    1478    1479    1480    1481    1482
    1478    1479    1479       0    1481    1482    1482       0    1484    1485
    1486    1487    1488    1489    1490    1491    1492    1485    1486    1487
    1488    1489    1490    1491    1492    1486    1487    1488    1489    1490
    1491    1492    1487    1488    1489    1490    1491    1492    1488    1489
    1489       0    1491    1492    1492       0    1494    1495    1496    1497
    1498    1499    1500    1501    1502    1495    1496    1497    1498    1499
    1500    1501    1502    1496    1497    1498    1499    1500    1501    1502
    1497    1498    1499    1500    1501    1502    1498    1499    1499       0
    1501    1502    1502       0    1504    1505    1506    1507    1508    1509
    1510    1511    1512    1505    1506    1507    1508    1509    1510    1511
    1512    1506    1507    1508    1509    1510    1511    1512    1507    1508
    1509    1510    1511    1512    1508    1509    1509       0    1511    1512
    1512       0    1514    1515    1516    1517    1518    1519    1520    1521
    1522    1515    1516    1517    1518    1519    1520    1521    1522    1516
    1517    1518    1519    1520    1521    1522    1517    1518    1519    1520
    1521    1522    1518    1519    1519       0    1521    1522    1522       0
    1524    1525    1526    1527    1528    1529    1530    1531    1532    1525
    1526    1527    1528    1529    1530    1531    1532    1526    1527    1528
    1529    1530    1531    1532    1527    1528    1529    1530    1531    1532
    1528    1529    1529       0    1531    1532    1532       0    1534    1535
    1536    1537    1538    1539    1540    1541    1542    1535    1536    1537
    1538    1539    1540    1541    1542    1536    1537    1538    1539    1540
    1541    1542    1537    1538    1539    1540    1541    1542    1538    1539
    1539       0    1541    1542    1542       0    1544    1545    1546    1547
    1548    1549    1550    1551    1552    1545    1546    1547    1548    1549
    1550    1551    1552    1546    1547    1548    1549    1550    1551    1552
    1547    1548    1549    1550    1551    1552    1548    1549    1549       0
    1551    1552    1552       0    1554    1555    1556    1557    1558    1559
    1560    1561    1562    1555    1556    1557    1558    1559    1560    1561
    1562    1556    1557    1558    1559    1560    1561    1562    1557    1558
    1559    1560    1561    1562    1558    1559    1559       0    1561    1562
    1562       0    1564    1565    1566    1567    1568    1569    1570    1571
    1572    1565    1566    1567    1568    1569    1570    1571    1572    1566
    1567    1568    1569    1570    1571    1572    1567    1568    1569    1570
    1571    1572    1568    1569    1569       0    1571    1572    1572       0
    1574    1575    1576    1577    1578    1579    1580    1581    1582    1575
    1576    1577    1578    1579    1580    1581    1582    1576    1577    1578
    1579    1580    1581    1582    1577    1578    1579    1580    1581    1582
    1578    1579    1579       0    1581    1582    1582       0    1584    1585
    1586    1587    1588    1589    1590    1591    1592    1585    1586    1587
    1588    1589    1590    1591    1592    1586    1587    1588    1589    1590
    1591    1592    1587    1588    1589    1590    1591    1592    1588    1589
    1589       0    1591    1592    1592       0    1594    1595    1596    1597
    1598    1599    1600    1601    1602    1595    1596    1597    1598    1599
    1600    1601    1602    1596    1597    1598    1599    1600    1601    1602
    1597    1598    1599    1600    1601    1602    1598    1599    1599       0
    1601    1602    1602       0    1604    1605    1606    1607    1608    1609
    1610    1611    1612    1605    1606    1607    1608    1609    1610    1611
    1612    1606    1607    1608    1609    1610    1611    1612    1607    1608
    1609    1610    1611    1612    1608    1609    1609       0    1611    1612
    1612       0    1614    1615    1616    1617    1618    1619    1620    1621
    1622    1615    1616    1617    1618    1619    1620    1621    1622    1616
    1617    1618    1619    1620    1621    1622    1617    1618    1619    1620
    1621    1622    1618    1619    1619       0    1621    1622    1622       0
    1624    1625    1626    1627    1628    1629    1630    1631    1632    1625
    1626    1627    1628    1629    1630    1631    1632    1626    1627    1628
    1629    1630    1631    1632    1627    1628    1629    1630    1631    1632
    1628    1629    1629       0    1631    1632    1632       0    1634    1635
    1636    1637    1638    1639    1640    1641    1642    1635    1636    1637
    1638    1639    1640    1641    1642    1636    1637    1638    1639    1640
    1641    1642    1637    1638    1639    1640    1641    1642    1638    1639
    1639       0    1641    1642    1642       0    1644    1645    1646    1647
    1648    1649    1650    1651    1652    1645    1646    1647    1648    1649
    1650    1651    1652    1646    1647    1648    1649    1650    1651    1652
    1647    1648    1649    1650    1651    1652    1648    1649    1649       0
    1651    1652    1652       0    1654    1655    1656    1657    1658    1659
    1660    1661    1662    1655    1656    1657    1658    1659    1660    1661
    1662    1656    1657    1658    1659    1660    1661    1662    1657    1658
    1659    1660    1661    1662    1658    1659    1659       0    1661    1662
    1662       0    1664    1665    1666    1667    1668    1669    1670    1671
    1672    1665    1666    1667    1668    1669    1670    1671    1672    1666
    1667    1668    1669    1670    1671    1672    1667    1668    1669    1670
    1671    1672    1668    1669    1669       0    1671    1672    1672       0
    1674    1675    1676    1677    1678    1679    1680    1681    1682    1675
    1676    1677    1678    1679    1680    1681    1682    1676    1677    1678
    1679    1680    1681    1682    1677    1678    1679    1680    1681    1682
    1678    1679    1679       0    1681    1682    1682       0    1684    1685
    1686    1687    1688    1689    1690    1691    1692    1685    1686    1687
    1688    1689    1690    1691    1692    1686    1687    1688    1689    1690
    1691    1692    1687    1688    1689    1690    1691    1692    1688    1689
    1689       0    1691    1692    1692       0    1694    1695    1696    1697
    1698    1699    1700    1701    1702    1695    1696    1697    1698    1699
    1700    1701    1702    1696    1697    1698    1699    1700    1701    1702
    1697    1698    1699    1700    1701    1702    1698    1699    1699       0
    1701    1702    1702       0    1704    1705    1706    1707    1708    1709
    1710    1711    1712    1705    1706    1707    1708    1709    1710    1711
    1712    1706    1707    1708    1709    1710    1711    1712    1707    1708
    1709    1710    1711    1712    1708    1709    1709       0    1711    1712
    1712       0    1714    1715    1716    1717    1718    1719    1720    1721
    1722    1715    1716    1717    1718    1719    1720    1721    1722    1716
    1717    1718    1719    1720    1721    1722    1717    1718    1719    1720
    1721    1722    1718    1719    1719       0    1721    1722    1722       0
    1724    1725    1726    1727    1728    1729    1730    1731    1732    1725
    1726    1727    1728    1729    1730    1731    1732    1726    1727    1728
    1729    1730    1731    1732    1727    1728    1729    1730    1731    1732
    1728    1729    1729       0    1731    1732    1732       0    1734    1735
    1736    1737    1738    1739    1740    1741    1742    1735    1736    1737
    1738    1739    1740    1741    1742    1736    1737    1738    1739    1740
    1741    1742    1737    1738    1739    1740    1741    1742    1738    1739
    1739       0    1741    1742    1742       0    1744    1745    1746    1747
    1748    1749    1750    1751    1752    1745    1746    1747    1748    1749
    1750    1751    1752    1746    1747    1748    1749    1750    1751    1752
    1747    1748    1749    1750    1751    1752    1748    1749    1749       0
    1751    1752    1752       0    1754    1755    1756    1757    1758    1759
    1760    1761    1762    1755    1756    1757    1758    1759    1760    1761
    1762    1756    1757    1758    1759    1760    1761    1762    1757    1758
    1759    1760    1761    1762    1758    1759    1759       0    1761    1762
    1762       0    1764    1765    1766    1767    1768    1769    1770    1771
    1772    1765    1766    1767    1768    1769    1770    1771    1772    1766
    1767    1768    1769    1770    1771    1772    1767    1768    1769    1770
    1771    1772    1768    1769    1769       0    1771    1772    1772       0
    1774    1775    1776    1777    1778    1779    1780    1781    1782    1775
    1776    1777    1778    1779    1780    1781    1782    1776    1777    1778
    1779    1780    1781    1782    1777    1778    1779    1780    1781    1782
    1778    1779    1779       0    1781    1782    1782       0    1784    1785
    1786    1787    1788    1789    1790    1791    1792    1785    1786    1787
    1788    1789    1790    1791    1792    1786    1787    1788    1789    1790
    1791    1792    1787    1788    1789    1790    1791    1792    1788    1789
    1789       0    1791    1792    1792       0    1794    1795    1796    1797
    1798    1799    1800    1801    1802    1795    1796    1797    1798    1799
    1800    1801    1802    1796    1797    1798    1799    1800    1801    1802
    1797    1798    1799    1800    1801    1802    1798    1799    1799       0
    1801    1802    1802       0    1804    1805    1806    1807    1808    1809
    1810    1811    1812    1805    1806    1807    1808    1809    1810    1811
    1812    1806    1807    1808    1809    1810    1811    1812    1807    1808
    1809    1810    1811    1812    1808    1809    1809       0    1811    1812
    1812       0    1814    1815    1816    1817    1818    1819    1820    1821
    1822    1815    1816    1817    1818    1819    1820    1821    1822    1816
    1817    1818    1819    1820    1821    1822    1817    1818    1819    1820
    1821    1822    1818    1819    1819       0    1821    1822    1822       0
    1824    1825    1826    1827    1828    1829    1830    1831    1832    1825
    1826    1827    1828    1829    1830    1831    1832    1826    1827    1828
    1829    1830    1831    1832    1827    1828    1829    1830    1831    1832
    1828    1829    1829       0    1831    1832    1832       0    1834    1835
    1836    1837    1838    1839    1840    1841    1842    1835    1836    1837
    1838    1839    1840    1841    1842    1836    1837    1838    1839    1840
    1841    1842    1837    1838    1839    1840    1841    1842    1838    1839
    1839       0    1841    1842    1842       0    1844    1845    1846    1847
    1848    1849    1850    1851    1852    1845    1846    1847    1848    1849
    1850    1851    1852    1846    1847    1848    1849    1850    1851    1852
    1847    1848    1849    1850    1851    1852    1848    1849    1849       0
    1851    1852    1852       0    1854    1855    1856    1857    1858    1859
    1860    1861    1862    1855    1856    1857    1858    1859    1860    1861
    1862    1856    1857    1858    1859    1860    1861    1862    1857    1858
    1859    1860    1861    1862    1858    1859    1859       0    1861    1862
    1862       0    1864    1865    1866    1867    1868    1869    1870    1871
    1872    1865    1866    1867    1868    1869    1870    1871    1872    1866
    1867    1868    1869    1870    1871    1872    1867    1868    1869    1870
    1871    1872    1868    1869    1869       0    1871    1872    1872       0
    1874    1875    1876    1877    1878    1879    1880    1881    1882    1875
    1876    1877    1878    1879    1880    1881    1882    1876    1877    1878
    1879    1880    1881    1882    1877    1878    1879    1880    1881    1882
    1878    1879    1879       0    1881    1882    1882       0    1884    1885
    1886    1887    1888    1889    1890    1891    1892    1885    1886    1887
    1888    1889    1890    1891    1892    1886    1887    1888    1889    1890
    1891    1892    1887    1888    1889    1890    1891    1892    1888    1889
    1889       0    1891    1892    1892       0    1894    1895    1896    1897
    1898    1899    1900    1901    1902    1895    1896    1897    1898    1899
    1900    1901    1902    1896    1897    1898    1899    1900    1901    1902
    1897    1898    1899    1900    1901    1902    1898    1899    1899       0
    1901    1902    1902       0    1904    1905    1906    1907    1908    1909
    1910    1911    1912    1905    1906    1907    1908    1909    1910    1911
    1912    1906    1907    1908    1909    1910    1911    1912    1907    1908
    1909    1910    1911    1912    1908    1909    1909       0    1911    1912
    1912       0    1914    1915    1916    1917    1918    1919    1920    1921
    1922    1915    1916    1917    1918    1919    1920    1921    1922    1916
    1917    1918    1919    1920    1921    1922    1917    1918    1919    1920
    1921    1922    1918    1919    1919       0    1921    1922    1922       0
    1924    1925    1926    1927    1928    1929    1930    1931    1932    1925
    1926    1927    1928    1929    1930    1931    1932    1926    1927    1928
    1929    1930    1931    1932    1927    1928    1929    1930    1931    1932
    1928    1929    1929       0    1931    1932    1932       0    1934    1935
    1936    1937    1938    1939    1940    1941    1942    1935    1936    1937
    1938    1939    1940    1941    1942    1936    1937    1938    1939    1940
    1941    1942    1937    1938    1939    1940    1941    1942    1938    1939
    1939       0    1941    1942    1942       0    1944    1945    1946    1947
    1948    1949    1950    1951    1952    1945    1946    1947    1948    1949
    1950    1951    1952    1946    1947    1948    1949    1950    1951    1952
    1947    1948    1949    1950    1951    1952    1948    1949    1949       0
    1951    1952    1952       0    1954    1955    1956    1957    1958    1959
    1960    1961    1962    1955    1956    1957    1958    1959    1960    1961
    1962    1956    1957    1958    1959    1960    1961    1962    1957    1958
    1959    1960    1961    1962    1958    1959    1959       0    1961    1962
    1962       0    1964    1965    1966    1967    1968    1969    1970    1971
    1972    1965    1966    1967    1968    1969    1970    1971    1972    1966
    1967    1968    1969    1970    1971    1972    1967    1968    1969    1970
    1971    1972    1968    1969    1969       0    1971    1972    1972       0
    1974    1975    1976    1977    1978    1979    1980    1981    1982    1975
    1976    1977    1978    1979    1980    1981    1982    1976    1977    1978
    1979    1980    1981    1982    1977    1978    1979    1980    1981    1982
    1978    1979    1979       0    1981    1982    1982       0    1984    1985
    1986    1987    1988    1989    1990    1991    1992    1985    1986    1987
    1988    1989    1990    1991    1992    1986    1987    1988    1989    1990
    1991    1992    1987    1988    1989    1990    1991    1992    1988    1989
    1989       0    1991    1992    1992       0    1994    1995    1996    1997
    1998    1999    2000    2001    2002    1995    1996    1997    1998    1999
    2000    2001    2002    1996    1997    1998    1999    2000    2001    2002
    1997    1998    1999    2000    2001    2002    1998    1999    1999       0
    2001    2002    2002       0    2004    2005    2006    2007    2008    2009
    2010    2011    2012    2005    2006    2007    2008    2009    2010    2011
    2012    2006    2007    2008    2009    2010    2011    2012    2007    2008
    2009    2010    2011    2012    2008    2009    2009       0    2011    2012
    2012       0    2014    2015    2016    2017    2018    2019    2020    2021
    2022    2015    2016    2017    2018    2019    2020    2021    2022    2016
    2017    2018    2019    2020    2021    2022    2017    2018    2019    2020
    2021    2022    2018    2019    2019       0    2021    2022    2022       0
    2024    2025    2026    2027    2028    2029    2030    2031    2032    2025
    2026    2027    2028    2029    2030    2031    2032    2026    2027    2028
    2029    2030    2031    2032    2027    2028    2029    2030    2031    2032
    2028    2029    2029       0    2031    2032    2032       0    2034    2035
    2036    2037    2038    2039    2040    2041    2042    2035    2036    2037
    2038    2039    2040    2041    2042    2036    2037    2038    2039    2040
    2041    2042    2037    2038    2039    2040    2041    2042    2038    2039
    2039       0    2041    2042    2042       0    2044    2045    2046    2047
    2048    2049    2050    2051    2052    2045    2046    2047    2048    2049
    2050    2051    2052    2046    2047    2048    2049    2050    2051    2052
    2047    2048    2049    2050    2051    2052    2048    2049    2049       0
    2051    2052    2052       0    2054    2055    2056    2057    2058    2059
    2060    2061    2062    2055    2056    2057    2058    2059    2060    2061
    2062    2056    2057    2058    2059    2060    2061    2062    2057    2058
    2059    2060    2061    2062    2058    2059    2059       0    2061    2062
    2062       0    2064    2065    2066    2067    2068    2069    2070    2071
    2072    2065    2066    2067    2068    2069    2070    2071    2072    2066
    2067    2068    2069    2070    2071    2072    2067    2068    2069    2070
    2071    2072    2068    2069    2069       0    2071    2072    2072       0
    2074    2075    2076    2077    2078    2079    2080    2081    2082    2075
    2076    2077    2078    2079    2080    2081    2082    2076    2077    2078
    2079    2080    2081    2082    2077    2078    2079    2080    2081    2082
    2078    2079    2079       0    2081    2082    2082       0    2084    2085
    2086    2087    2088    2089    2090    2091    2092    2085    2086    2087
    2088    2089    2090    2091    2092    2086    2087    2088    2089    2090
    2091    2092    2087    2088    2089    2090    2091    2092    2088    2089
    2089       0    2091    2092    2092       0    2094    2095    2096    2097
    2098    2099    2100    2101    2102    2095    2096    2097    2098    2099
    2100    2101    2102    2096    2097    2098    2099    2100    2101    2102
    2097    2098    2099    2100    2101    2102    2098    2099    2099       0
    2101    2102    2102       0    2104    2105    2106    2107    2108    2109
    2110    2111    2112    2105    2106    2107    2108    2109    2110    2111
    2112    2106    2107    2108    2109    2110    2111    2112    2107    2108
    2109    2110    2111    2112    2108    2109    2109       0    2111    2112
    2112       0    2114    2115    2116    2117    2118    2119    2120    2121
    2122    2115    2116    2117    2118    2119    2120    2121    2122    2116
    2117    2118    2119    2120    2121    2122    2117    2118    2119    2120
    2121    2122    2118    2119    2119       0    2121    2122    2122       0
    2124    2125    2126    2127    2128    2129    2130    2131    2132    2125
    2126    2127    2128    2129    2130    2131    2132    2126    2127    2128
    2129    2130    2131    2132    2127    2128    2129    2130    2131    2132
    2128    2129    2129       0    2131    2132    2132       0    2134    2135
    2136    2137    2138    2139    2140    2141    2142    2135    2136    2137
    2138    2139    2140    2141    2142    2136    2137    2138    2139    2140
    2141    2142    2137    2138    2139    2140    2141    2142    2138    2139
    2139       0    2141    2142    2142       0    2144    2145    2146    2147
    2148    2149    2150    2151    2152    2145    2146    2147    2148    2149
    2150    2151    2152    2146    2147    2148    2149    2150    2151    2152
    2147    2148    2149    2150    2151    2152    2148    2149    2149       0
    2151    2152    2152       0    2154    2155    2156    2157    2158    2159
    2160    2161    2162    2155    2156    2157    2158    2159    2160    2161
    2162    2156    2157    2158    2159    2160    2161    2162    2157    2158
    2159    2160    2161    2162    2158    2159    2159       0    2161    2162
    2162       0    2164    2165    2166    2167    2168    2169    2170    2171
    2172    2165    2166    2167    2168    2169    2170    2171    2172    2166
    2167    2168    2169    2170    2171    2172    2167    2168    2169    2170
    2171    2172    2168    2169    2169       0    2171    2172    2172       0
    2174    2175    2176    2177    2178    2179    2180    2181    2182    2175
    2176    2177    2178    2179    2180    2181    2182    2176    2177    2178
    2179    2180    2181    2182    2177    2178    2179    2180    2181    2182
    2178    2179    2179       0    2181    2182    2182       0    2184    2185
    2186    2187    2188    2189    2190    2191    2192    2185    2186    2187
    2188    2189    2190    2191    2192    2186    2187    2188    2189    2190
    2191    2192    2187    2188    2189    2190    2191    2192    2188    2189
    2189       0    2191    2192    2192       0    2194    2195    2196    2197
    2198    2199    2200    2201    2202    2195    2196    2197    2198    2199
    2200    2201    2202    2196    2197    2198    2199    2200    2201    2202
    2197    2198    2199    2200    2201    2202    2198    2199    2199       0
    2201    2202    2202       0    2204    2205    2206    2207    2208    2209
    2210    2211    2212    2205    2206    2207    2208    2209    2210    2211
    2212    2206    2207    2208    2209    2210    2211    2212    2207    2208
    2209    2210    2211    2212    2208    2209    2209       0    2211    2212
    2212       0    2214    2215    2216    2217    2218    2219    2220    2221
    2222    2215    2216    2217    2218    2219    2220    2221    2222    2216
    2217    2218    2219    2220    2221    2222    2217    2218    2219    2220
    2221    2222    2218    2219    2219       0    2221    2222    2222       0
    2224    2225    2226    2227    2228    2229    2230    2231    2232    2225
    2226    2227    2228    2229    2230    2231    2232    2226    2227    2228
    2229    2230    2231    2232    2227    2228    2229    2230    2231    2232
    2228    2229    2229       0    2231    2232    2232       0    2234    2235
    2236    2237    2238    2239    2240    2241    2242    2235    2236    2237
    2238    2239    2240    2241    2242    2236    2237    2238    2239    2240
    2241    2242    2237    2238    2239    2240    2241    2242    2238    2239
    2239       0    2241    2242    2242       0    2244    2245    2246    2247
    2248    2249    2250    2251    2252    2245    2246    2247    2248    2249
    2250    2251    2252    2246    2247    2248    2249    2250    2251    2252
    2247    2248    2249    2250    2251    2252    2248    2249    2249       0
    2251    2252    2252       0    2254    2255    2256    2257    2258    2259
    2260    2261    2262    2255    2256    2257    2258    2259    2260    2261
    2262    2256    2257    2258    2259    2260    2261    2262    2257    2258
    2259    2260    2261    2262    2258    2259    2259       0    2261    2262
    2262       0    2264    2265    2266    2267    2268    2269    2270    2271
    2272    2265    2266    2267    2268    2269    2270    2271    2272    2266
    2267    2268    2269    2270    2271    2272    2267    2268    2269    2270
    2271    2272    2268    2269    2269       0    2271    2272    2272       0
    2274    2275    2276    2277    2278    2279    2280    2281    2282    2275
    2276    2277    2278    2279    2280    2281    2282    2276    2277    2278
    2279    2280    2281    2282    2277    2278    2279    2280    2281    2282
    2278    2279    2279       0    2281    2282    2282       0    2284    2285
    2286    2287    2288    2289    2290    2291    2292    2285    2286    2287
    2288    2289    2290    2291    2292    2286    2287    2288    2289    2290
    2291    2292    2287    2288    2289    2290    2291    2292    2288    2289
    2289       0    2291    2292    2292       0    2294    2295    2296    2297
    2298    2299    2300    2301    2302    2295    2296    2297    2298    2299
    2300    2301    2302    2296    2297    2298    2299    2300    2301    2302
    2297    2298    2299    2300    2301    2302    2298    2299    2299       0
    2301    2302    2302       0    2304    2305    2306    2307    2308    2309
    2310    2311    2312    2305    2306    2307    2308    2309    2310    2311
    2312    2306    2307    2308    2309    2310    2311    2312    2307    2308
    2309    2310    2311    2312    2308    2309    2309       0    2311    2312
    2312       0    2314    2315    2316    2317    2318    2319    2320    2321
    2322    2315    2316    2317    2318    2319    2320    2321    2322    2316
    2317    2318    2319    2320    2321    2322    2317    2318    2319    2320
    2321    2322    2318    2319    2319       0    2321    2322    2322       0
    2324    2325    2326    2327    2328    2329    2330    2331    2332    2325
    2326    2327    2328    2329    2330    2331    2332    2326    2327    2328
    2329    2330    2331    2332    2327    2328    2329    2330    2331    2332
    2328    2329    2329       0    2331    2332    2332       0    2334    2335
    2336    2337    2338    2339    2340    2341    2342    2335    2336    2337
    2338    2339    2340    2341    2342    2336    2337    2338    2339    2340
    2341    2342    2337    2338    2339    2340    2341    2342    2338    2339
    2339       0    2341    2342    2342       0    2344    2345    2346    2347
    2348    2349    2350    2351    2352    2345    2346    2347    2348    2349
    2350    2351    2352    2346    2347    2348    2349    2350    2351    2352
    2347    2348    2349    2350    2351    2352    2348    2349    2349       0
    2351    2352    2352       0    2354    2355    2356    2357    2358    2359
    2360    2361    2362    2355    2356    2357    2358    2359    2360    2361
    2362    2356    2357    2358    2359    2360    2361    2362    2357    2358
    2359    2360    2361    2362    2358    2359    2359       0    2361    2362
    2362       0    2364    2365    2366    2367    2368    2369    2370    2371
    2372    2365    2366    2367    2368    2369    2370    2371    2372    2366
    2367    2368    2369    2370    2371    2372    2367    2368    2369    2370
    2371    2372    2368    2369    2369       0    2371    2372    2372       0
    2374    2375    2376    2377    2378    2379    2380    2381    2382    2375
    2376    2377    2378    2379    2380    2381    2382    2376    2377    2378
    2379    2380    2381    2382    2377    2378    2379    2380    2381    2382
    2378    2379    2379       0    2381    2382    2382       0    2384    2385
    2386    2387    2388    2389    2390    2391    2392    2385    2386    2387
    2388    2389    2390    2391    2392    2386    2387    2388    2389    2390
    2391    2392    2387    2388    2389    2390    2391    2392    2388    2389
    2389       0    2391    2392    2392       0    2394    2395    2396    2397
    2398    2399    2400    2401    2402    2395    2396    2397    2398    2399
    2400    2401    2402    2396    2397    2398    2399    2400    2401    2402
    2397    2398    2399    2400    2401    2402    2398    2399    2399       0
    2401    2402    2402       0    2404    2405    2406    2407    2408    2409
    2410    2411    2412    2405    2406    2407    2408    2409    2410    2411
    2412    2406    2407    2408    2409    2410    2411    2412    2407    2408
    2409    2410    2411    2412    2408    2409    2409       0    2411    2412
    2412       0    2414    2415    2416    2417    2418    2419    2420    2421
    2422    2415    2416    2417    2418    2419    2420    2421    2422    2416
    2417    2418    2419    2420    2421    2422    2417    2418    2419    2420
    2421    2422    2418    2419    2419       0    2421    2422    2422       0
    2424    2425    2426    2427    2428    2429    2430    2431    2432    2425
    2426    2427    2428    2429    2430    2431    2432    2426    2427    2428
    2429    2430    2431    2432    2427    2428    2429    2430    2431    2432
    2428    2429    2429       0    2431    2432    2432       0    2434    2435
    2436    2437    2438    2439    2440    2441    2442    2435    2436    2437
    2438    2439    2440    2441    2442    2436    2437    2438    2439    2440
    2441    2442    2437    2438    2439    2440    2441    2442    2438    2439
    2439       0    2441    2442    2442       0    2444    2445    2446    2447
    2448    2449    2450    2451    2452    2445    2446    2447    2448    2449
    2450    2451    2452    2446    2447    2448    2449    2450    2451    2452
    2447    2448    2449    2450    2451    2452    2448    2449    2449       0
    2451    2452    2452       0    2454    2455    2456    2457    2458    2459
    2460    2461    2462    2455    2456    2457    2458    2459    2460    2461
    2462    2456    2457    2458    2459    2460    2461    2462    2457    2458
    2459    2460    2461    2462    2458    2459    2459       0    2461    2462
    2462       0    2464    2465    2466    2467    2468    2469    2470    2471
    2472    2465    2466    2467    2468    2469    2470    2471    2472    2466
    2467    2468    2469    2470    2471    2472    2467    2468    2469    2470
    2471    2472    2468    2469    2469       0    2471    2472    2472       0
    2474    2475    2476    2477    2478    2479    2480    2481    2482    2475
    2476    2477    2478    2479    2480    2481    2482    2476    2477    2478
    2479    2480    2481    2482    2477    2478    2479    2480    2481    2482
    2478    2479    2479       0    2481    2482    2482       0    2484    2485
    2486    2487    2488    2489    2490    2491    2492    2485    2486    2487
    2488    2489    2490    2491    2492    2486    2487    2488    2489    2490
    2491    2492    2487    2488    2489    2490    2491    2492    2488    2489
    2489       0    2491    2492    2492       0    2494    2495    2496    2497
    2498    2499    2500    2501    2502    2495    2496    2497    2498    2499
    2500    2501    2502    2496    2497    2498    2499    2500    2501    2502
    2497    2498    2499    2500    2501    2502    2498    2499    2499       0
    2501    2502    2502       0    2504    2505    2506    2507    2508    2509
    2510    2511    2512    2505    2506    2507    2508    2509    2510    2511
    2512    2506    2507    2508    2509    2510    2511    2512    2507    2508
    2509    2510    2511    2512    2508    2509    2509       0    2511    2512
    2512       0    2514    2515    2516    2517    2518    2519    2520    2521
    2522    2515    2516    2517    2518    2519    2520    2521    2522    2516
    2517    2518    2519    2520    2521    2522    2517    2518    2519    2520
    2521    2522    2518    2519    2519       0    2521    2522    2522       0
    2524    2525    2526    2527    2528    2529    2530    2531    2532    2525
    2526    2527    2528    2529    2530    2531    2532    2526    2527    2528
    2529    2530    2531    2532    2527    2528    2529    2530    2531    2532
    2528    2529    2529       0    2531    2532    2532       0    2534    2535
    2536    2537    2538    2539    2540    2541    2542    2535    2536    2537
    2538    2539    2540    2541    2542    2536    2537    2538    2539    2540
    2541    2542    2537    2538    2539    2540    2541    2542    2538    2539
    2539       0    2541    2542    2542       0    2544    2545    2546    2547
    2548    2549    2550    2551    2552    2545    2546    2547    2548    2549
    2550    2551    2552    2546    2547    2548    2549    2550    2551    2552
    2547    2548    2549    2550    2551    2552    2548    2549    2549       0
    2551    2552    2552       0    2554    2555    2556    2557    2558    2559
    2560    2561    2562    2555    2556    2557    2558    2559    2560    2561
    2562    2556    2557    2558    2559    2560    2561    2562    2557    2558
    2559    2560    2561    2562    2558    2559    2559       0    2561    2562
    2562       0    2564    2565    2566    2567    2568    2569    2570    2571
    2572    2565    2566    2567    2568    2569    2570    2571    2572    2566
    2567    2568    2569    2570    2571    2572    2567    2568    2569    2570
    2571    2572    2568    2569    2569       0    2571    2572    2572       0
    2574    2575    2576    2577    2578    2579    2580    2581    2582    2575
    2576    2577    2578    2579    2580    2581    2582    2576    2577    2578
    2579    2580    2581    2582    2577    2578    2579    2580    2581    2582
    2578    2579    2579       0    2581    2582    2582       0    2584    2585
    2586    2587    2588    2589    2590    2591    2592    2585    2586    2587
    2588    2589    2590    2591    2592    2586    2587    2588    2589    2590
    2591    2592    2587    2588    2589    2590    2591    2592    2588    2589
    2589       0    2591    2592    2592       0    2594    2595    2596    2597
    2598    2599    2600    2601    2602    2595    2596    2597    2598    2599
    2600    2601    2602    2596    2597    2598    2599    2600    2601    2602
    2597    2598    2599    2600    2601    2602    2598    2599    2599       0
    2601    2602    2602       0    2604    2605    2606    2607    2608    2609
    2610    2611    2612    2605    2606    2607    2608    2609    2610    2611
    2612    2606    2607    2608    2609    2610    2611    2612    2607    2608
    2609    2610    2611    2612    2608    2609    2609       0    2611    2612
    2612       0    2614    2615    2616    2617    2618    2619    2620    2621
    2622    2615    2616    2617    2618    2619    2620    2621    2622    2616
    2617    2618    2619    2620    2621    2622    2617    2618    2619    2620
    2621    2622    2618    2619    2619       0    2621    2622    2622       0
    2624    2625    2626    2627    2628    2629    2630    2631    2632    2625
    2626    2627    2628    2629    2630    2631    2632    2626    2627    2628
    2629    2630    2631    2632    2627    2628    2629    2630    2631    2632
    2628    2629    2629       0    2631    2632    2632       0    2634    2635
    2636    2637    2638    2639    2640    2641    2642    2635    2636    2637
    2638    2639    2640    2641    2642    2636    2637    2638    2639    2640
    2641    2642    2637    2638    2639    2640    2641    2642    2638    2639
    2639       0    2641    2642    2642       0    2644    2645    2646    2647
    2648    2649    2650    2651    2652    2645    2646    2647    2648    2649
    2650    2651    2652    2646    2647    2648    2649    2650    2651    2652
    2647    2648    2649    2650    2651    2652    2648    2649    2649       0
    2651    2652    2652       0    2654    2655    2656    2657    2658    2659
    2660    2661    2662    2655    2656    2657    2658    2659    2660    2661
    2662    2656    2657    2658    2659    2660    2661    2662    2657    2658
    2659    2660    2661    2662    2658    2659    2659       0    2661    2662
    2662       0    2664    2665    2666    2667    2668    2669    2670    2671
    2672    2665    2666    2667    2668    2669    2670    2671    2672    2666
    2667    2668    2669    2670    2671    2672    2667    2668    2669    2670
    2671    2672    2668    2669    2669       0    2671    2672    2672       0
    2674    2675    2676    2677    2678    2679    2680    2681    2682    2675
    2676    2677    2678    2679    2680    2681    2682    2676    2677    2678
    2679    2680    2681    2682    2677    2678    2679    2680    2681    2682
    2678    2679    2679       0    2681    2682    2682       0    2684    2685
    2686    2687    2688    2689    2690    2691    2692    2685    2686    2687
    2688    2689    2690    2691    2692    2686    2687    2688    2689    2690
    2691    2692    2687    2688    2689    2690    2691    2692    2688    2689
    2689       0    2691    2692    2692       0    2694    2695    2696    2697
    2698    2699    2700    2701    2702    2695    2696    2697    2698    2699
    2700    2701    2702    2696    2697    2698    2699    2700    2701    2702
    2697    2698    2699    2700    2701    2702    2698    2699    2699       0
    2701    2702    2702       0    2704    2705    2706    2707    2708    2709
    2710    2711    2712    2705    2706    2707    2708    2709    2710    2711
    2712    2706    2707    2708    2709    2710    2711    2712    2707    2708
    2709    2710    2711    2712    2708    2709    2709       0    2711    2712
    2712       0    2714    2715    2716    2717    2718    2719    2720    2721
    2722    2715    2716    2717    2718    2719    2720    2721    2722    2716
    2717    2718    2719    2720    2721    2722    2717    2718    2719    2720
    2721    2722    2718    2719    2719       0    2721    2722    2722       0
    2724    2725    2726    2727    2728    2729    2730    2731    2732    2725
    2726    2727    2728    2729    2730    2731    2732    2726    2727    2728
    2729    2730    2731    2732    2727    2728    2729    2730    2731    2732
    2728    2729    2729       0    2731    2732    2732       0    2734    2735
    2736    2737    2738    2739    2740    2741    2742    2735    2736    2737
    2738    2739    2740    2741    2742    2736    2737    2738    2739    2740
    2741    2742    2737    2738    2739    2740    2741    2742    2738    2739
    2739       0    2741    2742    2742       0    2744    2745    2746    2747
    2748    2749    2750    2751    2752    2745    2746    2747    2748    2749
    2750    2751    2752    2746    2747    2748    2749    2750    2751    2752
    2747    2748    2749    2750    2751    2752    2748    2749    2749       0
    2751    2752    2752       0    2754    2755    2756    2757    2758    2759
    2760    2761    2762    2755    2756    2757    2758    2759    2760    2761
    2762    2756    2757    2758    2759    2760    2761    2762    2757    2758
    2759    2760    2761    2762    2758    2759    2759       0    2761    2762
    2762       0    2764    2765    2766    2767    2768    2769    2770    2771
    2772    2765    2766    2767    2768    2769    2770    2771    2772    2766
    2767    2768    2769    2770    2771    2772    2767    2768    2769    2770
    2771    2772    2768    2769    2769       0    2771    2772    2772       0
    2774    2775    2776    2777    2778    2779    2780    2781    2782    2775
    2776    2777    2778    2779    2780    2781    2782    2776    2777    2778
    2779    2780    2781    2782    2777    2778    2779    2780    2781    2782
    2778    2779    2779       0    2781    2782    2782       0    2784    2785
    2786    2787    2788    2789    2790    2791    2792    2785    2786    2787
    2788    2789    2790    2791    2792    2786    2787    2788    2789    2790
    2791    2792    2787    2788    2789    2790    2791    2792    2788    2789
    2789       0    2791    2792    2792       0    2794    2795    2796    2797
    2798    2799    2800    2801    2802    2795    2796    2797    2798    2799
    2800    2801    2802    2796    2797    2798    2799    2800    2801    2802
    2797    2798    2799    2800    2801    2802    2798    2799    2799       0
    2801    2802    2802       0    2804    2805    2806    2807    2808    2809
    2810    2811    2812    2805    2806    2807    2808    2809    2810    2811
    2812    2806    2807    2808    2809    2810    2811    2812    2807    2808
    2809    2810    2811    2812    2808    2809    2809       0    2811    2812
    2812       0    2814    2815    2816    2817    2818    2819    2820    2821
    2822    2815    2816    2817    2818    2819    2820    2821    2822    2816
    2817    2818    2819    2820    2821    2822    2817    2818    2819    2820
    2821    2822    2818    2819    2819       0    2821    2822    2822       0
    2824    2825    2826    2827    2828    2829    2830    2831    2832    2825
    2826    2827    2828    2829    2830    2831    2832    2826    2827    2828
    2829    2830    2831    2832    2827    2828    2829    2830    2831    2832
    2828    2829    2829       0    2831    2832    2832       0    2834    2835
    2836    2837    2838    2839    2840    2841    2842    2835    2836    2837
    2838    2839    2840    2841    2842    2836    2837    2838    2839    2840
    2841    2842    2837    2838    2839    2840    2841    2842    2838    2839
    2839       0    2841    2842    2842       0    2844    2845    2846    2847
    2848    2849    2850    2851    2852    2845    2846    2847    2848    2849
    2850    2851    2852    2846    2847    2848    2849    2850    2851    2852
    2847    2848    2849    2850    2851    2852    2848    2849    2849       0
    2851    2852    2852       0    2854    2855    2856    2857    2858    2859
    2860    2861    2862    2855    2856    2857    2858    2859    2860    2861
    2862    2856    2857    2858    2859    2860    2861    2862    2857    2858
    2859    2860    2861    2862    2858    2859    2859       0    2861    2862
    2862       0    2864    2865    2866    2867    2868    2869    2870    2871
    2872    2865    2866    2867    2868    2869    2870    2871    2872    2866
    2867    2868    2869    2870    2871    2872    2867    2868    2869    2870
    2871    2872    2868    2869    2869       0    2871    2872    2872       0
    2874    2875    2876    2877    2878    2879    2880    2881    2882    2875
    2876    2877    2878    2879    2880    2881    2882    2876    2877    2878
    2879    2880    2881    2882    2877    2878    2879    2880    2881    2882
    2878    2879    2879       0    2881    2882    2882       0    2884    2885
    2886    2887    2888    2889    2890    2891    2892    2885    2886    2887
    2888    2889    2890    2891    2892    2886    2887    2888    2889    2890
    2891    2892    2887    2888    2889    2890    2891    2892    2888    2889
    2889       0    2891    2892    2892       0    2894    2895    2896    2897
    2898    2899    2900    2901    2902    2895    2896    2897    2898    2899
    2900    2901    2902    2896    2897    2898    2899    2900    2901    2902
    2897    2898    2899    2900    2901    2902    2898    2899    2899       0
    2901    2902    2902       0    2904    2905    2906    2907    2908    2909
    2910    2911    2912    2905    2906    2907    2908    2909    2910    2911
    2912    2906    2907    2908    2909    2910    2911    2912    2907    2908
    2909    2910    2911    2912    2908    2909    2909       0    2911    2912
    2912       0    2914    2915    2916    2917    2918    2919    2920    2921
    2922    2915    2916    2917    2918    2919    2920    2921    2922    2916
    2917    2918    2919    2920    2921    2922    2917    2918    2919    2920
    2921    2922    2918    2919    2919       0    2921    2922    2922       0
    2924    2925    2926    2927    2928    2929    2930    2931    2932    2925
    2926    2927    2928    2929    2930    2931    2932    2926    2927    2928
    2929    2930    2931    2932    2927    2928    2929    2930    2931    2932
    2928    2929    2929       0    2931    2932    2932       0    2934    2935
    2936    2937    2938    2939    2940    2941    2942    2935    2936    2937
    2938    2939    2940    2941    2942    2936    2937    2938    2939    2940
    2941    2942    2937    2938    2939    2940    2941    2942    2938    2939
    2939       0    2941    2942    2942       0    2944    2945    2946    2947
    2948    2949    2950    2951    2952    2945    2946    2947    2948    2949
    2950    2951    2952    2946    2947    2948    2949    2950    2951    2952
    2947    2948    2949    2950    2951    2952    2948    2949    2949       0
    2951    2952    2952       0    2954    2955    2956    2957    2958    2959
    2960    2961    2962    2955    2956    2957    2958    2959    2960    2961
    2962    2956    2957    2958    2959    2960    2961    2962    2957    2958
    2959    2960    2961    2962    2958    2959    2959       0    2961    2962
    2962       0    2964    2965    2966    2967    2968    2969    2970    2971
    2972    2965    2966    2967    2968    2969    2970    2971    2972    2966
    2967    2968    2969    2970    2971    2972    2967    2968    2969    2970
    2971    2972    2968    2969    2969       0    2971    2972    2972       0
    2974    2975    2976    2977    2978    2979    2980    2981    2982    2975
    2976    2977    2978    2979    2980    2981    2982    2976    2977    2978
    2979    2980    2981    2982    2977    2978    2979    2980    2981    2982
    2978    2979    2979       0    2981    2982    2982       0    2984    2985
    2986    2987    2988    2989    2990    2991    2992    2985    2986    2987
    2988    2989    2990    2991    2992    2986    2987    2988    2989    2990
    2991    2992    2987    2988    2989    2990    2991    2992    2988    2989
    2989       0    2991    2992    2992       0    2994    2995    2996    2997
    2998    2999    3000    3001    3002    2995    2996    2997    2998    2999
    3000    3001    3002    2996    2997    2998    2999    3000    3001    3002
    2997    2998    2999    3000    3001    3002    2998    2999    2999       0
    3001    3002    3002       0    3004    3005    3006    3007    3008    3009
    3010    3011    3012    3005    3006    3007    3008    3009    3010    3011
    3012    3006    3007    3008    3009    3010    3011    3012    3007    3008
    3009    3010    3011    3012    3008    3009    3009       0    3011    3012
    3012       0    3014    3015    3016    3017    3018    3019    3020    3021
    3022    3015    3016    3017    3018    3019    3020    3021    3022    3016
    3017    3018    3019    3020    3021    3022    3017    3018    3019    3020
    3021    3022    3018    3019    3019       0    3021    3022    3022       0
    3024    3025    3026    3027    3028    3029    3030    3031    3032    3025
    3026    3027    3028    3029    3030    3031    3032    3026    3027    3028
    3029    3030    3031    3032    3027    3028    3029    3030    3031    3032
    3028    3029    3029       0    3031    3032    3032       0    3034    3035
    3036    3037    3038    3039    3040    3041    3042    3035    3036    3037
    3038    3039    3040    3041    3042    3036    3037    3038    3039    3040
    3041    3042    3037    3038    3039    3040    3041    3042    3038    3039
    3039       0    3041    3042    3042       0    3044    3045    3046    3047
    3048    3049    3050    3051    3052    3045    3046    3047    3048    3049
    3050    3051    3052    3046    3047    3048    3049    3050    3051    3052
    3047    3048    3049    3050    3051    3052    3048    3049    3049       0
    3051    3052    3052       0    3054    3055    3056    3057    3058    3059
    3060    3061    3062    3055    3056    3057    3058    3059    3060    3061
    3062    3056    3057    3058    3059    3060    3061    3062    3057    3058
    3059    3060    3061    3062    3058    3059    3059       0    3061    3062
    3062       0    3064    3065    3066    3067    3068    3069    3070    3071
    3072    3065    3066    3067    3068    3069    3070    3071    3072    3066
    3067    3068    3069    3070    3071    3072    3067    3068    3069    3070
    3071    3072    3068    3069    3069       0    3071    3072    3072       0
    3074    3075    3076    3077    3078    3079    3080    3081    3082    3075
    3076    3077    3078    3079    3080    3081    3082    3076    3077    3078
    3079    3080    3081    3082    3077    3078    3079    3080    3081    3082
    3078    3079    3079       0    3081    3082    3082       0    3084    3085
    3086    3087    3088    3089    3090    3091    3092    3085    3086    3087
    3088    3089    3090    3091    3092    3086    3087    3088    3089    3090
    3091    3092    3087    3088    3089    3090    3091    3092    3088    3089
    3089       0    3091    3092    3092       0    3094    3095    3096    3097
    3098    3099    3100    3101    3102    3095    3096    3097    3098    3099
    3100    3101    3102    3096    3097    3098    3099    3100    3101    3102
    3097    3098    3099    3100    3101    3102    3098    3099    3099       0
    3101    3102    3102       0    3104    3105    3106    3107    3108    3109
    3110    3111    3112    3105    3106    3107    3108    3109    3110    3111
    3112    3106    3107    3108    3109    3110    3111    3112    3107    3108
    3109    3110    3111    3112    3108    3109    3109       0    3111    3112
    3112       0    3114    3115    3116    3117    3118    3119    3120    3121
    3122    3115    3116    3117    3118    3119    3120    3121    3122    3116
    3117    3118    3119    3120    3121    3122    3117    3118    3119    3120
    3121    3122    3118    3119    3119       0    3121    3122    3122       0
    3124    3125    3126    3127    3128    3129    3130    3131    3132    3125
    3126    3127    3128    3129    3130    3131    3132    3126    3127    3128
    3129    3130    3131    3132    3127    3128    3129    3130    3131    3132
    3128    3129    3129       0    3131    3132    3132       0    3134    3135
    3136    3137    3138    3139    3140    3141    3142    3135    3136    3137
    3138    3139    3140    3141    3142    3136    3137    3138    3139    3140
    3141    3142    3137    3138    3139    3140    3141    3142    3138    3139
    3139       0    3141    3142    3142       0    3144    3145    3146    3147
    3148    3149    3150    3151    3152    3145    3146    3147    3148    3149
    3150    3151    3152    3146    3147    3148    3149    3150    3151    3152
    3147    3148    3149    3150    3151    3152    3148    3149    3149       0
    3151    3152    3152       0    3154    3155    3156    3157    3158    3159
    3160    3161    3162    3155    3156    3157    3158    3159    3160    3161
    3162    3156    3157    3158    3159    3160    3161    3162    3157    3158
    3159    3160    3161    3162    3158    3159    3159       0    3161    3162
    3162       0    3164    3165    3166    3167    3168    3169    3170    3171
    3172    3165    3166    3167    3168    3169    3170    3171    3172    3166
    3167    3168    3169    3170    3171    3172    3167    3168    3169    3170
    3171    3172    3168    3169    3169       0    3171    3172    3172       0
    3174    3175    3176    3177    3178    3179    3180    3181    3182    3175
    3176    3177    3178    3179    3180    3181    3182    3176    3177    3178
    3179    3180    3181    3182    3177    3178    3179    3180    3181    3182
    3178    3179    3179       0    3181    3182    3182       0    3184    3185
    3186    3187    3188    3189    3190    3191    3192    3185    3186    3187
    3188    3189    3190    3191    3192    3186    3187    3188    3189    3190
    3191    3192    3187    3188    3189    3190    3191    3192    3188    3189
    3189       0    3191    3192    3192       0    3194    3195    3196    3197
    3198    3199    3200    3201    3202    3195    3196    3197    3198    3199
    3200    3201    3202    3196    3197    3198    3199    3200    3201    3202
    3197    3198    3199    3200    3201    3202    3198    3199    3199       0
    3201    3202    3202       0    3204    3205    3206    3207    3208    3209
    3210    3211    3212    3205    3206    3207    3208    3209    3210    3211
    3212    3206    3207    3208    3209    3210    3211    3212    3207    3208
    3209    3210    3211    3212    3208    3209    3209       0    3211    3212
    3212       0    3214    3215    3216    3217    3218    3219    3220    3221
    3222    3215    3216    3217    3218    3219    3220    3221    3222    3216
    3217    3218    3219    3220    3221    3222    3217    3218    3219    3220
    3221    3222    3218    3219    3219       0    3221    3222    3222       0
    3224    3225    3226    3227    3228    3229    3230    3231    3232    3225
    3226    3227    3228    3229    3230    3231    3232    3226    3227    3228
    3229    3230    3231    3232    3227    3228    3229    3230    3231    3232
    3228    3229    3229       0    3231    3232    3232       0    3234    3235
    3236    3237    3238    3239    3240    3241    3242    3235    3236    3237
    3238    3239    3240    3241    3242    3236    3237    3238    3239    3240
    3241    3242    3237    3238    3239    3240    3241    3242    3238    3239
    3239       0    3241    3242    3242       0    3244    3245    3246    3247
    3248    3249    3250    3251    3252    3245    3246    3247    3248    3249
    3250    3251    3252    3246    3247    3248    3249    3250    3251    3252
    3247    3248    3249    3250    3251    3252    3248    3249    3249       0
    3251    3252    3252       0    3254    3255    3256    3257    3258    3259
    3260    3261    3262    3255    3256    3257    3258    3259    3260    3261
    3262    3256    3257    3258    3259    3260    3261    3262    3257    3258
    3259    3260    3261    3262    3258    3259    3259       0    3261    3262
    3262       0    3264    3265    3266    3267    3268    3269    3270    3271
    3272    3265    3266    3267    3268    3269    3270    3271    3272    3266
    3267    3268    3269    3270    3271    3272    3267    3268    3269    3270
    3271    3272    3268    3269    3269       0    3271    3272    3272       0
    3274    3275    3276    3277    3278    3279    3280    3281    3282    3275
    3276    3277    3278    3279    3280    3281    3282    3276    3277    3278
    3279    3280    3281    3282    3277    3278    3279    3280    3281    3282
    3278    3279    3279       0    3281    3282    3282       0    3284    3285
    3286    3287    3288    3289    3290    3291    3292    3285    3286    3287
    3288    3289    3290    3291    3292    3286    3287    3288    3289    3290
    3291    3292    3287    3288    3289    3290    3291    3292    3288    3289
    3289       0    3291    3292    3292       0    3294    3295    3296    3297
    3298    3299    3300    3301    3302    3295    3296    3297    3298    3299
    3300    3301    3302    3296    3297    3298    3299    3300    3301    3302
    3297    3298    3299    3300    3301    3302    3298    3299    3299       0
    3301    3302    3302       0    3304    3305    3306    3307    3308    3309
    3310    3311    3312    3305    3306    3307    3308    3309    3310    3311
    3312    3306    3307    3308    3309    3310    3311    3312    3307    3308
    3309    3310    3311    3312    3308    3309    3309       0    3311    3312
    3312       0    3314    3315    3316    3317    3318    3319    3320    3321
    3322    3315    3316    3317    3318    3319    3320    3321    3322    3316
    3317    3318    3319    3320    3321    3322    3317    3318    3319    3320
    3321    3322    3318    3319    3319       0    3321    3322    3322       0
    3324    3325    3326    3327    3328    3329    3330    3331    3332    3325
    3326    3327    3328    3329    3330    3331    3332    3326    3327    3328
    3329    3330    3331    3332    3327    3328    3329    3330    3331    3332
    3328    3329    3329       0    3331    3332    3332       0    3334    3335
    3336    3337    3338    3339    3340    3341    3342    3335    3336    3337
    3338    3339    3340    3341    3342    3336    3337    3338    3339    3340
    3341    3342    3337    3338    3339    3340    3341    3342    3338    3339
    3339       0    3341    3342    3342       0    3344    3345    3346    3347
    3348    3349    3350    3351    3352    3345    3346    3347    3348    3349
    3350    3351    3352    3346    3347    3348    3349    3350    3351    3352
    3347    3348    3349    3350    3351    3352    3348    3349    3349       0
    3351    3352    3352       0    3354    3355    3356    3357    3358    3359
    3360    3361    3362    3355    3356    3357    3358    3359    3360    3361
    3362    3356    3357    3358    3359    3360    3361    3362    3357    3358
    3359    3360    3361    3362    3358    3359    3359       0    3361    3362
    3362       0    3364    3365    3366    3367    3368    3369    3370    3371
    3372    3365    3366    3367    3368    3369    3370    3371    3372    3366
    3367    3368    3369    3370    3371    3372    3367    3368    3369    3370
    3371    3372    3368    3369    3369       0    3371    3372    3372       0
    3374    3375    3376    3377    3378    3379    3380    3381    3382    3375
    3376    3377    3378    3379    3380    3381    3382    3376    3377    3378
    3379    3380    3381    3382    3377    3378    3379    3380    3381    3382
    3378    3379    3379       0    3381    3382    3382       0    3384    3385
    3386    3387    3388    3389    3390    3391    3392    3385    3386    3387
    3388    3389    3390    3391    3392    3386    3387    3388    3389    3390
    3391    3392    3387    3388    3389    3390    3391    3392    3388    3389
    3389       0    3391    3392    3392       0    3394    3395    3396    3397
    3398    3399    3400    3401    3402    3395    3396    3397    3398    3399
    3400    3401    3402    3396    3397    3398    3399    3400    3401    3402
    3397    3398    3399    3400    3401    3402    3398    3399    3399       0
    3401    3402    3402       0    3404    3405    3406    3407    3408    3409
    3410    3411    3412    3405    3406    3407    3408    3409    3410    3411
    3412    3406    3407    3408    3409    3410    3411    3412    3407    3408
    3409    3410    3411    3412    3408    3409    3409       0    3411    3412
    3412       0    3414    3415    3416    3417    3418    3419    3420    3421
    3422    3415    3416    3417    3418    3419    3420    3421    3422    3416
    3417    3418    3419    3420    3421    3422    3417    3418    3419    3420
    3421    3422    3418    3419    3419       0    3421    3422    3422       0
    3424    3425    3426    3427    3428    3429    3430    3431    3432    3425
    3426    3427    3428    3429    3430    3431    3432    3426    3427    3428
    3429    3430    3431    3432    3427    3428    3429    3430    3431    3432
    3428    3429    3429       0    3431    3432    3432       0    3434    3435
    3436    3437    3438    3439    3440    3441    3442    3435    3436    3437
    3438    3439    3440    3441    3442    3436    3437    3438    3439    3440
    3441    3442    3437    3438    3439    3440    3441    3442    3438    3439
    3439       0    3441    3442    3442       0
%FLAG HBOND_ACOEF                                                               
%FORMAT(5E16.8)                                                                 

%FLAG HBOND_BCOEF                                                               
%FORMAT(5E16.8)                                                                 

%FLAG HBCUT                                                                     
%FORMAT(5E16.8)                                                                 

%FLAG AMBER_ATOM_TYPE                                                           
%FORMAT(20a4)                                                                   
os  o   nh  nc  ca  ca  cd  ca  c3  c3  ca  ca  cd  ca  ca  ca  cc  c   c3  c3  
ca  ca  ca  ca  h1  h1  h1  h1  ha  ha  ha  ha  hc  hc  hc  hc  hc  hc  ha  ha  
ha  ha  o   c   c3  c3  hc  hc  hc  hc  hc  hc  o   c   c3  c3  hc  hc  hc  hc  
hc  hc  o   c   c3  c3  hc  hc  hc  hc  hc  hc  o   c   c3  c3  hc  hc  hc  hc  
hc  hc  o   c   c3  c3  hc  hc  hc  hc  hc  hc  o   c   c3  c3  hc  hc  hc  hc  
hc  hc  o   c   c3  c3  hc  hc  hc  hc  hc  hc  o   c   c3  c3  hc  hc  hc  hc  
hc  hc  o   c   c3  c3  hc  hc  hc  hc  hc  hc  o   c   c3  c3  hc  hc  hc  hc  
hc  hc  o   c   c3  c3  hc  hc  hc  hc  hc  hc  o   c   c3  c3  hc  hc  hc  hc  
hc  hc  o   c   c3  c3  hc  hc  hc  hc  hc  hc  o   c   c3  c3  hc  hc  hc  hc  
hc  hc  o   c   c3  c3  hc  hc  hc  hc  hc  hc  o   c   c3  c3  hc  hc  hc  hc  
hc  hc  o   c   c3  c3  hc  hc  hc  hc  hc  hc  o   c   c3  c3  hc  hc  hc  hc  
hc  hc  o   c   c3  c3  hc  hc  hc  hc  hc  hc  o   c   c3  c3  hc  hc  hc  hc  
hc  hc  o   c   c3  c3  hc  hc  hc  hc  hc  hc  o   c   c3  c3  hc  hc  hc  hc  
hc  hc  o   c   c3  c3  hc  hc  hc  hc  hc  hc  o   c   c3  c3  hc  hc  hc  hc  
hc  hc  o   c   c3  c3  hc  hc  hc  hc  hc  hc  o   c   c3  c3  hc  hc  hc  hc  
hc  hc  o   c   c3  c3  hc  hc  hc  hc  hc  hc  o   c   c3  c3  hc  hc  hc  hc  
hc  hc  o   c   c3  c3  hc  hc  hc  hc  hc  hc  o   c   c3  c3  hc  hc  hc  hc  
hc  hc  o   c   c3  c3  hc  hc  hc  hc  hc  hc  o   c   c3  c3  hc  hc  hc  hc  
hc  hc  o   c   c3  c3  hc  hc  hc  hc  hc  hc  o   c   c3  c3  hc  hc  hc  hc  
hc  hc  o   c   c3  c3  hc  hc  hc  hc  hc  hc  o   c   c3  c3  hc  hc  hc  hc  
hc  hc  o   c   c3  c3  hc  hc  hc  hc  hc  hc  o   c   c3  c3  hc  hc  hc  hc  
hc  hc  o   c   c3  c3  hc  hc  hc  hc  hc  hc  o   c   c3  c3  hc  hc  hc  hc  
hc  hc  o   c   c3  c3  hc  hc  hc  hc  hc  hc  o   c   c3  c3  hc  hc  hc  hc  
hc  hc  o   c   c3  c3  hc  hc  hc  hc  hc  hc  o   c   c3  c3  hc  hc  hc  hc  
hc  hc  o   c   c3  c3  hc  hc  hc  hc  hc  hc  o   c   c3  c3  hc  hc  hc  hc  
hc  hc  o   c   c3  c3  hc  hc  hc  hc  hc  hc  o   c   c3  c3  hc  hc  hc  hc  
hc  hc  o   c   c3  c3  hc  hc  hc  hc  hc  hc  o   c   c3  c3  hc  hc  hc  hc  
hc  hc  o   c   c3  c3  hc  hc  hc  hc  hc  hc  o   c   c3  c3  hc  hc  hc  hc  
hc  hc  o   c   c3  c3  hc  hc  hc  hc  hc  hc  o   c   c3  c3  hc  hc  hc  hc  
hc  hc  o   c   c3  c3  hc  hc  hc  hc  hc  hc  o   c   c3  c3  hc  hc  hc  hc  
hc  hc  o   c   c3  c3  hc  hc  hc  hc  hc  hc  o   c   c3  c3  hc  hc  hc  hc  
hc  hc  o   c   c3  c3  hc  hc  hc  hc  hc  hc  o   c   c3  c3  hc  hc  hc  hc  
hc  hc  o   c   c3  c3  hc  hc  hc  hc  hc  hc  o   c   c3  c3  hc  hc  hc  hc  
hc  hc  o   c   c3  c3  hc  hc  hc  hc  hc  hc  o   c   c3  c3  hc  hc  hc  hc  
hc  hc  o   c   c3  c3  hc  hc  hc  hc  hc  hc  o   c   c3  c3  hc  hc  hc  hc  
hc  hc  o   c   c3  c3  hc  hc  hc  hc  hc  hc  o   c   c3  c3  hc  hc  hc  hc  
hc  hc  o   c   c3  c3  hc  hc  hc  hc  hc  hc  o   c   c3  c3  hc  hc  hc  hc  
hc  hc  o   c   c3  c3  hc  hc  hc  hc  hc  hc  o   c   c3  c3  hc  hc  hc  hc  
hc  hc  o   c   c3  c3  hc  hc  hc  hc  hc  hc  o   c   c3  c3  hc  hc  hc  hc  
hc  hc  o   c   c3  c3  hc  hc  hc  hc  hc  hc  o   c   c3  c3  hc  hc  hc  hc  
hc  hc  o   c   c3  c3  hc  hc  hc  hc  hc  hc  o   c   c3  c3  hc  hc  hc  hc  
hc  hc  o   c   c3  c3  hc  hc  hc  hc  hc  hc  o   c   c3  c3  hc  hc  hc  hc  
hc  hc  o   c   c3  c3  hc  hc  hc  hc  hc  hc  o   c   c3  c3  hc  hc  hc  hc  
hc  hc  o   c   c3  c3  hc  hc  hc  hc  hc  hc  o   c   c3  c3  hc  hc  hc  hc  
hc  hc  o   c   c3  c3  hc  hc  hc  hc  hc  hc  o   c   c3  c3  hc  hc  hc  hc  
hc  hc  o   c   c3  c3  hc  hc  hc  hc  hc  hc  o   c   c3  c3  hc  hc  hc  hc  
hc  hc  o   c   c3  c3  hc  hc  hc  hc  hc  hc  o   c   c3  c3  hc  hc  hc  hc  
hc  hc  o   c   c3  c3  hc  hc  hc  hc  hc  hc  o   c   c3  c3  hc  hc  hc  hc  
hc  hc  o   c   c3  c3  hc  hc  hc  hc  hc  hc  o   c   c3  c3  hc  hc  hc  hc  
hc  hc  o   c   c3  c3  hc  hc  hc  hc  hc  hc  o   c   c3  c3  hc  hc  hc  hc  
hc  hc  o   c   c3  c3  hc  hc  hc  hc  hc  hc  o   c   c3  c3  hc  hc  hc  hc  
hc  hc  o   c   c3  c3  hc  hc  hc  hc  hc  hc  o   c   c3  c3  hc  hc  hc  hc  
hc  hc  o   c   c3  c3  hc  hc  hc  hc  hc  hc  o   c   c3  c3  hc  hc  hc  hc  
hc  hc  o   c   c3  c3  hc  hc  hc  hc  hc  hc  o   c   c3  c3  hc  hc  hc  hc  
hc  hc  o   c   c3  c3  hc  hc  hc  hc  hc  hc  o   c   c3  c3  hc  hc  hc  hc  
hc  hc  o   c   c3  c3  hc  hc  hc  hc  hc  hc  o   c   c3  c3  hc  hc  hc  hc  
hc  hc  o   c   c3  c3  hc  hc  hc  hc  hc  hc  o   c   c3  c3  hc  hc  hc  hc  
hc  hc  o   c   c3  c3  hc  hc  hc  hc  hc  hc  o   c   c3  c3  hc  hc  hc  hc  
hc  hc  o   c   c3  c3  hc  hc  hc  hc  hc  hc  o   c   c3  c3  hc  hc  hc  hc  
hc  hc  o   c   c3  c3  hc  hc  hc  hc  hc  hc  o   c   c3  c3  hc  hc  hc  hc  
hc  hc  o   c   c3  c3  hc  hc  hc  hc  hc  hc  o   c   c3  c3  hc  hc  hc  hc  
hc  hc  o   c   c3  c3  hc  hc  hc  hc  hc  hc  o   c   c3  c3  hc  hc  hc  hc  
hc  hc  o   c   c3  c3  hc  hc  hc  hc  hc  hc  o   c   c3  c3  hc  hc  hc  hc  
hc  hc  o   c   c3  c3  hc  hc  hc  hc  hc  hc  o   c   c3  c3  hc  hc  hc  hc  
hc  hc  o   c   c3  c3  hc  hc  hc  hc  hc  hc  o   c   c3  c3  hc  hc  hc  hc  
hc  hc  o   c   c3  c3  hc  hc  hc  hc  hc  hc  o   c   c3  c3  hc  hc  hc  hc  
hc  hc  o   c   c3  c3  hc  hc  hc  hc  hc  hc  o   c   c3  c3  hc  hc  hc  hc  
hc  hc  o   c   c3  c3  hc  hc  hc  hc  hc  hc  o   c   c3  c3  hc  hc  hc  hc  
hc  hc  o   c   c3  c3  hc  hc  hc  hc  hc  hc  o   c   c3  c3  hc  hc  hc  hc  
hc  hc  o   c   c3  c3  hc  hc  hc  hc  hc  hc  o   c   c3  c3  hc  hc  hc  hc  
hc  hc  o   c   c3  c3  hc  hc  hc  hc  hc  hc  o   c   c3  c3  hc  hc  hc  hc  
hc  hc  o   c   c3  c3  hc  hc  hc  hc  hc  hc  o   c   c3  c3  hc  hc  hc  hc  
hc  hc  o   c   c3  c3  hc  hc  hc  hc  hc  hc  o   c   c3  c3  hc  hc  hc  hc  
hc  hc  o   c   c3  c3  hc  hc  hc  hc  hc  hc  o   c   c3  c3  hc  hc  hc  hc  
hc  hc  o   c   c3  c3  hc  hc  hc  hc  hc  hc  o   c   c3  c3  hc  hc  hc  hc  
hc  hc  o   c   c3  c3  hc  hc  hc  hc  hc  hc  o   c   c3  c3  hc  hc  hc  hc  
hc  hc  o   c   c3  c3  hc  hc  hc  hc  hc  hc  o   c   c3  c3  hc  hc  hc  hc  
hc  hc  o   c   c3  c3  hc  hc  hc  hc  hc  hc  o   c   c3  c3  hc  hc  hc  hc  
hc  hc  o   c   c3  c3  hc  hc  hc  hc  hc  hc  o   c   c3  c3  hc  hc  hc  hc  
hc  hc  o   c   c3  c3  hc  hc  hc  hc  hc  hc  o   c   c3  c3  hc  hc  hc  hc  
hc  hc  o   c   c3  c3  hc  hc  hc  hc  hc  hc  o   c   c3  c3  hc  hc  hc  hc  
hc  hc  o   c   c3  c3  hc  hc  hc  hc  hc  hc  o   c   c3  c3  hc  hc  hc  hc  
hc  hc  o   c   c3  c3  hc  hc  hc  hc  hc  hc  o   c   c3  c3  hc  hc  hc  hc  
hc  hc  o   c   c3  c3  hc  hc  hc  hc  hc  hc  o   c   c3  c3  hc  hc  hc  hc  
hc  hc  o   c   c3  c3  hc  hc  hc  hc  hc  hc  o   c   c3  c3  hc  hc  hc  hc  
hc  hc  o   c   c3  c3  hc  hc  hc  hc  hc  hc  o   c   c3  c3  hc  hc  hc  hc  
hc  hc  o   c   c3  c3  hc  hc  hc  hc  hc  hc  o   c   c3  c3  hc  hc  hc  hc  
hc  hc  o   c   c3  c3  hc  hc  hc  hc  hc  hc  o   c   c3  c3  hc  hc  hc  hc  
hc  hc  o   c   c3  c3  hc  hc  hc  hc  hc  hc  o   c   c3  c3  hc  hc  hc  hc  
hc  hc  o   c   c3  c3  hc  hc  hc  hc  hc  hc  o   c   c3  c3  hc  hc  hc  hc  
hc  hc  o   c   c3  c3  hc  hc  hc  hc  hc  hc  o   c   c3  c3  hc  hc  hc  hc  
hc  hc  o   c   c3  c3  hc  hc  hc  hc  hc  hc  o   c   c3  c3  hc  hc  hc  hc  
hc  hc  o   c   c3  c3  hc  hc  hc  hc  hc  hc  o   c   c3  c3  hc  hc  hc  hc  
hc  hc  o   c   c3  c3  hc  hc  hc  hc  hc  hc  o   c   c3  c3  hc  hc  hc  hc  
hc  hc  o   c   c3  c3  hc  hc  hc  hc  hc  hc  o   c   c3  c3  hc  hc  hc  hc  
hc  hc  o   c   c3  c3  hc  hc  hc  hc  hc  hc  o   c   c3  c3  hc  hc  hc  hc  
hc  hc  o   c   c3  c3  hc  hc  hc  hc  hc  hc  o   c   c3  c3  hc  hc  hc  hc  
hc  hc  o   c   c3  c3  hc  hc  hc  hc  hc  hc  o   c   c3  c3  hc  hc  hc  hc  
hc  hc  o   c   c3  c3  hc  hc  hc  hc  hc  hc  o   c   c3  c3  hc  hc  hc  hc  
hc  hc  o   c   c3  c3  hc  hc  hc  hc  hc  hc  o   c   c3  c3  hc  hc  hc  hc  
hc  hc  o   c   c3  c3  hc  hc  hc  hc  hc  hc  o   c   c3  c3  hc  hc  hc  hc  
hc  hc  o   c   c3  c3  hc  hc  hc  hc  hc  hc  o   c   c3  c3  hc  hc  hc  hc  
hc  hc  o   c   c3  c3  hc  hc  hc  hc  hc  hc  o   c   c3  c3  hc  hc  hc  hc  
hc  hc  o   c   c3  c3  hc  hc  hc  hc  hc  hc  o   c   c3  c3  hc  hc  hc  hc  
hc  hc  o   c   c3  c3  hc  hc  hc  hc  hc  hc  o   c   c3  c3  hc  hc  hc  hc  
hc  hc  o   c   c3  c3  hc  hc  hc  hc  hc  hc  o   c   c3  c3  hc  hc  hc  hc  
hc  hc  o   c   c3  c3  hc  hc  hc  hc  hc  hc  o   c   c3  c3  hc  hc  hc  hc  
hc  hc  o   c   c3  c3  hc  hc  hc  hc  hc  hc  o   c   c3  c3  hc  hc  hc  hc  
hc  hc  o   c   c3  c3  hc  hc  hc  hc  hc  hc  o   c   c3  c3  hc  hc  hc  hc  
hc  hc  o   c   c3  c3  hc  hc  hc  hc  hc  hc  o   c   c3  c3  hc  hc  hc  hc  
hc  hc  o   c   c3  c3  hc  hc  hc  hc  hc  hc  o   c   c3  c3  hc  hc  hc  hc  
hc  hc  o   c   c3  c3  hc  hc  hc  hc  hc  hc  o   c   c3  c3  hc  hc  hc  hc  
hc  hc  o   c   c3  c3  hc  hc  hc  hc  hc  hc  o   c   c3  c3  hc  hc  hc  hc  
hc  hc  o   c   c3  c3  hc  hc  hc  hc  hc  hc  o   c   c3  c3  hc  hc  hc  hc  
hc  hc  o   c   c3  c3  hc  hc  hc  hc  hc  hc  o   c   c3  c3  hc  hc  hc  hc  
hc  hc  o   c   c3  c3  hc  hc  hc  hc  hc  hc  o   c   c3  c3  hc  hc  hc  hc  
hc  hc  o   c   c3  c3  hc  hc  hc  hc  hc  hc  o   c   c3  c3  hc  hc  hc  hc  
hc  hc  o   c   c3  c3  hc  hc  hc  hc  hc  hc  o   c   c3  c3  hc  hc  hc  hc  
hc  hc  o   c   c3  c3  hc  hc  hc  hc  hc  hc  o   c   c3  c3  hc  hc  hc  hc  
hc  hc  o   c   c3  c3  hc  hc  hc  hc  hc  hc  o   c   c3  c3  hc  hc  hc  hc  
hc  hc  o   c   c3  c3  hc  hc  hc  hc  hc  hc  o   c   c3  c3  hc  hc  hc  hc  
hc  hc  o   c   c3  c3  hc  hc  hc  hc  hc  hc  o   c   c3  c3  hc  hc  hc  hc  
hc  hc  o   c   c3  c3  hc  hc  hc  hc  hc  hc  o   c   c3  c3  hc  hc  hc  hc  
hc  hc  o   c   c3  c3  hc  hc  hc  hc  hc  hc  o   c   c3  c3  hc  hc  hc  hc  
hc  hc  o   c   c3  c3  hc  hc  hc  hc  hc  hc  o   c   c3  c3  hc  hc  hc  hc  
hc  hc  o   c   c3  c3  hc  hc  hc  hc  hc  hc  o   c   c3  c3  hc  hc  hc  hc  
hc  hc  o   c   c3  c3  hc  hc  hc  hc  hc  hc  o   c   c3  c3  hc  hc  hc  hc  
hc  hc  o   c   c3  c3  hc  hc  hc  hc  hc  hc  o   c   c3  c3  hc  hc  hc  hc  
hc  hc  o   c   c3  c3  hc  hc  hc  hc  hc  hc  o   c   c3  c3  hc  hc  hc  hc  
hc  hc  o   c   c3  c3  hc  hc  hc  hc  hc  hc  o   c   c3  c3  hc  hc  hc  hc  
hc  hc  o   c   c3  c3  hc  hc  hc  hc  hc  hc  o   c   c3  c3  hc  hc  hc  hc  
hc  hc  o   c   c3  c3  hc  hc  hc  hc  hc  hc  o   c   c3  c3  hc  hc  hc  hc  
hc  hc  o   c   c3  c3  hc  hc  hc  hc  hc  hc  o   c   c3  c3  hc  hc  hc  hc  
hc  hc  o   c   c3  c3  hc  hc  hc  hc  hc  hc  o   c   c3  c3  hc  hc  hc  hc  
hc  hc  o   c   c3  c3  hc  hc  hc  hc  hc  hc  o   c   c3  c3  hc  hc  hc  hc  
hc  hc  o   c   c3  c3  hc  hc  hc  hc  hc  hc  o   c   c3  c3  hc  hc  hc  hc  
hc  hc  o   c   c3  c3  hc  hc  hc  hc  hc  hc  o   c   c3  c3  hc  hc  hc  hc  
hc  hc  o   c   c3  c3  hc  hc  hc  hc  hc  hc  o   c   c3  c3  hc  hc  hc  hc  
hc  hc  o   c   c3  c3  hc  hc  hc  hc  hc  hc  o   c   c3  c3  hc  hc  hc  hc  
hc  hc  o   c   c3  c3  hc  hc  hc  hc  hc  hc  o   c   c3  c3  hc  hc  hc  hc  
hc  hc  o   c   c3  c3  hc  hc  hc  hc  hc  hc  o   c   c3  c3  hc  hc  hc  hc  
hc  hc  o   c   c3  c3  hc  hc  hc  hc  hc  hc  o   c   c3  c3  hc  hc  hc  hc  
hc  hc  o   c   c3  c3  hc  hc  hc  hc  hc  hc  o   c   c3  c3  hc  hc  hc  hc  
hc  hc  o   c   c3  c3  hc  hc  hc  hc  hc  hc  o   c   c3  c3  hc  hc  hc  hc  
hc  hc  o   c   c3  c3  hc  hc  hc  hc  hc  hc  o   c   c3  c3  hc  hc  hc  hc  
hc  hc  o   c   c3  c3  hc  hc  hc  hc  hc  hc  o   c   c3  c3  hc  hc  hc  hc  
hc  hc  o   c   c3  c3  hc  hc  hc  hc  hc  hc  o   c   c3  c3  hc  hc  hc  hc  
hc  hc  o   c   c3  c3  hc  hc  hc  hc  hc  hc  o   c   c3  c3  hc  hc  hc  hc  
hc  hc  o   c   c3  c3  hc  hc  hc  hc  hc  hc  o   c   c3  c3  hc  hc  hc  hc  
hc  hc  o   c   c3  c3  hc  hc  hc  hc  hc  hc  o   c   c3  c3  hc  hc  hc  hc  
hc  hc  o   c   c3  c3  hc  hc  hc  hc  hc  hc  o   c   c3  c3  hc  hc  hc  hc  
hc  hc  o   c   c3  c3  hc  hc  hc  hc  hc  hc  o   c   c3  c3  hc  hc  hc  hc  
hc  hc  o   c   c3  c3  hc  hc  hc  hc  hc  hc  o   c   c3  c3  hc  hc  hc  hc  
hc  hc  o   c   c3  c3  hc  hc  hc  hc  hc  hc  o   c   c3  c3  hc  hc  hc  hc  
hc  hc  o   c   c3  c3  hc  hc  hc  hc  hc  hc  o   c   c3  c3  hc  hc  hc  hc  
hc  hc  o   c   c3  c3  hc  hc  hc  hc  hc  hc  o   c   c3  c3  hc  hc  hc  hc  
hc  hc  o   c   c3  c3  hc  hc  hc  hc  hc  hc  o   c   c3  c3  hc  hc  hc  hc  
hc  hc  o   c   c3  c3  hc  hc  hc  hc  hc  hc  o   c   c3  c3  hc  hc  hc  hc  
hc  hc  o   c   c3  c3  hc  hc  hc  hc  hc  hc  o   c   c3  c3  hc  hc  hc  hc  
hc  hc  o   c   c3  c3  hc  hc  hc  hc  hc  hc  o   c   c3  c3  hc  hc  hc  hc  
hc  hc  o   c   c3  c3  hc  hc  hc  hc  hc  hc  o   c   c3  c3  hc  hc  hc  hc  
hc  hc  o   c   c3  c3  hc  hc  hc  hc  hc  hc  o   c   c3  c3  hc  hc  hc  hc  
hc  hc  o   c   c3  c3  hc  hc  hc  hc  hc  hc  o   c   c3  c3  hc  hc  hc  hc  
hc  hc  o   c   c3  c3  hc  hc  hc  hc  hc  hc  o   c   c3  c3  hc  hc  hc  hc  
hc  hc  o   c   c3  c3  hc  hc  hc  hc  hc  hc  o   c   c3  c3  hc  hc  hc  hc  
hc  hc  o   c   c3  c3  hc  hc  hc  hc  hc  hc  o   c   c3  c3  hc  hc  hc  hc  
hc  hc  o   c   c3  c3  hc  hc  hc  hc  hc  hc  o   c   c3  c3  hc  hc  hc  hc  
hc  hc  o   c   c3  c3  hc  hc  hc  hc  hc  hc  o   c   c3  c3  hc  hc  hc  hc  
hc  hc  o   c   c3  c3  hc  hc  hc  hc  hc  hc  o   c   c3  c3  hc  hc  hc  hc  
hc  hc  o   c   c3  c3  hc  hc  hc  hc  hc  hc  o   c   c3  c3  hc  hc  hc  hc  
hc  hc  o   c   c3  c3  hc  hc  hc  hc  hc  hc  o   c   c3  c3  hc  hc  hc  hc  
hc  hc  o   c   c3  c3  hc  hc  hc  hc  hc  hc  o   c   c3  c3  hc  hc  hc  hc  
hc  hc  
%FLAG TREE_CHAIN_CLASSIFICATION                                                 
%FORMAT(20a4)                                                                   
BLA BLA BLA BLA BLA BLA BLA BLA BLA BLA BLA BLA BLA BLA BLA BLA BLA BLA BLA BLA 
BLA BLA BLA BLA BLA BLA BLA BLA BLA BLA BLA BLA BLA BLA BLA BLA BLA BLA BLA BLA 
BLA BLA BLA BLA BLA BLA BLA BLA BLA BLA BLA BLA BLA BLA BLA BLA BLA BLA BLA BLA 
BLA BLA BLA BLA BLA BLA BLA BLA BLA BLA BLA BLA BLA BLA BLA BLA BLA BLA BLA BLA 
BLA BLA BLA BLA BLA BLA BLA BLA BLA BLA BLA BLA BLA BLA BLA BLA BLA BLA BLA BLA 
BLA BLA BLA BLA BLA BLA BLA BLA BLA BLA BLA BLA BLA BLA BLA BLA BLA BLA BLA BLA 
BLA BLA BLA BLA BLA BLA BLA BLA BLA BLA BLA BLA BLA BLA BLA BLA BLA BLA BLA BLA 
BLA BLA BLA BLA BLA BLA BLA BLA BLA BLA BLA BLA BLA BLA BLA BLA BLA BLA BLA BLA 
BLA BLA BLA BLA BLA BLA BLA BLA BLA BLA BLA BLA BLA BLA BLA BLA BLA BLA BLA BLA 
BLA BLA BLA BLA BLA BLA BLA BLA BLA BLA BLA BLA BLA BLA BLA BLA BLA BLA BLA BLA 
BLA BLA BLA BLA BLA BLA BLA BLA BLA BLA BLA BLA BLA BLA BLA BLA BLA BLA BLA BLA 
BLA BLA BLA BLA BLA BLA BLA BLA BLA BLA BLA BLA BLA BLA BLA BLA BLA BLA BLA BLA 
BLA BLA BLA BLA BLA BLA BLA BLA BLA BLA BLA BLA BLA BLA BLA BLA BLA BLA BLA BLA 
BLA BLA BLA BLA BLA BLA BLA BLA BLA BLA BLA BLA BLA BLA BLA BLA BLA BLA BLA BLA 
BLA BLA BLA BLA BLA BLA BLA BLA BLA BLA BLA BLA BLA BLA BLA BLA BLA BLA BLA BLA 
BLA BLA BLA BLA BLA BLA BLA BLA BLA BLA BLA BLA BLA BLA BLA BLA BLA BLA BLA BLA 
BLA BLA BLA BLA BLA BLA BLA BLA BLA BLA BLA BLA BLA BLA BLA BLA BLA BLA BLA BLA 
BLA BLA BLA BLA BLA BLA BLA BLA BLA BLA BLA BLA BLA BLA BLA BLA BLA BLA BLA BLA 
BLA BLA BLA BLA BLA BLA BLA BLA BLA BLA BLA BLA BLA BLA BLA BLA BLA BLA BLA BLA 
BLA BLA BLA BLA BLA BLA BLA BLA BLA BLA BLA BLA BLA BLA BLA BLA BLA BLA BLA BLA 
BLA BLA BLA BLA BLA BLA BLA BLA BLA BLA BLA BLA BLA BLA BLA BLA BLA BLA BLA BLA 
BLA BLA BLA BLA BLA BLA BLA BLA BLA BLA BLA BLA BLA BLA BLA BLA BLA BLA BLA BLA 
BLA BLA BLA BLA BLA BLA BLA BLA BLA BLA BLA BLA BLA BLA BLA BLA BLA BLA BLA BLA 
BLA BLA BLA BLA BLA BLA BLA BLA BLA BLA BLA BLA BLA BLA BLA BLA BLA BLA BLA BLA 
BLA BLA BLA BLA BLA BLA BLA BLA BLA BLA BLA BLA BLA BLA BLA BLA BLA BLA BLA BLA 
BLA BLA BLA BLA BLA BLA BLA BLA BLA BLA BLA BLA BLA BLA BLA BLA BLA BLA BLA BLA 
BLA BLA BLA BLA BLA BLA BLA BLA BLA BLA BLA BLA BLA BLA BLA BLA BLA BLA BLA BLA 
BLA BLA BLA BLA BLA BLA BLA BLA BLA BLA BLA BLA BLA BLA BLA BLA BLA BLA BLA BLA 
BLA BLA BLA BLA BLA BLA BLA BLA BLA BLA BLA BLA BLA BLA BLA BLA BLA BLA BLA BLA 
BLA BLA BLA BLA BLA BLA BLA BLA BLA BLA BLA BLA BLA BLA BLA BLA BLA BLA BLA BLA 
BLA BLA BLA BLA BLA BLA BLA BLA BLA BLA BLA BLA BLA BLA BLA BLA BLA BLA BLA BLA 
BLA BLA BLA BLA BLA BLA BLA BLA BLA BLA BLA BLA BLA BLA BLA BLA BLA BLA BLA BLA 
BLA BLA BLA BLA BLA BLA BLA BLA BLA BLA BLA BLA BLA BLA BLA BLA BLA BLA BLA BLA 
BLA BLA BLA BLA BLA BLA BLA BLA BLA BLA BLA BLA BLA BLA BLA BLA BLA BLA BLA BLA 
BLA BLA BLA BLA BLA BLA BLA BLA BLA BLA BLA BLA BLA BLA BLA BLA BLA BLA BLA BLA 
BLA BLA BLA BLA BLA BLA BLA BLA BLA BLA BLA BLA BLA BLA BLA BLA BLA BLA BLA BLA 
BLA BLA BLA BLA BLA BLA BLA BLA BLA BLA BLA BLA BLA BLA BLA BLA BLA BLA BLA BLA 
BLA BLA BLA BLA BLA BLA BLA BLA BLA BLA BLA BLA BLA BLA BLA BLA BLA BLA BLA BLA 
BLA BLA BLA BLA BLA BLA BLA BLA BLA BLA BLA BLA BLA BLA BLA BLA BLA BLA BLA BLA 
BLA BLA BLA BLA BLA BLA BLA BLA BLA BLA BLA BLA BLA BLA BLA BLA BLA BLA BLA BLA 
BLA BLA BLA BLA BLA BLA BLA BLA BLA BLA BLA BLA BLA BLA BLA BLA BLA BLA BLA BLA 
BLA BLA BLA BLA BLA BLA BLA BLA BLA BLA BLA BLA BLA BLA BLA BLA BLA BLA BLA BLA 
BLA BLA BLA BLA BLA BLA BLA BLA BLA BLA BLA BLA BLA BLA BLA BLA BLA BLA BLA BLA 
BLA BLA BLA BLA BLA BLA BLA BLA BLA BLA BLA BLA BLA BLA BLA BLA BLA BLA BLA BLA 
BLA BLA BLA BLA BLA BLA BLA BLA BLA BLA BLA BLA BLA BLA BLA BLA BLA BLA BLA BLA 
BLA BLA BLA BLA BLA BLA BLA BLA BLA BLA BLA BLA BLA BLA BLA BLA BLA BLA BLA BLA 
BLA BLA BLA BLA BLA BLA BLA BLA BLA BLA BLA BLA BLA BLA BLA BLA BLA BLA BLA BLA 
BLA BLA BLA BLA BLA BLA BLA BLA BLA BLA BLA BLA BLA BLA BLA BLA BLA BLA BLA BLA 
BLA BLA BLA BLA BLA BLA BLA BLA BLA BLA BLA BLA BLA BLA BLA BLA BLA BLA BLA BLA 
BLA BLA BLA BLA BLA BLA BLA BLA BLA BLA BLA BLA BLA BLA BLA BLA BLA BLA BLA BLA 
BLA BLA BLA BLA BLA BLA BLA BLA BLA BLA BLA BLA BLA BLA BLA BLA BLA BLA BLA BLA 
BLA BLA BLA BLA BLA BLA BLA BLA BLA BLA BLA BLA BLA BLA BLA BLA BLA BLA BLA BLA 
BLA BLA BLA BLA BLA BLA BLA BLA BLA BLA BLA BLA BLA BLA BLA BLA BLA BLA BLA BLA 
BLA BLA BLA BLA BLA BLA BLA BLA BLA BLA BLA BLA BLA BLA BLA BLA BLA BLA BLA BLA 
BLA BLA BLA BLA BLA BLA BLA BLA BLA BLA BLA BLA BLA BLA BLA BLA BLA BLA BLA BLA 
BLA BLA BLA BLA BLA BLA BLA BLA BLA BLA BLA BLA BLA BLA BLA BLA BLA BLA BLA BLA 
BLA BLA BLA BLA BLA BLA BLA BLA BLA BLA BLA BLA BLA BLA BLA BLA BLA BLA BLA BLA 
BLA BLA BLA BLA BLA BLA BLA BLA BLA BLA BLA BLA BLA BLA BLA BLA BLA BLA BLA BLA 
BLA BLA BLA BLA BLA BLA BLA BLA BLA BLA BLA BLA BLA BLA BLA BLA BLA BLA BLA BLA 
BLA BLA BLA BLA BLA BLA BLA BLA BLA BLA BLA BLA BLA BLA BLA BLA BLA BLA BLA BLA 
BLA BLA BLA BLA BLA BLA BLA BLA BLA BLA BLA BLA BLA BLA BLA BLA BLA BLA BLA BLA 
BLA BLA BLA BLA BLA BLA BLA BLA BLA BLA BLA BLA BLA BLA BLA BLA BLA BLA BLA BLA 
BLA BLA BLA BLA BLA BLA BLA BLA BLA BLA BLA BLA BLA BLA BLA BLA BLA BLA BLA BLA 
BLA BLA BLA BLA BLA BLA BLA BLA BLA BLA BLA BLA BLA BLA BLA BLA BLA BLA BLA BLA 
BLA BLA BLA BLA BLA BLA BLA BLA BLA BLA BLA BLA BLA BLA BLA BLA BLA BLA BLA BLA 
BLA BLA BLA BLA BLA BLA BLA BLA BLA BLA BLA BLA BLA BLA BLA BLA BLA BLA BLA BLA 
BLA BLA BLA BLA BLA BLA BLA BLA BLA BLA BLA BLA BLA BLA BLA BLA BLA BLA BLA BLA 
BLA BLA BLA BLA BLA BLA BLA BLA BLA BLA BLA BLA BLA BLA BLA BLA BLA BLA BLA BLA 
BLA BLA BLA BLA BLA BLA BLA BLA BLA BLA BLA BLA BLA BLA BLA BLA BLA BLA BLA BLA 
BLA BLA BLA BLA BLA BLA BLA BLA BLA BLA BLA BLA BLA BLA BLA BLA BLA BLA BLA BLA 
BLA BLA BLA BLA BLA BLA BLA BLA BLA BLA BLA BLA BLA BLA BLA BLA BLA BLA BLA BLA 
BLA BLA BLA BLA BLA BLA BLA BLA BLA BLA BLA BLA BLA BLA BLA BLA BLA BLA BLA BLA 
BLA BLA BLA BLA BLA BLA BLA BLA BLA BLA BLA BLA BLA BLA BLA BLA BLA BLA BLA BLA 
BLA BLA BLA BLA BLA BLA BLA BLA BLA BLA BLA BLA BLA BLA BLA BLA BLA BLA BLA BLA 
BLA BLA BLA BLA BLA BLA BLA BLA BLA BLA BLA BLA BLA BLA BLA BLA BLA BLA BLA BLA 
BLA BLA BLA BLA BLA BLA BLA BLA BLA BLA BLA BLA BLA BLA BLA BLA BLA BLA BLA BLA 
BLA BLA BLA BLA BLA BLA BLA BLA BLA BLA BLA BLA BLA BLA BLA BLA BLA BLA BLA BLA 
BLA BLA BLA BLA BLA BLA BLA BLA BLA BLA BLA BLA BLA BLA BLA BLA BLA BLA BLA BLA 
BLA BLA BLA BLA BLA BLA BLA BLA BLA BLA BLA BLA BLA BLA BLA BLA BLA BLA BLA BLA 
BLA BLA BLA BLA BLA BLA BLA BLA BLA BLA BLA BLA BLA BLA BLA BLA BLA BLA BLA BLA 
BLA BLA BLA BLA BLA BLA BLA BLA BLA BLA BLA BLA BLA BLA BLA BLA BLA BLA BLA BLA 
BLA BLA BLA BLA BLA BLA BLA BLA BLA BLA BLA BLA BLA BLA BLA BLA BLA BLA BLA BLA 
BLA BLA BLA BLA BLA BLA BLA BLA BLA BLA BLA BLA BLA BLA BLA BLA BLA BLA BLA BLA 
BLA BLA BLA BLA BLA BLA BLA BLA BLA BLA BLA BLA BLA BLA BLA BLA BLA BLA BLA BLA 
BLA BLA BLA BLA BLA BLA BLA BLA BLA BLA BLA BLA BLA BLA BLA BLA BLA BLA BLA BLA 
BLA BLA BLA BLA BLA BLA BLA BLA BLA BLA BLA BLA BLA BLA BLA BLA BLA BLA BLA BLA 
BLA BLA BLA BLA BLA BLA BLA BLA BLA BLA BLA BLA BLA BLA BLA BLA BLA BLA BLA BLA 
BLA BLA BLA BLA BLA BLA BLA BLA BLA BLA BLA BLA BLA BLA BLA BLA BLA BLA BLA BLA 
BLA BLA BLA BLA BLA BLA BLA BLA BLA BLA BLA BLA BLA BLA BLA BLA BLA BLA BLA BLA 
BLA BLA BLA BLA BLA BLA BLA BLA BLA BLA BLA BLA BLA BLA BLA BLA BLA BLA BLA BLA 
BLA BLA BLA BLA BLA BLA BLA BLA BLA BLA BLA BLA BLA BLA BLA BLA BLA BLA BLA BLA 
BLA BLA BLA BLA BLA BLA BLA BLA BLA BLA BLA BLA BLA BLA BLA BLA BLA BLA BLA BLA 
BLA BLA BLA BLA BLA BLA BLA BLA BLA BLA BLA BLA BLA BLA BLA BLA BLA BLA BLA BLA 
BLA BLA BLA BLA BLA BLA BLA BLA BLA BLA BLA BLA BLA BLA BLA BLA BLA BLA BLA BLA 
BLA BLA BLA BLA BLA BLA BLA BLA BLA BLA BLA BLA BLA BLA BLA BLA BLA BLA BLA BLA 
BLA BLA BLA BLA BLA BLA BLA BLA BLA BLA BLA BLA BLA BLA BLA BLA BLA BLA BLA BLA 
BLA BLA BLA BLA BLA BLA BLA BLA BLA BLA BLA BLA BLA BLA BLA BLA BLA BLA BLA BLA 
BLA BLA BLA BLA BLA BLA BLA BLA BLA BLA BLA BLA BLA BLA BLA BLA BLA BLA BLA BLA 
BLA BLA BLA BLA BLA BLA BLA BLA BLA BLA BLA BLA BLA BLA BLA BLA BLA BLA BLA BLA 
BLA BLA BLA BLA BLA BLA BLA BLA BLA BLA BLA BLA BLA BLA BLA BLA BLA BLA BLA BLA 
BLA BLA BLA BLA BLA BLA BLA BLA BLA BLA BLA BLA BLA BLA BLA BLA BLA BLA BLA BLA 
BLA BLA BLA BLA BLA BLA BLA BLA BLA BLA BLA BLA BLA BLA BLA BLA BLA BLA BLA BLA 
BLA BLA BLA BLA BLA BLA BLA BLA BLA BLA BLA BLA BLA BLA BLA BLA BLA BLA BLA BLA 
BLA BLA BLA BLA BLA BLA BLA BLA BLA BLA BLA BLA BLA BLA BLA BLA BLA BLA BLA BLA 
BLA BLA BLA BLA BLA BLA BLA BLA BLA BLA BLA BLA BLA BLA BLA BLA BLA BLA BLA BLA 
BLA BLA BLA BLA BLA BLA BLA BLA BLA BLA BLA BLA BLA BLA BLA BLA BLA BLA BLA BLA 
BLA BLA BLA BLA BLA BLA BLA BLA BLA BLA BLA BLA BLA BLA BLA BLA BLA BLA BLA BLA 
BLA BLA BLA BLA BLA BLA BLA BLA BLA BLA BLA BLA BLA BLA BLA BLA BLA BLA BLA BLA 
BLA BLA BLA BLA BLA BLA BLA BLA BLA BLA BLA BLA BLA BLA BLA BLA BLA BLA BLA BLA 
BLA BLA BLA BLA BLA BLA BLA BLA BLA BLA BLA BLA BLA BLA BLA BLA BLA BLA BLA BLA 
BLA BLA BLA BLA BLA BLA BLA BLA BLA BLA BLA BLA BLA BLA BLA BLA BLA BLA BLA BLA 
BLA BLA BLA BLA BLA BLA BLA BLA BLA BLA BLA BLA BLA BLA BLA BLA BLA BLA BLA BLA 
BLA BLA BLA BLA BLA BLA BLA BLA BLA BLA BLA BLA BLA BLA BLA BLA BLA BLA BLA BLA 
BLA BLA BLA BLA BLA BLA BLA BLA BLA BLA BLA BLA BLA BLA BLA BLA BLA BLA BLA BLA 
BLA BLA BLA BLA BLA BLA BLA BLA BLA BLA BLA BLA BLA BLA BLA BLA BLA BLA BLA BLA 
BLA BLA BLA BLA BLA BLA BLA BLA BLA BLA BLA BLA BLA BLA BLA BLA BLA BLA BLA BLA 
BLA BLA BLA BLA BLA BLA BLA BLA BLA BLA BLA BLA BLA BLA BLA BLA BLA BLA BLA BLA 
BLA BLA BLA BLA BLA BLA BLA BLA BLA BLA BLA BLA BLA BLA BLA BLA BLA BLA BLA BLA 
BLA BLA BLA BLA BLA BLA BLA BLA BLA BLA BLA BLA BLA BLA BLA BLA BLA BLA BLA BLA 
BLA BLA BLA BLA BLA BLA BLA BLA BLA BLA BLA BLA BLA BLA BLA BLA BLA BLA BLA BLA 
BLA BLA BLA BLA BLA BLA BLA BLA BLA BLA BLA BLA BLA BLA BLA BLA BLA BLA BLA BLA 
BLA BLA BLA BLA BLA BLA BLA BLA BLA BLA BLA BLA BLA BLA BLA BLA BLA BLA BLA BLA 
BLA BLA BLA BLA BLA BLA BLA BLA BLA BLA BLA BLA BLA BLA BLA BLA BLA BLA BLA BLA 
BLA BLA BLA BLA BLA BLA BLA BLA BLA BLA BLA BLA BLA BLA BLA BLA BLA BLA BLA BLA 
BLA BLA BLA BLA BLA BLA BLA BLA BLA BLA BLA BLA BLA BLA BLA BLA BLA BLA BLA BLA 
BLA BLA BLA BLA BLA BLA BLA BLA BLA BLA BLA BLA BLA BLA BLA BLA BLA BLA BLA BLA 
BLA BLA BLA BLA BLA BLA BLA BLA BLA BLA BLA BLA BLA BLA BLA BLA BLA BLA BLA BLA 
BLA BLA BLA BLA BLA BLA BLA BLA BLA BLA BLA BLA BLA BLA BLA BLA BLA BLA BLA BLA 
BLA BLA BLA BLA BLA BLA BLA BLA BLA BLA BLA BLA BLA BLA BLA BLA BLA BLA BLA BLA 
BLA BLA BLA BLA BLA BLA BLA BLA BLA BLA BLA BLA BLA BLA BLA BLA BLA BLA BLA BLA 
BLA BLA BLA BLA BLA BLA BLA BLA BLA BLA BLA BLA BLA BLA BLA BLA BLA BLA BLA BLA 
BLA BLA BLA BLA BLA BLA BLA BLA BLA BLA BLA BLA BLA BLA BLA BLA BLA BLA BLA BLA 
BLA BLA BLA BLA BLA BLA BLA BLA BLA BLA BLA BLA BLA BLA BLA BLA BLA BLA BLA BLA 
BLA BLA BLA BLA BLA BLA BLA BLA BLA BLA BLA BLA BLA BLA BLA BLA BLA BLA BLA BLA 
BLA BLA BLA BLA BLA BLA BLA BLA BLA BLA BLA BLA BLA BLA BLA BLA BLA BLA BLA BLA 
BLA BLA BLA BLA BLA BLA BLA BLA BLA BLA BLA BLA BLA BLA BLA BLA BLA BLA BLA BLA 
BLA BLA BLA BLA BLA BLA BLA BLA BLA BLA BLA BLA BLA BLA BLA BLA BLA BLA BLA BLA 
BLA BLA BLA BLA BLA BLA BLA BLA BLA BLA BLA BLA BLA BLA BLA BLA BLA BLA BLA BLA 
BLA BLA BLA BLA BLA BLA BLA BLA BLA BLA BLA BLA BLA BLA BLA BLA BLA BLA BLA BLA 
BLA BLA BLA BLA BLA BLA BLA BLA BLA BLA BLA BLA BLA BLA BLA BLA BLA BLA BLA BLA 
BLA BLA BLA BLA BLA BLA BLA BLA BLA BLA BLA BLA BLA BLA BLA BLA BLA BLA BLA BLA 
BLA BLA BLA BLA BLA BLA BLA BLA BLA BLA BLA BLA BLA BLA BLA BLA BLA BLA BLA BLA 
BLA BLA BLA BLA BLA BLA BLA BLA BLA BLA BLA BLA BLA BLA BLA BLA BLA BLA BLA BLA 
BLA BLA BLA BLA BLA BLA BLA BLA BLA BLA BLA BLA BLA BLA BLA BLA BLA BLA BLA BLA 
BLA BLA BLA BLA BLA BLA BLA BLA BLA BLA BLA BLA BLA BLA BLA BLA BLA BLA BLA BLA 
BLA BLA BLA BLA BLA BLA BLA BLA BLA BLA BLA BLA BLA BLA BLA BLA BLA BLA BLA BLA 
BLA BLA BLA BLA BLA BLA BLA BLA BLA BLA BLA BLA BLA BLA BLA BLA BLA BLA BLA BLA 
BLA BLA BLA BLA BLA BLA BLA BLA BLA BLA BLA BLA BLA BLA BLA BLA BLA BLA BLA BLA 
BLA BLA BLA BLA BLA BLA BLA BLA BLA BLA BLA BLA BLA BLA BLA BLA BLA BLA BLA BLA 
BLA BLA BLA BLA BLA BLA BLA BLA BLA BLA BLA BLA BLA BLA BLA BLA BLA BLA BLA BLA 
BLA BLA BLA BLA BLA BLA BLA BLA BLA BLA BLA BLA BLA BLA BLA BLA BLA BLA BLA BLA 
BLA BLA BLA BLA BLA BLA BLA BLA BLA BLA BLA BLA BLA BLA BLA BLA BLA BLA BLA BLA 
BLA BLA BLA BLA BLA BLA BLA BLA BLA BLA BLA BLA BLA BLA BLA BLA BLA BLA BLA BLA 
BLA BLA BLA BLA BLA BLA BLA BLA BLA BLA BLA BLA BLA BLA BLA BLA BLA BLA BLA BLA 
BLA BLA BLA BLA BLA BLA BLA BLA BLA BLA BLA BLA BLA BLA BLA BLA BLA BLA BLA BLA 
BLA BLA BLA BLA BLA BLA BLA BLA BLA BLA BLA BLA BLA BLA BLA BLA BLA BLA BLA BLA 
BLA BLA BLA BLA BLA BLA BLA BLA BLA BLA BLA BLA BLA BLA BLA BLA BLA BLA BLA BLA 
BLA BLA BLA BLA BLA BLA BLA BLA BLA BLA BLA BLA BLA BLA BLA BLA BLA BLA BLA BLA 
BLA BLA BLA BLA BLA BLA BLA BLA BLA BLA BLA BLA BLA BLA BLA BLA BLA BLA BLA BLA 
BLA BLA BLA BLA BLA BLA BLA BLA BLA BLA BLA BLA BLA BLA BLA BLA BLA BLA BLA BLA 
BLA BLA BLA BLA BLA BLA BLA BLA BLA BLA BLA BLA BLA BLA BLA BLA BLA BLA BLA BLA 
BLA BLA BLA BLA BLA BLA BLA BLA BLA BLA BLA BLA BLA BLA BLA BLA BLA BLA BLA BLA 
BLA BLA BLA BLA BLA BLA BLA BLA BLA BLA BLA BLA BLA BLA BLA BLA BLA BLA BLA BLA 
BLA BLA BLA BLA BLA BLA BLA BLA BLA BLA BLA BLA BLA BLA BLA BLA BLA BLA BLA BLA 
BLA BLA BLA BLA BLA BLA BLA BLA BLA BLA BLA BLA BLA BLA BLA BLA BLA BLA BLA BLA 
BLA BLA BLA BLA BLA BLA BLA BLA BLA BLA BLA BLA BLA BLA BLA BLA BLA BLA BLA BLA 
BLA BLA BLA BLA BLA BLA BLA BLA BLA BLA BLA BLA BLA BLA BLA BLA BLA BLA BLA BLA 
BLA BLA BLA BLA BLA BLA BLA BLA BLA BLA BLA BLA BLA BLA BLA BLA BLA BLA BLA BLA 
BLA BLA BLA BLA BLA BLA BLA BLA BLA BLA BLA BLA BLA BLA BLA BLA BLA BLA BLA BLA 
BLA BLA BLA BLA BLA BLA BLA BLA BLA BLA BLA BLA BLA BLA BLA BLA BLA BLA BLA BLA 
BLA BLA BLA BLA BLA BLA BLA BLA BLA BLA BLA BLA BLA BLA BLA BLA BLA BLA BLA BLA 
BLA BLA BLA BLA BLA BLA BLA BLA BLA BLA BLA BLA BLA BLA BLA BLA BLA BLA BLA BLA 
BLA BLA 
%FLAG JOIN_ARRAY                                                                
%FORMAT(10I8)                                                                   
       0       0       0       0       0       0       0       0       0       0
       0       0       0       0       0       0       0       0       0       0
       0       0       0       0       0       0       0       0       0       0
       0       0       0       0       0       0       0       0       0       0
       0       0       0       0       0       0       0       0       0       0
       0       0       0       0       0       0       0       0       0       0
       0       0       0       0       0       0       0       0       0       0
       0       0       0       0       0       0       0       0       0       0
       0       0       0       0       0       0       0       0       0       0
       0       0       0       0       0       0       0       0       0       0
       0       0       0       0       0       0       0       0       0       0
       0       0       0       0       0       0       0       0       0       0
       0       0       0       0       0       0       0       0       0       0
       0       0       0       0       0       0       0       0       0       0
       0       0       0       0       0       0       0       0       0       0
       0       0       0       0       0       0       0       0       0       0
       0       0       0       0       0       0       0       0       0       0
       0       0       0       0       0       0       0       0       0       0
       0       0       0       0       0       0       0       0       0       0
       0       0       0       0       0       0       0       0       0       0
       0       0       0       0       0       0       0       0       0       0
       0       0       0       0       0       0       0       0       0       0
       0       0       0       0       0       0       0       0       0       0
       0       0       0       0       0       0       0       0       0       0
       0       0       0       0       0       0       0       0       0       0
       0       0       0       0       0       0       0       0       0       0
       0       0       0       0       0       0       0       0       0       0
       0       0       0       0       0       0       0       0       0       0
       0       0       0       0       0       0       0       0       0       0
       0       0       0       0       0       0       0       0       0       0
       0       0       0       0       0       0       0       0       0       0
       0       0       0       0       0       0       0       0       0       0
       0       0       0       0       0       0       0       0       0       0
       0       0       0       0       0       0       0       0       0       0
       0       0       0       0       0       0       0       0       0       0
       0       0       0       0       0       0       0       0       0       0
       0       0       0       0       0       0       0       0       0       0
       0       0       0       0       0       0       0       0       0       0
       0       0       0       0       0       0       0       0       0       0
       0       0       0       0       0       0       0       0       0       0
       0       0       0       0       0       0       0       0       0       0
       0       0       0       0       0       0       0       0       0       0
       0       0       0       0       0       0       0       0       0       0
       0       0       0       0       0       0       0       0       0       0
       0       0       0       0       0       0       0       0       0       0
       0       0       0       0       0       0       0       0       0       0
       0       0       0       0       0       0       0       0       0       0
       0       0       0       0       0       0       0       0       0       0
       0       0       0       0       0       0       0       0       0       0
       0       0       0       0       0       0       0       0       0       0
       0       0       0       0       0       0       0       0       0       0
       0       0       0       0       0       0       0       0       0       0
       0       0       0       0       0       0       0       0       0       0
       0       0       0       0       0       0       0       0       0       0
       0       0       0       0       0       0       0       0       0       0
       0       0       0       0       0       0       0       0       0       0
       0       0       0       0       0       0       0       0       0       0
       0       0       0       0       0       0       0       0       0       0
       0       0       0       0       0       0       0       0       0       0
       0       0       0       0       0       0       0       0       0       0
       0       0       0       0       0       0       0       0       0       0
       0       0       0       0       0       0       0       0       0       0
       0       0       0       0       0       0       0       0       0       0
       0       0       0       0       0       0       0       0       0       0
       0       0       0       0       0       0       0       0       0       0
       0       0       0       0       0       0       0       0       0       0
       0       0       0       0       0       0       0       0       0       0
       0       0       0       0       0       0       0       0       0       0
       0       0       0       0       0       0       0       0       0       0
       0       0       0       0       0       0       0       0       0       0
       0       0       0       0       0       0       0       0       0       0
       0       0       0       0       0       0       0       0       0       0
       0       0       0       0       0       0       0       0       0       0
       0       0       0       0       0       0       0       0       0       0
       0       0       0       0       0       0       0       0       0       0
       0       0       0       0       0       0       0       0       0       0
       0       0       0       0       0       0       0       0       0       0
       0       0       0       0       0       0       0       0       0       0
       0       0       0       0       0       0       0       0       0       0
       0       0       0       0       0       0       0       0       0       0
       0       0       0       0       0       0       0       0       0       0
       0       0       0       0       0       0       0       0       0       0
       0       0       0       0       0       0       0       0       0       0
       0       0       0       0       0       0       0       0       0       0
       0       0       0       0       0       0       0       0       0       0
       0       0       0       0       0       0       0       0       0       0
       0       0       0       0       0       0       0       0       0       0
       0       0       0       0       0       0       0       0       0       0
       0       0       0       0       0       0       0       0       0       0
       0       0       0       0       0       0       0       0       0       0
       0       0       0       0       0       0       0       0       0       0
       0       0       0       0       0       0       0       0       0       0
       0       0       0       0       0       0       0       0       0       0
       0       0       0       0       0       0       0       0       0       0
       0       0       0       0       0       0       0       0       0       0
       0       0       0       0       0       0       0       0       0       0
       0       0       0       0       0       0       0       0       0       0
       0       0       0       0       0       0       0       0       0       0
       0       0       0       0       0       0       0       0       0       0
       0       0       0       0       0       0       0       0       0       0
       0       0       0       0       0       0       0       0       0       0
       0       0       0       0       0       0       0       0       0       0
       0       0       0       0       0       0       0       0       0       0
       0       0       0       0       0       0       0       0       0       0
       0       0       0       0       0       0       0       0       0       0
       0       0       0       0       0       0       0       0       0       0
       0       0       0       0       0       0       0       0       0       0
       0       0       0       0       0       0       0       0       0       0
       0       0       0       0       0       0       0       0       0       0
       0       0       0       0       0       0       0       0       0       0
       0       0       0       0       0       0       0       0       0       0
       0       0       0       0       0       0       0       0       0       0
       0       0       0       0       0       0       0       0       0       0
       0       0       0       0       0       0       0       0       0       0
       0       0       0       0       0       0       0       0       0       0
       0       0       0       0       0       0       0       0       0       0
       0       0       0       0       0       0       0       0       0       0
       0       0       0       0       0       0       0       0       0       0
       0       0       0       0       0       0       0       0       0       0
       0       0       0       0       0       0       0       0       0       0
       0       0       0       0       0       0       0       0       0       0
       0       0       0       0       0       0       0       0       0       0
       0       0       0       0       0       0       0       0       0       0
       0       0       0       0       0       0       0       0       0       0
       0       0       0       0       0       0       0       0       0       0
       0       0       0       0       0       0       0       0       0       0
       0       0       0       0       0       0       0       0       0       0
       0       0       0       0       0       0       0       0       0       0
       0       0       0       0       0       0       0       0       0       0
       0       0       0       0       0       0       0       0       0       0
       0       0       0       0       0       0       0       0       0       0
       0       0       0       0       0       0       0       0       0       0
       0       0       0       0       0       0       0       0       0       0
       0       0       0       0       0       0       0       0       0       0
       0       0       0       0       0       0       0       0       0       0
       0       0       0       0       0       0       0       0       0       0
       0       0       0       0       0       0       0       0       0       0
       0       0       0       0       0       0       0       0       0       0
       0       0       0       0       0       0       0       0       0       0
       0       0       0       0       0       0       0       0       0       0
       0       0       0       0       0       0       0       0       0       0
       0       0       0       0       0       0       0       0       0       0
       0       0       0       0       0       0       0       0       0       0
       0       0       0       0       0       0       0       0       0       0
       0       0       0       0       0       0       0       0       0       0
       0       0       0       0       0       0       0       0       0       0
       0       0       0       0       0       0       0       0       0       0
       0       0       0       0       0       0       0       0       0       0
       0       0       0       0       0       0       0       0       0       0
       0       0       0       0       0       0       0       0       0       0
       0       0       0       0       0       0       0       0       0       0
       0       0       0       0       0       0       0       0       0       0
       0       0       0       0       0       0       0       0       0       0
       0       0       0       0       0       0       0       0       0       0
       0       0       0       0       0       0       0       0       0       0
       0       0       0       0       0       0       0       0       0       0
       0       0       0       0       0       0       0       0       0       0
       0       0       0       0       0       0       0       0       0       0
       0       0       0       0       0       0       0       0       0       0
       0       0       0       0       0       0       0       0       0       0
       0       0       0       0       0       0       0       0       0       0
       0       0       0       0       0       0       0       0       0       0
       0       0       0       0       0       0       0       0       0       0
       0       0       0       0       0       0       0       0       0       0
       0       0       0       0       0       0       0       0       0       0
       0       0       0       0       0       0       0       0       0       0
       0       0       0       0       0       0       0       0       0       0
       0       0       0       0       0       0       0       0       0       0
       0       0       0       0       0       0       0       0       0       0
       0       0       0       0       0       0       0       0       0       0
       0       0       0       0       0       0       0       0       0       0
       0       0       0       0       0       0       0       0       0       0
       0       0       0       0       0       0       0       0       0       0
       0       0       0       0       0       0       0       0       0       0
       0       0       0       0       0       0       0       0       0       0
       0       0       0       0       0       0       0       0       0       0
       0       0       0       0       0       0       0       0       0       0
       0       0       0       0       0       0       0       0       0       0
       0       0       0       0       0       0       0       0       0       0
       0       0       0       0       0       0       0       0       0       0
       0       0       0       0       0       0       0       0       0       0
       0       0       0       0       0       0       0       0       0       0
       0       0       0       0       0       0       0       0       0       0
       0       0       0       0       0       0       0       0       0       0
       0       0       0       0       0       0       0       0       0       0
       0       0       0       0       0       0       0       0       0       0
       0       0       0       0       0       0       0       0       0       0
       0       0       0       0       0       0       0       0       0       0
       0       0       0       0       0       0       0       0       0       0
       0       0       0       0       0       0       0       0       0       0
       0       0       0       0       0       0       0       0       0       0
       0       0       0       0       0       0       0       0       0       0
       0       0       0       0       0       0       0       0       0       0
       0       0       0       0       0       0       0       0       0       0
       0       0       0       0       0       0       0       0       0       0
       0       0       0       0       0       0       0       0       0       0
       0       0       0       0       0       0       0       0       0       0
       0       0       0       0       0       0       0       0       0       0
       0       0       0       0       0       0       0       0       0       0
       0       0       0       0       0       0       0       0       0       0
       0       0       0       0       0       0       0       0       0       0
       0       0       0       0       0       0       0       0       0       0
       0       0       0       0       0       0       0       0       0       0
       0       0       0       0       0       0       0       0       0       0
       0       0       0       0       0       0       0       0       0       0
       0       0       0       0       0       0       0       0       0       0
       0       0       0       0       0       0       0       0       0       0
       0       0       0       0       0       0       0       0       0       0
       0       0       0       0       0       0       0       0       0       0
       0       0       0       0       0       0       0       0       0       0
       0       0       0       0       0       0       0       0       0       0
       0       0       0       0       0       0       0       0       0       0
       0       0       0       0       0       0       0       0       0       0
       0       0       0       0       0       0       0       0       0       0
       0       0       0       0       0       0       0       0       0       0
       0       0       0       0       0       0       0       0       0       0
       0       0       0       0       0       0       0       0       0       0
       0       0       0       0       0       0       0       0       0       0
       0       0       0       0       0       0       0       0       0       0
       0       0       0       0       0       0       0       0       0       0
       0       0       0       0       0       0       0       0       0       0
       0       0       0       0       0       0       0       0       0       0
       0       0       0       0       0       0       0       0       0       0
       0       0       0       0       0       0       0       0       0       0
       0       0       0       0       0       0       0       0       0       0
       0       0       0       0       0       0       0       0       0       0
       0       0       0       0       0       0       0       0       0       0
       0       0       0       0       0       0       0       0       0       0
       0       0       0       0       0       0       0       0       0       0
       0       0       0       0       0       0       0       0       0       0
       0       0       0       0       0       0       0       0       0       0
       0       0       0       0       0       0       0       0       0       0
       0       0       0       0       0       0       0       0       0       0
       0       0       0       0       0       0       0       0       0       0
       0       0       0       0       0       0       0       0       0       0
       0       0       0       0       0       0       0       0       0       0
       0       0       0       0       0       0       0       0       0       0
       0       0       0       0       0       0       0       0       0       0
       0       0       0       0       0       0       0       0       0       0
       0       0       0       0       0       0       0       0       0       0
       0       0       0       0       0       0       0       0       0       0
       0       0       0       0       0       0       0       0       0       0
       0       0       0       0       0       0       0       0       0       0
       0       0       0       0       0       0       0       0       0       0
       0       0       0       0       0       0       0       0       0       0
       0       0       0       0       0       0       0       0       0       0
       0       0       0       0       0       0       0       0       0       0
       0       0       0       0       0       0       0       0       0       0
       0       0       0       0       0       0       0       0       0       0
       0       0       0       0       0       0       0       0       0       0
       0       0       0       0       0       0       0       0       0       0
       0       0       0       0       0       0       0       0       0       0
       0       0       0       0       0       0       0       0       0       0
       0       0       0       0       0       0       0       0       0       0
       0       0       0       0       0       0       0       0       0       0
       0       0       0       0       0       0       0       0       0       0
       0       0       0       0       0       0       0       0       0       0
       0       0       0       0       0       0       0       0       0       0
       0       0       0       0       0       0       0       0       0       0
       0       0       0       0       0       0       0       0       0       0
       0       0       0       0       0       0       0       0       0       0
       0       0       0       0       0       0       0       0       0       0
       0       0       0       0       0       0       0       0       0       0
       0       0       0       0       0       0       0       0       0       0
       0       0       0       0       0       0       0       0       0       0
       0       0       0       0       0       0       0       0       0       0
       0       0       0       0       0       0       0       0       0       0
       0       0       0       0       0       0       0       0       0       0
       0       0       0       0       0       0       0       0       0       0
       0       0       0       0       0       0       0       0       0       0
       0       0       0       0       0       0       0       0       0       0
       0       0       0       0       0       0       0       0       0       0
       0       0       0       0       0       0       0       0       0       0
       0       0       0       0       0       0       0       0       0       0
       0       0       0       0       0       0       0       0       0       0
       0       0       0       0       0       0       0       0       0       0
       0       0       0       0       0       0       0       0       0       0
       0       0       0       0       0       0       0       0       0       0
       0       0       0       0       0       0       0       0       0       0
       0       0       0       0       0       0       0       0       0       0
       0       0       0       0       0       0       0       0       0       0
       0       0       0       0       0       0       0       0       0       0
       0       0       0       0       0       0       0       0       0       0
       0       0       0       0       0       0       0       0       0       0
       0       0       0       0       0       0       0       0       0       0
       0       0       0       0       0       0       0       0       0       0
       0       0       0       0       0       0       0       0       0       0
       0       0       0       0       0       0       0       0       0       0
       0       0       0       0       0       0       0       0       0       0
       0       0       0       0       0       0       0       0       0       0
       0       0       0       0       0       0       0       0       0       0
       0       0       0       0       0       0       0       0       0       0
       0       0       0       0       0       0       0       0       0       0
       0       0       0       0       0       0       0       0       0       0
       0       0       0       0       0       0       0       0       0       0
       0       0       0       0       0       0       0       0       0       0
       0       0       0       0       0       0       0       0       0       0
       0       0       0       0       0       0       0       0       0       0
       0       0       0       0       0       0       0       0       0       0
       0       0       0       0       0       0       0       0       0       0
       0       0       0       0       0       0       0       0       0       0
       0       0       0       0       0       0       0       0       0       0
       0       0       0       0       0       0       0       0       0       0
       0       0       0       0       0       0       0       0       0       0
       0       0       0       0       0       0       0       0       0       0
       0       0       0       0       0       0       0       0       0       0
       0       0       0       0       0       0       0       0       0       0
       0       0       0       0       0       0       0       0       0       0
       0       0       0       0       0       0       0       0       0       0
       0       0       0       0       0       0       0       0       0       0
       0       0       0       0       0       0       0       0       0       0
       0       0       0       0       0       0       0       0       0       0
       0       0       0       0       0       0       0       0       0       0
       0       0       0       0       0       0       0       0       0       0
       0       0       0       0       0       0       0       0       0       0
       0       0       0       0       0       0       0       0       0       0
       0       0       0       0       0       0       0       0       0       0
       0       0       0       0       0       0       0       0       0       0
       0       0       0       0       0       0       0       0       0       0
       0       0       0       0       0       0       0       0       0       0
       0       0       0       0       0       0       0       0       0       0
       0       0       0       0       0       0       0       0       0       0
       0       0       0       0       0       0       0       0       0       0
       0       0       0       0       0       0       0       0       0       0
       0       0       0       0       0       0       0       0       0       0
       0       0       0       0       0       0       0       0       0       0
       0       0       0       0       0       0       0       0       0       0
       0       0       0       0       0       0       0       0       0       0
       0       0       0       0       0       0       0       0       0       0
       0       0       0       0       0       0       0       0       0       0
       0       0       0       0       0       0       0       0       0       0
       0       0       0       0       0       0       0       0       0       0
       0       0       0       0       0       0       0       0       0       0
       0       0       0       0       0       0       0       0       0       0
       0       0       0       0       0       0       0       0       0       0
       0       0       0       0       0       0       0       0       0       0
       0       0       0       0       0       0       0       0       0       0
       0       0       0       0       0       0       0       0       0       0
       0       0       0       0       0       0       0       0       0       0
       0       0       0       0       0       0       0       0       0       0
       0       0       0       0       0       0       0       0       0       0
       0       0       0       0       0       0       0       0       0       0
       0       0       0       0       0       0       0       0       0       0
       0       0       0       0       0       0       0       0       0       0
       0       0
%FLAG IROTAT                                                                    
%FORMAT(10I8)                                                                   
       0       0       0       0       0       0       0       0       0       0
       0       0       0       0       0       0       0       0       0       0
       0       0       0       0       0       0       0       0       0       0
       0       0       0       0       0       0       0       0       0       0
       0       0       0       0       0       0       0       0       0       0
       0       0       0       0       0       0       0       0       0       0
       0       0       0       0       0       0       0       0       0       0
       0       0       0       0       0       0       0       0       0       0
       0       0       0       0       0       0       0       0       0       0
       0       0       0       0       0       0       0       0       0       0
       0       0       0       0       0       0       0       0       0       0
       0       0       0       0       0       0       0       0       0       0
       0       0       0       0       0       0       0       0       0       0
       0       0       0       0       0       0       0       0       0       0
       0       0       0       0       0       0       0       0       0       0
       0       0       0       0       0       0       0       0       0       0
       0       0       0       0       0       0       0       0       0       0
       0       0       0       0       0       0       0       0       0       0
       0       0       0       0       0       0       0       0       0       0
       0       0       0       0       0       0       0       0       0       0
       0       0       0       0       0       0       0       0       0       0
       0       0       0       0       0       0       0       0       0       0
       0       0       0       0       0       0       0       0       0       0
       0       0       0       0       0       0       0       0       0       0
       0       0       0       0       0       0       0       0       0       0
       0       0       0       0       0       0       0       0       0       0
       0       0       0       0       0       0       0       0       0       0
       0       0       0       0       0       0       0       0       0       0
       0       0       0       0       0       0       0       0       0       0
       0       0       0       0       0       0       0       0       0       0
       0       0       0       0       0       0       0       0       0       0
       0       0       0       0       0       0       0       0       0       0
       0       0       0       0       0       0       0       0       0       0
       0       0       0       0       0       0       0       0       0       0
       0       0       0       0       0       0       0       0       0       0
       0       0       0       0       0       0       0       0       0       0
       0       0       0       0       0       0       0       0       0       0
       0       0       0       0       0       0       0       0       0       0
       0       0       0       0       0       0       0       0       0       0
       0       0       0       0       0       0       0       0       0       0
       0       0       0       0       0       0       0       0       0       0
       0       0       0       0       0       0       0       0       0       0
       0       0       0       0       0       0       0       0       0       0
       0       0       0       0       0       0       0       0       0       0
       0       0       0       0       0       0       0       0       0       0
       0       0       0       0       0       0       0       0       0       0
       0       0       0       0       0       0       0       0       0       0
       0       0       0       0       0       0       0       0       0       0
       0       0       0       0       0       0       0       0       0       0
       0       0       0       0       0       0       0       0       0       0
       0       0       0       0       0       0       0       0       0       0
       0       0       0       0       0       0       0       0       0       0
       0       0       0       0       0       0       0       0       0       0
       0       0       0       0       0       0       0       0       0       0
       0       0       0       0       0       0       0       0       0       0
       0       0       0       0       0       0       0       0       0       0
       0       0       0       0       0       0       0       0       0       0
       0       0       0       0       0       0       0       0       0       0
       0       0       0       0       0       0       0       0       0       0
       0       0       0       0       0       0       0       0       0       0
       0       0       0       0       0       0       0       0       0       0
       0       0       0       0       0       0       0       0       0       0
       0       0       0       0       0       0       0       0       0       0
       0       0       0       0       0       0       0       0       0       0
       0       0       0       0       0       0       0       0       0       0
       0       0       0       0       0       0       0       0       0       0
       0       0       0       0       0       0       0       0       0       0
       0       0       0       0       0       0       0       0       0       0
       0       0       0       0       0       0       0       0       0       0
       0       0       0       0       0       0       0       0       0       0
       0       0       0       0       0       0       0       0       0       0
       0       0       0       0       0       0       0       0       0       0
       0       0       0       0       0       0       0       0       0       0
       0       0       0       0       0       0       0       0       0       0
       0       0       0       0       0       0       0       0       0       0
       0       0       0       0       0       0       0       0       0       0
       0       0       0       0       0       0       0       0       0       0
       0       0       0       0       0       0       0       0       0       0
       0       0       0       0       0       0       0       0       0       0
       0       0       0       0       0       0       0       0       0       0
       0       0       0       0       0       0       0       0       0       0
       0       0       0       0       0       0       0       0       0       0
       0       0       0       0       0       0       0       0       0       0
       0       0       0       0       0       0       0       0       0       0
       0       0       0       0       0       0       0       0       0       0
       0       0       0       0       0       0       0       0       0       0
       0       0       0       0       0       0       0       0       0       0
       0       0       0       0       0       0       0       0       0       0
       0       0       0       0       0       0       0       0       0       0
       0       0       0       0       0       0       0       0       0       0
       0       0       0       0       0       0       0       0       0       0
       0       0       0       0       0       0       0       0       0       0
       0       0       0       0       0       0       0       0       0       0
       0       0       0       0       0       0       0       0       0       0
       0       0       0       0       0       0       0       0       0       0
       0       0       0       0       0       0       0       0       0       0
       0       0       0       0       0       0       0       0       0       0
       0       0       0       0       0       0       0       0       0       0
       0       0       0       0       0       0       0       0       0       0
       0       0       0       0       0       0       0       0       0       0
       0       0       0       0       0       0       0       0       0       0
       0       0       0       0       0       0       0       0       0       0
       0       0       0       0       0       0       0       0       0       0
       0       0       0       0       0       0       0       0       0       0
       0       0       0       0       0       0       0       0       0       0
       0       0       0       0       0       0       0       0       0       0
       0       0       0       0       0       0       0       0       0       0
       0       0       0       0       0       0       0       0       0       0
       0       0       0       0       0       0       0       0       0       0
       0       0       0       0       0       0       0       0       0       0
       0       0       0       0       0       0       0       0       0       0
       0       0       0       0       0       0       0       0       0       0
       0       0       0       0       0       0       0       0       0       0
       0       0       0       0       0       0       0       0       0       0
       0       0       0       0       0       0       0       0       0       0
       0       0       0       0       0       0       0       0       0       0
       0       0       0       0       0       0       0       0       0       0
       0       0       0       0       0       0       0       0       0       0
       0       0       0       0       0       0       0       0       0       0
       0       0       0       0       0       0       0       0       0       0
       0       0       0       0       0       0       0       0       0       0
       0       0       0       0       0       0       0       0       0       0
       0       0       0       0       0       0       0       0       0       0
       0       0       0       0       0       0       0       0       0       0
       0       0       0       0       0       0       0       0       0       0
       0       0       0       0       0       0       0       0       0       0
       0       0       0       0       0       0       0       0       0       0
       0       0       0       0       0       0       0       0       0       0
       0       0       0       0       0       0       0       0       0       0
       0       0       0       0       0       0       0       0       0       0
       0       0       0       0       0       0       0       0       0       0
       0       0       0       0       0       0       0       0       0       0
       0       0       0       0       0       0       0       0       0       0
       0       0       0       0       0       0       0       0       0       0
       0       0       0       0       0       0       0       0       0       0
       0       0       0       0       0       0       0       0       0       0
       0       0       0       0       0       0       0       0       0       0
       0       0       0       0       0       0       0       0       0       0
       0       0       0       0       0       0       0       0       0       0
       0       0       0       0       0       0       0       0       0       0
       0       0       0       0       0       0       0       0       0       0
       0       0       0       0       0       0       0       0       0       0
       0       0       0       0       0       0       0       0       0       0
       0       0       0       0       0       0       0       0       0       0
       0       0       0       0       0       0       0       0       0       0
       0       0       0       0       0       0       0       0       0       0
       0       0       0       0       0       0       0       0       0       0
       0       0       0       0       0       0       0       0       0       0
       0       0       0       0       0       0       0       0       0       0
       0       0       0       0       0       0       0       0       0       0
       0       0       0       0       0       0       0       0       0       0
       0       0       0       0       0       0       0       0       0       0
       0       0       0       0       0       0       0       0       0       0
       0       0       0       0       0       0       0       0       0       0
       0       0       0       0       0       0       0       0       0       0
       0       0       0       0       0       0       0       0       0       0
       0       0       0       0       0       0       0       0       0       0
       0       0       0       0       0       0       0       0       0       0
       0       0       0       0       0       0       0       0       0       0
       0       0       0       0       0       0       0       0       0       0
       0       0       0       0       0       0       0       0       0       0
       0       0       0       0       0       0       0       0       0       0
       0       0       0       0       0       0       0       0       0       0
       0       0       0       0       0       0       0       0       0       0
       0       0       0       0       0       0       0       0       0       0
       0       0       0       0       0       0       0       0       0       0
       0       0       0       0       0       0       0       0       0       0
       0       0       0       0       0       0       0       0       0       0
       0       0       0       0       0       0       0       0       0       0
       0       0       0       0       0       0       0       0       0       0
       0       0       0       0       0       0       0       0       0       0
       0       0       0       0       0       0       0       0       0       0
       0       0       0       0       0       0       0       0       0       0
       0       0       0       0       0       0       0       0       0       0
       0       0       0       0       0       0       0       0       0       0
       0       0       0       0       0       0       0       0       0       0
       0       0       0       0       0       0       0       0       0       0
       0       0       0       0       0       0       0       0       0       0
       0       0       0       0       0       0       0       0       0       0
       0       0       0       0       0       0       0       0       0       0
       0       0       0       0       0       0       0       0       0       0
       0       0       0       0       0       0       0       0       0       0
       0       0       0       0       0       0       0       0       0       0
       0       0       0       0       0       0       0       0       0       0
       0       0       0       0       0       0       0       0       0       0
       0       0       0       0       0       0       0       0       0       0
       0       0       0       0       0       0       0       0       0       0
       0       0       0       0       0       0       0       0       0       0
       0       0       0       0       0       0       0       0       0       0
       0       0       0       0       0       0       0       0       0       0
       0       0       0       0       0       0       0       0       0       0
       0       0       0       0       0       0       0       0       0       0
       0       0       0       0       0       0       0       0       0       0
       0       0       0       0       0       0       0       0       0       0
       0       0       0       0       0       0       0       0       0       0
       0       0       0       0       0       0       0       0       0       0
       0       0       0       0       0       0       0       0       0       0
       0       0       0       0       0       0       0       0       0       0
       0       0       0       0       0       0       0       0       0       0
       0       0       0       0       0       0       0       0       0       0
       0       0       0       0       0       0       0       0       0       0
       0       0       0       0       0       0       0       0       0       0
       0       0       0       0       0       0       0       0       0       0
       0       0       0       0       0       0       0       0       0       0
       0       0       0       0       0       0       0       0       0       0
       0       0       0       0       0       0       0       0       0       0
       0       0       0       0       0       0       0       0       0       0
       0       0       0       0       0       0       0       0       0       0
       0       0       0       0       0       0       0       0       0       0
       0       0       0       0       0       0       0       0       0       0
       0       0       0       0       0       0       0       0       0       0
       0       0       0       0       0       0       0       0       0       0
       0       0       0       0       0       0       0       0       0       0
       0       0       0       0       0       0       0       0       0       0
       0       0       0       0       0       0       0       0       0       0
       0       0       0       0       0       0       0       0       0       0
       0       0       0       0       0       0       0       0       0       0
       0       0       0       0       0       0       0       0       0       0
       0       0       0       0       0       0       0       0       0       0
       0       0       0       0       0       0       0       0       0       0
       0       0       0       0       0       0       0       0       0       0
       0       0       0       0       0       0       0       0       0       0
       0       0       0       0       0       0       0       0       0       0
       0       0       0       0       0       0       0       0       0       0
       0       0       0       0       0       0       0       0       0       0
       0       0       0       0       0       0       0       0       0       0
       0       0       0       0       0       0       0       0       0       0
       0       0       0       0       0       0       0       0       0       0
       0       0       0       0       0       0       0       0       0       0
       0       0       0       0       0       0       0       0       0       0
       0       0       0       0       0       0       0       0       0       0
       0       0       0       0       0       0       0       0       0       0
       0       0       0       0       0       0       0       0       0       0
       0       0       0       0       0       0       0       0       0       0
       0       0       0       0       0       0       0       0       0       0
       0       0       0       0       0       0       0       0       0       0
       0       0       0       0       0       0       0       0       0       0
       0       0       0       0       0       0       0       0       0       0
       0       0       0       0       0       0       0       0       0       0
       0       0       0       0       0       0       0       0       0       0
       0       0       0       0       0       0       0       0       0       0
       0       0       0       0       0       0       0       0       0       0
       0       0       0       0       0       0       0       0       0       0
       0       0       0       0       0       0       0       0       0       0
       0       0       0       0       0       0       0       0       0       0
       0       0       0       0       0       0       0       0       0       0
       0       0       0       0       0       0       0       0       0       0
       0       0       0       0       0       0       0       0       0       0
       0       0       0       0       0       0       0       0       0       0
       0       0       0       0       0       0       0       0       0       0
       0       0       0       0       0       0       0       0       0       0
       0       0       0       0       0       0       0       0       0       0
       0       0       0       0       0       0       0       0       0       0
       0       0       0       0       0       0       0       0       0       0
       0       0       0       0       0       0       0       0       0       0
       0       0       0       0       0       0       0       0       0       0
       0       0       0       0       0       0       0       0       0       0
       0       0       0       0       0       0       0       0       0       0
       0       0       0       0       0       0       0       0       0       0
       0       0       0       0       0       0       0       0       0       0
       0       0       0       0       0       0       0       0       0       0
       0       0       0       0       0       0       0       0       0       0
       0       0       0       0       0       0       0       0       0       0
       0       0       0       0       0       0       0       0       0       0
       0       0       0       0       0       0       0       0       0       0
       0       0       0       0       0       0       0       0       0       0
       0       0       0       0       0       0       0       0       0       0
       0       0       0       0       0       0       0       0       0       0
       0       0       0       0       0       0       0       0       0       0
       0       0       0       0       0       0       0       0       0       0
       0       0       0       0       0       0       0       0       0       0
       0       0       0       0       0       0       0       0       0       0
       0       0       0       0       0       0       0       0       0       0
       0       0       0       0       0       0       0       0       0       0
       0       0       0       0       0       0       0       0       0       0
       0       0       0       0       0       0       0       0       0       0
       0       0       0       0       0       0       0       0       0       0
       0       0       0       0       0       0       0       0       0       0
       0       0       0       0       0       0       0       0       0       0
       0       0       0       0       0       0       0       0       0       0
       0       0       0       0       0       0       0       0       0       0
       0       0       0       0       0       0       0       0       0       0
       0       0       0       0       0       0       0       0       0       0
       0       0       0       0       0       0       0       0       0       0
       0       0       0       0       0       0       0       0       0       0
       0       0       0       0       0       0       0       0       0       0
       0       0       0       0       0       0       0       0       0       0
       0       0       0       0       0       0       0       0       0       0
       0       0       0       0       0       0       0       0       0       0
       0       0       0       0       0       0       0       0       0       0
       0       0       0       0       0       0       0       0       0       0
       0       0       0       0       0       0       0       0       0       0
       0       0       0       0       0       0       0       0       0       0
       0       0       0       0       0       0       0       0       0       0
       0       0       0       0       0       0       0       0       0       0
       0       0       0       0       0       0       0       0       0       0
       0       0       0       0       0       0       0       0       0       0
       0       0       0       0       0       0       0       0       0       0
       0       0       0       0       0       0       0       0       0       0
       0       0       0       0       0       0       0       0       0       0
       0       0       0       0       0       0       0       0       0       0
       0       0       0       0       0       0       0       0       0       0
       0       0       0       0       0       0       0       0       0       0
       0       0       0       0       0       0       0       0       0       0
       0       0       0       0       0       0       0       0       0       0
       0       0       0       0       0       0       0       0       0       0
       0       0       0       0       0       0       0       0       0       0
       0       0       0       0       0       0       0       0       0       0
       0       0       0       0       0       0       0       0       0       0
       0       0       0       0       0       0       0       0       0       0
       0       0       0       0       0       0       0       0       0       0
       0       0       0       0       0       0       0       0       0       0
       0       0       0       0       0       0       0       0       0       0
       0       0       0       0       0       0       0       0       0       0
       0       0       0       0       0       0       0       0       0       0
       0       0       0       0       0       0       0       0       0       0
       0       0       0       0       0       0       0       0       0       0
       0       0       0       0       0       0       0       0       0       0
       0       0       0       0       0       0       0       0       0       0
       0       0       0       0       0       0       0       0       0       0
       0       0       0       0       0       0       0       0       0       0
       0       0       0       0       0       0       0       0       0       0
       0       0       0       0       0       0       0       0       0       0
       0       0       0       0       0       0       0       0       0       0
       0       0       0       0       0       0       0       0       0       0
       0       0       0       0       0       0       0       0       0       0
       0       0       0       0       0       0       0       0       0       0
       0       0       0       0       0       0       0       0       0       0
       0       0       0       0       0       0       0       0       0       0
       0       0       0       0       0       0       0       0       0       0
       0       0       0       0       0       0       0       0       0       0
       0       0       0       0       0       0       0       0       0       0
       0       0       0       0       0       0       0       0       0       0
       0       0       0       0       0       0       0       0       0       0
       0       0       0       0       0       0       0       0       0       0
       0       0       0       0       0       0       0       0       0       0
       0       0       0       0       0       0       0       0       0       0
       0       0       0       0       0       0       0       0       0       0
       0       0       0       0       0       0       0       0       0       0
       0       0       0       0       0       0       0       0       0       0
       0       0       0       0       0       0       0       0       0       0
       0       0       0       0       0       0       0       0       0       0
       0       0       0       0       0       0       0       0       0       0
       0       0       0       0       0       0       0       0       0       0
       0       0
%FLAG SOLVENT_POINTERS                                                          
%FORMAT(3I8)                                                                    
     341     341     342
%FLAG ATOMS_PER_MOLECULE                                                        
%FORMAT(10I8)                                                                   
      42      10      10      10      10      10      10      10      10      10
      10      10      10      10      10      10      10      10      10      10
      10      10      10      10      10      10      10      10      10      10
      10      10      10      10      10      10      10      10      10      10
      10      10      10      10      10      10      10      10      10      10
      10      10      10      10      10      10      10      10      10      10
      10      10      10      10      10      10      10      10      10      10
      10      10      10      10      10      10      10      10      10      10
      10      10      10      10      10      10      10      10      10      10
      10      10      10      10      10      10      10      10      10      10
      10      10      10      10      10      10      10      10      10      10
      10      10      10      10      10      10      10      10      10      10
      10      10      10      10      10      10      10      10      10      10
      10      10      10      10      10      10      10      10      10      10
      10      10      10      10      10      10      10      10      10      10
      10      10      10      10      10      10      10      10      10      10
      10      10      10      10      10      10      10      10      10      10
      10      10      10      10      10      10      10      10      10      10
      10      10      10      10      10      10      10      10      10      10
      10      10      10      10      10      10      10      10      10      10
      10      10      10      10      10      10      10      10      10      10
      10      10      10      10      10      10      10      10      10      10
      10      10      10      10      10      10      10      10      10      10
      10      10      10      10      10      10      10      10      10      10
      10      10      10      10      10      10      10      10      10      10
      10      10      10      10      10      10      10      10      10      10
      10      10      10      10      10      10      10      10      10      10
      10      10      10      10      10      10      10      10      10      10
      10      10      10      10      10      10      10      10      10      10
      10      10      10      10      10      10      10      10      10      10
      10      10      10      10      10      10      10      10      10      10
      10      10      10      10      10      10      10      10      10      10
      10      10      10      10      10      10      10      10      10      10
      10      10      10      10      10      10      10      10      10      10
      10
%FLAG BOX_DIMENSIONS                                                            
%FORMAT(5E16.8)                                                                 
  9.00000000E+01  3.48000000E+01  3.48000000E+01  3.48000000E+01
%FLAG RADIUS_SET                                                                
%FORMAT(1a80)                                                                   
modified Bondi radii (mbondi)                                                   
%FLAG RADII                                                                     
%FORMAT(5E16.8)                                                                 
  1.50000000E+00  1.50000000E+00  1.55000000E+00  1.55000000E+00  1.70000000E+00
  1.70000000E+00  1.70000000E+00  1.70000000E+00  1.70000000E+00  1.70000000E+00
  1.70000000E+00  1.70000000E+00  1.70000000E+00  1.70000000E+00  1.70000000E+00
  1.70000000E+00  1.70000000E+00  1.70000000E+00  1.70000000E+00  1.70000000E+00
  1.70000000E+00  1.70000000E+00  1.70000000E+00  1.70000000E+00  1.30000000E+00
  1.30000000E+00  1.30000000E+00  1.30000000E+00  1.30000000E+00  1.30000000E+00
  1.30000000E+00  1.30000000E+00  1.30000000E+00  1.30000000E+00  1.30000000E+00
  1.30000000E+00  1.30000000E+00  1.30000000E+00  1.30000000E+00  1.30000000E+00
  1.30000000E+00  1.30000000E+00  1.50000000E+00  1.70000000E+00  1.70000000E+00
  1.70000000E+00  1.30000000E+00  1.30000000E+00  1.30000000E+00  1.30000000E+00
  1.30000000E+00  1.30000000E+00  1.50000000E+00  1.70000000E+00  1.70000000E+00
  1.70000000E+00  1.30000000E+00  1.30000000E+00  1.30000000E+00  1.30000000E+00
  1.30000000E+00  1.30000000E+00  1.50000000E+00  1.70000000E+00  1.70000000E+00
  1.70000000E+00  1.30000000E+00  1.30000000E+00  1.30000000E+00  1.30000000E+00
  1.30000000E+00  1.30000000E+00  1.50000000E+00  1.70000000E+00  1.70000000E+00
  1.70000000E+00  1.30000000E+00  1.30000000E+00  1.30000000E+00  1.30000000E+00
  1.30000000E+00  1.30000000E+00  1.50000000E+00  1.70000000E+00  1.70000000E+00
  1.70000000E+00  1.30000000E+00  1.30000000E+00  1.30000000E+00  1.30000000E+00
  1.30000000E+00  1.30000000E+00  1.50000000E+00  1.70000000E+00  1.70000000E+00
  1.70000000E+00  1.30000000E+00  1.30000000E+00  1.30000000E+00  1.30000000E+00
  1.30000000E+00  1.30000000E+00  1.50000000E+00  1.70000000E+00  1.70000000E+00
  1.70000000E+00  1.30000000E+00  1.30000000E+00  1.30000000E+00  1.30000000E+00
  1.30000000E+00  1.30000000E+00  1.50000000E+00  1.70000000E+00  1.70000000E+00
  1.70000000E+00  1.30000000E+00  1.30000000E+00  1.30000000E+00  1.30000000E+00
  1.30000000E+00  1.30000000E+00  1.50000000E+00  1.70000000E+00  1.70000000E+00
  1.70000000E+00  1.30000000E+00  1.30000000E+00  1.30000000E+00  1.30000000E+00
  1.30000000E+00  1.30000000E+00  1.50000000E+00  1.70000000E+00  1.70000000E+00
  1.70000000E+00  1.30000000E+00  1.30000000E+00  1.30000000E+00  1.30000000E+00
  1.30000000E+00  1.30000000E+00  1.50000000E+00  1.70000000E+00  1.70000000E+00
  1.70000000E+00  1.30000000E+00  1.30000000E+00  1.30000000E+00  1.30000000E+00
  1.30000000E+00  1.30000000E+00  1.50000000E+00  1.70000000E+00  1.70000000E+00
  1.70000000E+00  1.30000000E+00  1.30000000E+00  1.30000000E+00  1.30000000E+00
  1.30000000E+00  1.30000000E+00  1.50000000E+00  1.70000000E+00  1.70000000E+00
  1.70000000E+00  1.30000000E+00  1.30000000E+00  1.30000000E+00  1.30000000E+00
  1.30000000E+00  1.30000000E+00  1.50000000E+00  1.70000000E+00  1.70000000E+00
  1.70000000E+00  1.30000000E+00  1.30000000E+00  1.30000000E+00  1.30000000E+00
  1.30000000E+00  1.30000000E+00  1.50000000E+00  1.70000000E+00  1.70000000E+00
  1.70000000E+00  1.30000000E+00  1.30000000E+00  1.30000000E+00  1.30000000E+00
  1.30000000E+00  1.30000000E+00  1.50000000E+00  1.70000000E+00  1.70000000E+00
  1.70000000E+00  1.30000000E+00  1.30000000E+00  1.30000000E+00  1.30000000E+00
  1.30000000E+00  1.30000000E+00  1.50000000E+00  1.70000000E+00  1.70000000E+00
  1.70000000E+00  1.30000000E+00  1.30000000E+00  1.30000000E+00  1.30000000E+00
  1.30000000E+00  1.30000000E+00  1.50000000E+00  1.70000000E+00  1.70000000E+00
  1.70000000E+00  1.30000000E+00  1.30000000E+00  1.30000000E+00  1.30000000E+00
  1.30000000E+00  1.30000000E+00  1.50000000E+00  1.70000000E+00  1.70000000E+00
  1.70000000E+00  1.30000000E+00  1.30000000E+00  1.30000000E+00  1.30000000E+00
  1.30000000E+00  1.30000000E+00  1.50000000E+00  1.70000000E+00  1.70000000E+00
  1.70000000E+00  1.30000000E+00  1.30000000E+00  1.30000000E+00  1.30000000E+00
  1.30000000E+00  1.30000000E+00  1.50000000E+00  1.70000000E+00  1.70000000E+00
  1.70000000E+00  1.30000000E+00  1.30000000E+00  1.30000000E+00  1.30000000E+00
  1.30000000E+00  1.30000000E+00  1.50000000E+00  1.70000000E+00  1.70000000E+00
  1.70000000E+00  1.30000000E+00  1.30000000E+00  1.30000000E+00  1.30000000E+00
  1.30000000E+00  1.30000000E+00  1.50000000E+00  1.70000000E+00  1.70000000E+00
  1.70000000E+00  1.30000000E+00  1.30000000E+00  1.30000000E+00  1.30000000E+00
  1.30000000E+00  1.30000000E+00  1.50000000E+00  1.70000000E+00  1.70000000E+00
  1.70000000E+00  1.30000000E+00  1.30000000E+00  1.30000000E+00  1.30000000E+00
  1.30000000E+00  1.30000000E+00  1.50000000E+00  1.70000000E+00  1.70000000E+00
  1.70000000E+00  1.30000000E+00  1.30000000E+00  1.30000000E+00  1.30000000E+00
  1.30000000E+00  1.30000000E+00  1.50000000E+00  1.70000000E+00  1.70000000E+00
  1.70000000E+00  1.30000000E+00  1.30000000E+00  1.30000000E+00  1.30000000E+00
  1.30000000E+00  1.30000000E+00  1.50000000E+00  1.70000000E+00  1.70000000E+00
  1.70000000E+00  1.30000000E+00  1.30000000E+00  1.30000000E+00  1.30000000E+00
  1.30000000E+00  1.30000000E+00  1.50000000E+00  1.70000000E+00  1.70000000E+00
  1.70000000E+00  1.30000000E+00  1.30000000E+00  1.30000000E+00  1.30000000E+00
  1.30000000E+00  1.30000000E+00  1.50000000E+00  1.70000000E+00  1.70000000E+00
  1.70000000E+00  1.30000000E+00  1.30000000E+00  1.30000000E+00  1.30000000E+00
  1.30000000E+00  1.30000000E+00  1.50000000E+00  1.70000000E+00  1.70000000E+00
  1.70000000E+00  1.30000000E+00  1.30000000E+00  1.30000000E+00  1.30000000E+00
  1.30000000E+00  1.30000000E+00  1.50000000E+00  1.70000000E+00  1.70000000E+00
  1.70000000E+00  1.30000000E+00  1.30000000E+00  1.30000000E+00  1.30000000E+00
  1.30000000E+00  1.30000000E+00  1.50000000E+00  1.70000000E+00  1.70000000E+00
  1.70000000E+00  1.30000000E+00  1.30000000E+00  1.30000000E+00  1.30000000E+00
  1.30000000E+00  1.30000000E+00  1.50000000E+00  1.70000000E+00  1.70000000E+00
  1.70000000E+00  1.30000000E+00  1.30000000E+00  1.30000000E+00  1.30000000E+00
  1.30000000E+00  1.30000000E+00  1.50000000E+00  1.70000000E+00  1.70000000E+00
  1.70000000E+00  1.30000000E+00  1.30000000E+00  1.30000000E+00  1.30000000E+00
  1.30000000E+00  1.30000000E+00  1.50000000E+00  1.70000000E+00  1.70000000E+00
  1.70000000E+00  1.30000000E+00  1.30000000E+00  1.30000000E+00  1.30000000E+00
  1.30000000E+00  1.30000000E+00  1.50000000E+00  1.70000000E+00  1.70000000E+00
  1.70000000E+00  1.30000000E+00  1.30000000E+00  1.30000000E+00  1.30000000E+00
  1.30000000E+00  1.30000000E+00  1.50000000E+00  1.70000000E+00  1.70000000E+00
  1.70000000E+00  1.30000000E+00  1.30000000E+00  1.30000000E+00  1.30000000E+00
  1.30000000E+00  1.30000000E+00  1.50000000E+00  1.70000000E+00  1.70000000E+00
  1.70000000E+00  1.30000000E+00  1.30000000E+00  1.30000000E+00  1.30000000E+00
  1.30000000E+00  1.30000000E+00  1.50000000E+00  1.70000000E+00  1.70000000E+00
  1.70000000E+00  1.30000000E+00  1.30000000E+00  1.30000000E+00  1.30000000E+00
  1.30000000E+00  1.30000000E+00  1.50000000E+00  1.70000000E+00  1.70000000E+00
  1.70000000E+00  1.30000000E+00  1.30000000E+00  1.30000000E+00  1.30000000E+00
  1.30000000E+00  1.30000000E+00  1.50000000E+00  1.70000000E+00  1.70000000E+00
  1.70000000E+00  1.30000000E+00  1.30000000E+00  1.30000000E+00  1.30000000E+00
  1.30000000E+00  1.30000000E+00  1.50000000E+00  1.70000000E+00  1.70000000E+00
  1.70000000E+00  1.30000000E+00  1.30000000E+00  1.30000000E+00  1.30000000E+00
  1.30000000E+00  1.30000000E+00  1.50000000E+00  1.70000000E+00  1.70000000E+00
  1.70000000E+00  1.30000000E+00  1.30000000E+00  1.30000000E+00  1.30000000E+00
  1.30000000E+00  1.30000000E+00  1.50000000E+00  1.70000000E+00  1.70000000E+00
  1.70000000E+00  1.30000000E+00  1.30000000E+00  1.30000000E+00  1.30000000E+00
  1.30000000E+00  1.30000000E+00  1.50000000E+00  1.70000000E+00  1.70000000E+00
  1.70000000E+00  1.30000000E+00  1.30000000E+00  1.30000000E+00  1.30000000E+00
  1.30000000E+00  1.30000000E+00  1.50000000E+00  1.70000000E+00  1.70000000E+00
  1.70000000E+00  1.30000000E+00  1.30000000E+00  1.30000000E+00  1.30000000E+00
  1.30000000E+00  1.30000000E+00  1.50000000E+00  1.70000000E+00  1.70000000E+00
  1.70000000E+00  1.30000000E+00  1.30000000E+00  1.30000000E+00  1.30000000E+00
  1.30000000E+00  1.30000000E+00  1.50000000E+00  1.70000000E+00  1.70000000E+00
  1.70000000E+00  1.30000000E+00  1.30000000E+00  1.30000000E+00  1.30000000E+00
  1.30000000E+00  1.30000000E+00  1.50000000E+00  1.70000000E+00  1.70000000E+00
  1.70000000E+00  1.30000000E+00  1.30000000E+00  1.30000000E+00  1.30000000E+00
  1.30000000E+00  1.30000000E+00  1.50000000E+00  1.70000000E+00  1.70000000E+00
  1.70000000E+00  1.30000000E+00  1.30000000E+00  1.30000000E+00  1.30000000E+00
  1.30000000E+00  1.30000000E+00  1.50000000E+00  1.70000000E+00  1.70000000E+00
  1.70000000E+00  1.30000000E+00  1.30000000E+00  1.30000000E+00  1.30000000E+00
  1.30000000E+00  1.30000000E+00  1.50000000E+00  1.70000000E+00  1.70000000E+00
  1.70000000E+00  1.30000000E+00  1.30000000E+00  1.30000000E+00  1.30000000E+00
  1.30000000E+00  1.30000000E+00  1.50000000E+00  1.70000000E+00  1.70000000E+00
  1.70000000E+00  1.30000000E+00  1.30000000E+00  1.30000000E+00  1.30000000E+00
  1.30000000E+00  1.30000000E+00  1.50000000E+00  1.70000000E+00  1.70000000E+00
  1.70000000E+00  1.30000000E+00  1.30000000E+00  1.30000000E+00  1.30000000E+00
  1.30000000E+00  1.30000000E+00  1.50000000E+00  1.70000000E+00  1.70000000E+00
  1.70000000E+00  1.30000000E+00  1.30000000E+00  1.30000000E+00  1.30000000E+00
  1.30000000E+00  1.30000000E+00  1.50000000E+00  1.70000000E+00  1.70000000E+00
  1.70000000E+00  1.30000000E+00  1.30000000E+00  1.30000000E+00  1.30000000E+00
  1.30000000E+00  1.30000000E+00  1.50000000E+00  1.70000000E+00  1.70000000E+00
  1.70000000E+00  1.30000000E+00  1.30000000E+00  1.30000000E+00  1.30000000E+00
  1.30000000E+00  1.30000000E+00  1.50000000E+00  1.70000000E+00  1.70000000E+00
  1.70000000E+00  1.30000000E+00  1.30000000E+00  1.30000000E+00  1.30000000E+00
  1.30000000E+00  1.30000000E+00  1.50000000E+00  1.70000000E+00  1.70000000E+00
  1.70000000E+00  1.30000000E+00  1.30000000E+00  1.30000000E+00  1.30000000E+00
  1.30000000E+00  1.30000000E+00  1.50000000E+00  1.70000000E+00  1.70000000E+00
  1.70000000E+00  1.30000000E+00  1.30000000E+00  1.30000000E+00  1.30000000E+00
  1.30000000E+00  1.30000000E+00  1.50000000E+00  1.70000000E+00  1.70000000E+00
  1.70000000E+00  1.30000000E+00  1.30000000E+00  1.30000000E+00  1.30000000E+00
  1.30000000E+00  1.30000000E+00  1.50000000E+00  1.70000000E+00  1.70000000E+00
  1.70000000E+00  1.30000000E+00  1.30000000E+00  1.30000000E+00  1.30000000E+00
  1.30000000E+00  1.30000000E+00  1.50000000E+00  1.70000000E+00  1.70000000E+00
  1.70000000E+00  1.30000000E+00  1.30000000E+00  1.30000000E+00  1.30000000E+00
  1.30000000E+00  1.30000000E+00  1.50000000E+00  1.70000000E+00  1.70000000E+00
  1.70000000E+00  1.30000000E+00  1.30000000E+00  1.30000000E+00  1.30000000E+00
  1.30000000E+00  1.30000000E+00  1.50000000E+00  1.70000000E+00  1.70000000E+00
  1.70000000E+00  1.30000000E+00  1.30000000E+00  1.30000000E+00  1.30000000E+00
  1.30000000E+00  1.30000000E+00  1.50000000E+00  1.70000000E+00  1.70000000E+00
  1.70000000E+00  1.30000000E+00  1.30000000E+00  1.30000000E+00  1.30000000E+00
  1.30000000E+00  1.30000000E+00  1.50000000E+00  1.70000000E+00  1.70000000E+00
  1.70000000E+00  1.30000000E+00  1.30000000E+00  1.30000000E+00  1.30000000E+00
  1.30000000E+00  1.30000000E+00  1.50000000E+00  1.70000000E+00  1.70000000E+00
  1.70000000E+00  1.30000000E+00  1.30000000E+00  1.30000000E+00  1.30000000E+00
  1.30000000E+00  1.30000000E+00  1.50000000E+00  1.70000000E+00  1.70000000E+00
  1.70000000E+00  1.30000000E+00  1.30000000E+00  1.30000000E+00  1.30000000E+00
  1.30000000E+00  1.30000000E+00  1.50000000E+00  1.70000000E+00  1.70000000E+00
  1.70000000E+00  1.30000000E+00  1.30000000E+00  1.30000000E+00  1.30000000E+00
  1.30000000E+00  1.30000000E+00  1.50000000E+00  1.70000000E+00  1.70000000E+00
  1.70000000E+00  1.30000000E+00  1.30000000E+00  1.30000000E+00  1.30000000E+00
  1.30000000E+00  1.30000000E+00  1.50000000E+00  1.70000000E+00  1.70000000E+00
  1.70000000E+00  1.30000000E+00  1.30000000E+00  1.30000000E+00  1.30000000E+00
  1.30000000E+00  1.30000000E+00  1.50000000E+00  1.70000000E+00  1.70000000E+00
  1.70000000E+00  1.30000000E+00  1.30000000E+00  1.30000000E+00  1.30000000E+00
  1.30000000E+00  1.30000000E+00  1.50000000E+00  1.70000000E+00  1.70000000E+00
  1.70000000E+00  1.30000000E+00  1.30000000E+00  1.30000000E+00  1.30000000E+00
  1.30000000E+00  1.30000000E+00  1.50000000E+00  1.70000000E+00  1.70000000E+00
  1.70000000E+00  1.30000000E+00  1.30000000E+00  1.30000000E+00  1.30000000E+00
  1.30000000E+00  1.30000000E+00  1.50000000E+00  1.70000000E+00  1.70000000E+00
  1.70000000E+00  1.30000000E+00  1.30000000E+00  1.30000000E+00  1.30000000E+00
  1.30000000E+00  1.30000000E+00  1.50000000E+00  1.70000000E+00  1.70000000E+00
  1.70000000E+00  1.30000000E+00  1.30000000E+00  1.30000000E+00  1.30000000E+00
  1.30000000E+00  1.30000000E+00  1.50000000E+00  1.70000000E+00  1.70000000E+00
  1.70000000E+00  1.30000000E+00  1.30000000E+00  1.30000000E+00  1.30000000E+00
  1.30000000E+00  1.30000000E+00  1.50000000E+00  1.70000000E+00  1.70000000E+00
  1.70000000E+00  1.30000000E+00  1.30000000E+00  1.30000000E+00  1.30000000E+00
  1.30000000E+00  1.30000000E+00  1.50000000E+00  1.70000000E+00  1.70000000E+00
  1.70000000E+00  1.30000000E+00  1.30000000E+00  1.30000000E+00  1.30000000E+00
  1.30000000E+00  1.30000000E+00  1.50000000E+00  1.70000000E+00  1.70000000E+00
  1.70000000E+00  1.30000000E+00  1.30000000E+00  1.30000000E+00  1.30000000E+00
  1.30000000E+00  1.30000000E+00  1.50000000E+00  1.70000000E+00  1.70000000E+00
  1.70000000E+00  1.30000000E+00  1.30000000E+00  1.30000000E+00  1.30000000E+00
  1.30000000E+00  1.30000000E+00  1.50000000E+00  1.70000000E+00  1.70000000E+00
  1.70000000E+00  1.30000000E+00  1.30000000E+00  1.30000000E+00  1.30000000E+00
  1.30000000E+00  1.30000000E+00  1.50000000E+00  1.70000000E+00  1.70000000E+00
  1.70000000E+00  1.30000000E+00  1.30000000E+00  1.30000000E+00  1.30000000E+00
  1.30000000E+00  1.30000000E+00  1.50000000E+00  1.70000000E+00  1.70000000E+00
  1.70000000E+00  1.30000000E+00  1.30000000E+00  1.30000000E+00  1.30000000E+00
  1.30000000E+00  1.30000000E+00  1.50000000E+00  1.70000000E+00  1.70000000E+00
  1.70000000E+00  1.30000000E+00  1.30000000E+00  1.30000000E+00  1.30000000E+00
  1.30000000E+00  1.30000000E+00  1.50000000E+00  1.70000000E+00  1.70000000E+00
  1.70000000E+00  1.30000000E+00  1.30000000E+00  1.30000000E+00  1.30000000E+00
  1.30000000E+00  1.30000000E+00  1.50000000E+00  1.70000000E+00  1.70000000E+00
  1.70000000E+00  1.30000000E+00  1.30000000E+00  1.30000000E+00  1.30000000E+00
  1.30000000E+00  1.30000000E+00  1.50000000E+00  1.70000000E+00  1.70000000E+00
  1.70000000E+00  1.30000000E+00  1.30000000E+00  1.30000000E+00  1.30000000E+00
  1.30000000E+00  1.30000000E+00  1.50000000E+00  1.70000000E+00  1.70000000E+00
  1.70000000E+00  1.30000000E+00  1.30000000E+00  1.30000000E+00  1.30000000E+00
  1.30000000E+00  1.30000000E+00  1.50000000E+00  1.70000000E+00  1.70000000E+00
  1.70000000E+00  1.30000000E+00  1.30000000E+00  1.30000000E+00  1.30000000E+00
  1.30000000E+00  1.30000000E+00  1.50000000E+00  1.70000000E+00  1.70000000E+00
  1.70000000E+00  1.30000000E+00  1.30000000E+00  1.30000000E+00  1.30000000E+00
  1.30000000E+00  1.30000000E+00  1.50000000E+00  1.70000000E+00  1.70000000E+00
  1.70000000E+00  1.30000000E+00  1.30000000E+00  1.30000000E+00  1.30000000E+00
  1.30000000E+00  1.30000000E+00  1.50000000E+00  1.70000000E+00  1.70000000E+00
  1.70000000E+00  1.30000000E+00  1.30000000E+00  1.30000000E+00  1.30000000E+00
  1.30000000E+00  1.30000000E+00  1.50000000E+00  1.70000000E+00  1.70000000E+00
  1.70000000E+00  1.30000000E+00  1.30000000E+00  1.30000000E+00  1.30000000E+00
  1.30000000E+00  1.30000000E+00  1.50000000E+00  1.70000000E+00  1.70000000E+00
  1.70000000E+00  1.30000000E+00  1.30000000E+00  1.30000000E+00  1.30000000E+00
  1.30000000E+00  1.30000000E+00  1.50000000E+00  1.70000000E+00  1.70000000E+00
  1.70000000E+00  1.30000000E+00  1.30000000E+00  1.30000000E+00  1.30000000E+00
  1.30000000E+00  1.30000000E+00  1.50000000E+00  1.70000000E+00  1.70000000E+00
  1.70000000E+00  1.30000000E+00  1.30000000E+00  1.30000000E+00  1.30000000E+00
  1.30000000E+00  1.30000000E+00  1.50000000E+00  1.70000000E+00  1.70000000E+00
  1.70000000E+00  1.30000000E+00  1.30000000E+00  1.30000000E+00  1.30000000E+00
  1.30000000E+00  1.30000000E+00  1.50000000E+00  1.70000000E+00  1.70000000E+00
  1.70000000E+00  1.30000000E+00  1.30000000E+00  1.30000000E+00  1.30000000E+00
  1.30000000E+00  1.30000000E+00  1.50000000E+00  1.70000000E+00  1.70000000E+00
  1.70000000E+00  1.30000000E+00  1.30000000E+00  1.30000000E+00  1.30000000E+00
  1.30000000E+00  1.30000000E+00  1.50000000E+00  1.70000000E+00  1.70000000E+00
  1.70000000E+00  1.30000000E+00  1.30000000E+00  1.30000000E+00  1.30000000E+00
  1.30000000E+00  1.30000000E+00  1.50000000E+00  1.70000000E+00  1.70000000E+00
  1.70000000E+00  1.30000000E+00  1.30000000E+00  1.30000000E+00  1.30000000E+00
  1.30000000E+00  1.30000000E+00  1.50000000E+00  1.70000000E+00  1.70000000E+00
  1.70000000E+00  1.30000000E+00  1.30000000E+00  1.30000000E+00  1.30000000E+00
  1.30000000E+00  1.30000000E+00  1.50000000E+00  1.70000000E+00  1.70000000E+00
  1.70000000E+00  1.30000000E+00  1.30000000E+00  1.30000000E+00  1.30000000E+00
  1.30000000E+00  1.30000000E+00  1.50000000E+00  1.70000000E+00  1.70000000E+00
  1.70000000E+00  1.30000000E+00  1.30000000E+00  1.30000000E+00  1.30000000E+00
  1.30000000E+00  1.30000000E+00  1.50000000E+00  1.70000000E+00  1.70000000E+00
  1.70000000E+00  1.30000000E+00  1.30000000E+00  1.30000000E+00  1.30000000E+00
  1.30000000E+00  1.30000000E+00  1.50000000E+00  1.70000000E+00  1.70000000E+00
  1.70000000E+00  1.30000000E+00  1.30000000E+00  1.30000000E+00  1.30000000E+00
  1.30000000E+00  1.30000000E+00  1.50000000E+00  1.70000000E+00  1.70000000E+00
  1.70000000E+00  1.30000000E+00  1.30000000E+00  1.30000000E+00  1.30000000E+00
  1.30000000E+00  1.30000000E+00  1.50000000E+00  1.70000000E+00  1.70000000E+00
  1.70000000E+00  1.30000000E+00  1.30000000E+00  1.30000000E+00  1.30000000E+00
  1.30000000E+00  1.30000000E+00  1.50000000E+00  1.70000000E+00  1.70000000E+00
  1.70000000E+00  1.30000000E+00  1.30000000E+00  1.30000000E+00  1.30000000E+00
  1.30000000E+00  1.30000000E+00  1.50000000E+00  1.70000000E+00  1.70000000E+00
  1.70000000E+00  1.30000000E+00  1.30000000E+00  1.30000000E+00  1.30000000E+00
  1.30000000E+00  1.30000000E+00  1.50000000E+00  1.70000000E+00  1.70000000E+00
  1.70000000E+00  1.30000000E+00  1.30000000E+00  1.30000000E+00  1.30000000E+00
  1.30000000E+00  1.30000000E+00  1.50000000E+00  1.70000000E+00  1.70000000E+00
  1.70000000E+00  1.30000000E+00  1.30000000E+00  1.30000000E+00  1.30000000E+00
  1.30000000E+00  1.30000000E+00  1.50000000E+00  1.70000000E+00  1.70000000E+00
  1.70000000E+00  1.30000000E+00  1.30000000E+00  1.30000000E+00  1.30000000E+00
  1.30000000E+00  1.30000000E+00  1.50000000E+00  1.70000000E+00  1.70000000E+00
  1.70000000E+00  1.30000000E+00  1.30000000E+00  1.30000000E+00  1.30000000E+00
  1.30000000E+00  1.30000000E+00  1.50000000E+00  1.70000000E+00  1.70000000E+00
  1.70000000E+00  1.30000000E+00  1.30000000E+00  1.30000000E+00  1.30000000E+00
  1.30000000E+00  1.30000000E+00  1.50000000E+00  1.70000000E+00  1.70000000E+00
  1.70000000E+00  1.30000000E+00  1.30000000E+00  1.30000000E+00  1.30000000E+00
  1.30000000E+00  1.30000000E+00  1.50000000E+00  1.70000000E+00  1.70000000E+00
  1.70000000E+00  1.30000000E+00  1.30000000E+00  1.30000000E+00  1.30000000E+00
  1.30000000E+00  1.30000000E+00  1.50000000E+00  1.70000000E+00  1.70000000E+00
  1.70000000E+00  1.30000000E+00  1.30000000E+00  1.30000000E+00  1.30000000E+00
  1.30000000E+00  1.30000000E+00  1.50000000E+00  1.70000000E+00  1.70000000E+00
  1.70000000E+00  1.30000000E+00  1.30000000E+00  1.30000000E+00  1.30000000E+00
  1.30000000E+00  1.30000000E+00  1.50000000E+00  1.70000000E+00  1.70000000E+00
  1.70000000E+00  1.30000000E+00  1.30000000E+00  1.30000000E+00  1.30000000E+00
  1.30000000E+00  1.30000000E+00  1.50000000E+00  1.70000000E+00  1.70000000E+00
  1.70000000E+00  1.30000000E+00  1.30000000E+00  1.30000000E+00  1.30000000E+00
  1.30000000E+00  1.30000000E+00  1.50000000E+00  1.70000000E+00  1.70000000E+00
  1.70000000E+00  1.30000000E+00  1.30000000E+00  1.30000000E+00  1.30000000E+00
  1.30000000E+00  1.30000000E+00  1.50000000E+00  1.70000000E+00  1.70000000E+00
  1.70000000E+00  1.30000000E+00  1.30000000E+00  1.30000000E+00  1.30000000E+00
  1.30000000E+00  1.30000000E+00  1.50000000E+00  1.70000000E+00  1.70000000E+00
  1.70000000E+00  1.30000000E+00  1.30000000E+00  1.30000000E+00  1.30000000E+00
  1.30000000E+00  1.30000000E+00  1.50000000E+00  1.70000000E+00  1.70000000E+00
  1.70000000E+00  1.30000000E+00  1.30000000E+00  1.30000000E+00  1.30000000E+00
  1.30000000E+00  1.30000000E+00  1.50000000E+00  1.70000000E+00  1.70000000E+00
  1.70000000E+00  1.30000000E+00  1.30000000E+00  1.30000000E+00  1.30000000E+00
  1.30000000E+00  1.30000000E+00  1.50000000E+00  1.70000000E+00  1.70000000E+00
  1.70000000E+00  1.30000000E+00  1.30000000E+00  1.30000000E+00  1.30000000E+00
  1.30000000E+00  1.30000000E+00  1.50000000E+00  1.70000000E+00  1.70000000E+00
  1.70000000E+00  1.30000000E+00  1.30000000E+00  1.30000000E+00  1.30000000E+00
  1.30000000E+00  1.30000000E+00  1.50000000E+00  1.70000000E+00  1.70000000E+00
  1.70000000E+00  1.30000000E+00  1.30000000E+00  1.30000000E+00  1.30000000E+00
  1.30000000E+00  1.30000000E+00  1.50000000E+00  1.70000000E+00  1.70000000E+00
  1.70000000E+00  1.30000000E+00  1.30000000E+00  1.30000000E+00  1.30000000E+00
  1.30000000E+00  1.30000000E+00  1.50000000E+00  1.70000000E+00  1.70000000E+00
  1.70000000E+00  1.30000000E+00  1.30000000E+00  1.30000000E+00  1.30000000E+00
  1.30000000E+00  1.30000000E+00  1.50000000E+00  1.70000000E+00  1.70000000E+00
  1.70000000E+00  1.30000000E+00  1.30000000E+00  1.30000000E+00  1.30000000E+00
  1.30000000E+00  1.30000000E+00  1.50000000E+00  1.70000000E+00  1.70000000E+00
  1.70000000E+00  1.30000000E+00  1.30000000E+00  1.30000000E+00  1.30000000E+00
  1.30000000E+00  1.30000000E+00  1.50000000E+00  1.70000000E+00  1.70000000E+00
  1.70000000E+00  1.30000000E+00  1.30000000E+00  1.30000000E+00  1.30000000E+00
  1.30000000E+00  1.30000000E+00  1.50000000E+00  1.70000000E+00  1.70000000E+00
  1.70000000E+00  1.30000000E+00  1.30000000E+00  1.30000000E+00  1.30000000E+00
  1.30000000E+00  1.30000000E+00  1.50000000E+00  1.70000000E+00  1.70000000E+00
  1.70000000E+00  1.30000000E+00  1.30000000E+00  1.30000000E+00  1.30000000E+00
  1.30000000E+00  1.30000000E+00  1.50000000E+00  1.70000000E+00  1.70000000E+00
  1.70000000E+00  1.30000000E+00  1.30000000E+00  1.30000000E+00  1.30000000E+00
  1.30000000E+00  1.30000000E+00  1.50000000E+00  1.70000000E+00  1.70000000E+00
  1.70000000E+00  1.30000000E+00  1.30000000E+00  1.30000000E+00  1.30000000E+00
  1.30000000E+00  1.30000000E+00  1.50000000E+00  1.70000000E+00  1.70000000E+00
  1.70000000E+00  1.30000000E+00  1.30000000E+00  1.30000000E+00  1.30000000E+00
  1.30000000E+00  1.30000000E+00  1.50000000E+00  1.70000000E+00  1.70000000E+00
  1.70000000E+00  1.30000000E+00  1.30000000E+00  1.30000000E+00  1.30000000E+00
  1.30000000E+00  1.30000000E+00  1.50000000E+00  1.70000000E+00  1.70000000E+00
  1.70000000E+00  1.30000000E+00  1.30000000E+00  1.30000000E+00  1.30000000E+00
  1.30000000E+00  1.30000000E+00  1.50000000E+00  1.70000000E+00  1.70000000E+00
  1.70000000E+00  1.30000000E+00  1.30000000E+00  1.30000000E+00  1.30000000E+00
  1.30000000E+00  1.30000000E+00  1.50000000E+00  1.70000000E+00  1.70000000E+00
  1.70000000E+00  1.30000000E+00  1.30000000E+00  1.30000000E+00  1.30000000E+00
  1.30000000E+00  1.30000000E+00  1.50000000E+00  1.70000000E+00  1.70000000E+00
  1.70000000E+00  1.30000000E+00  1.30000000E+00  1.30000000E+00  1.30000000E+00
  1.30000000E+00  1.30000000E+00  1.50000000E+00  1.70000000E+00  1.70000000E+00
  1.70000000E+00  1.30000000E+00  1.30000000E+00  1.30000000E+00  1.30000000E+00
  1.30000000E+00  1.30000000E+00  1.50000000E+00  1.70000000E+00  1.70000000E+00
  1.70000000E+00  1.30000000E+00  1.30000000E+00  1.30000000E+00  1.30000000E+00
  1.30000000E+00  1.30000000E+00  1.50000000E+00  1.70000000E+00  1.70000000E+00
  1.70000000E+00  1.30000000E+00  1.30000000E+00  1.30000000E+00  1.30000000E+00
  1.30000000E+00  1.30000000E+00  1.50000000E+00  1.70000000E+00  1.70000000E+00
  1.70000000E+00  1.30000000E+00  1.30000000E+00  1.30000000E+00  1.30000000E+00
  1.30000000E+00  1.30000000E+00  1.50000000E+00  1.70000000E+00  1.70000000E+00
  1.70000000E+00  1.30000000E+00  1.30000000E+00  1.30000000E+00  1.30000000E+00
  1.30000000E+00  1.30000000E+00  1.50000000E+00  1.70000000E+00  1.70000000E+00
  1.70000000E+00  1.30000000E+00  1.30000000E+00  1.30000000E+00  1.30000000E+00
  1.30000000E+00  1.30000000E+00  1.50000000E+00  1.70000000E+00  1.70000000E+00
  1.70000000E+00  1.30000000E+00  1.30000000E+00  1.30000000E+00  1.30000000E+00
  1.30000000E+00  1.30000000E+00  1.50000000E+00  1.70000000E+00  1.70000000E+00
  1.70000000E+00  1.30000000E+00  1.30000000E+00  1.30000000E+00  1.30000000E+00
  1.30000000E+00  1.30000000E+00  1.50000000E+00  1.70000000E+00  1.70000000E+00
  1.70000000E+00  1.30000000E+00  1.30000000E+00  1.30000000E+00  1.30000000E+00
  1.30000000E+00  1.30000000E+00  1.50000000E+00  1.70000000E+00  1.70000000E+00
  1.70000000E+00  1.30000000E+00  1.30000000E+00  1.30000000E+00  1.30000000E+00
  1.30000000E+00  1.30000000E+00  1.50000000E+00  1.70000000E+00  1.70000000E+00
  1.70000000E+00  1.30000000E+00  1.30000000E+00  1.30000000E+00  1.30000000E+00
  1.30000000E+00  1.30000000E+00  1.50000000E+00  1.70000000E+00  1.70000000E+00
  1.70000000E+00  1.30000000E+00  1.30000000E+00  1.30000000E+00  1.30000000E+00
  1.30000000E+00  1.30000000E+00  1.50000000E+00  1.70000000E+00  1.70000000E+00
  1.70000000E+00  1.30000000E+00  1.30000000E+00  1.30000000E+00  1.30000000E+00
  1.30000000E+00  1.30000000E+00  1.50000000E+00  1.70000000E+00  1.70000000E+00
  1.70000000E+00  1.30000000E+00  1.30000000E+00  1.30000000E+00  1.30000000E+00
  1.30000000E+00  1.30000000E+00  1.50000000E+00  1.70000000E+00  1.70000000E+00
  1.70000000E+00  1.30000000E+00  1.30000000E+00  1.30000000E+00  1.30000000E+00
  1.30000000E+00  1.30000000E+00  1.50000000E+00  1.70000000E+00  1.70000000E+00
  1.70000000E+00  1.30000000E+00  1.30000000E+00  1.30000000E+00  1.30000000E+00
  1.30000000E+00  1.30000000E+00  1.50000000E+00  1.70000000E+00  1.70000000E+00
  1.70000000E+00  1.30000000E+00  1.30000000E+00  1.30000000E+00  1.30000000E+00
  1.30000000E+00  1.30000000E+00  1.50000000E+00  1.70000000E+00  1.70000000E+00
  1.70000000E+00  1.30000000E+00  1.30000000E+00  1.30000000E+00  1.30000000E+00
  1.30000000E+00  1.30000000E+00  1.50000000E+00  1.70000000E+00  1.70000000E+00
  1.70000000E+00  1.30000000E+00  1.30000000E+00  1.30000000E+00  1.30000000E+00
  1.30000000E+00  1.30000000E+00  1.50000000E+00  1.70000000E+00  1.70000000E+00
  1.70000000E+00  1.30000000E+00  1.30000000E+00  1.30000000E+00  1.30000000E+00
  1.30000000E+00  1.30000000E+00  1.50000000E+00  1.70000000E+00  1.70000000E+00
  1.70000000E+00  1.30000000E+00  1.30000000E+00  1.30000000E+00  1.30000000E+00
  1.30000000E+00  1.30000000E+00  1.50000000E+00  1.70000000E+00  1.70000000E+00
  1.70000000E+00  1.30000000E+00  1.30000000E+00  1.30000000E+00  1.30000000E+00
  1.30000000E+00  1.30000000E+00  1.50000000E+00  1.70000000E+00  1.70000000E+00
  1.70000000E+00  1.30000000E+00  1.30000000E+00  1.30000000E+00  1.30000000E+00
  1.30000000E+00  1.30000000E+00  1.50000000E+00  1.70000000E+00  1.70000000E+00
  1.70000000E+00  1.30000000E+00  1.30000000E+00  1.30000000E+00  1.30000000E+00
  1.30000000E+00  1.30000000E+00  1.50000000E+00  1.70000000E+00  1.70000000E+00
  1.70000000E+00  1.30000000E+00  1.30000000E+00  1.30000000E+00  1.30000000E+00
  1.30000000E+00  1.30000000E+00  1.50000000E+00  1.70000000E+00  1.70000000E+00
  1.70000000E+00  1.30000000E+00  1.30000000E+00  1.30000000E+00  1.30000000E+00
  1.30000000E+00  1.30000000E+00  1.50000000E+00  1.70000000E+00  1.70000000E+00
  1.70000000E+00  1.30000000E+00  1.30000000E+00  1.30000000E+00  1.30000000E+00
  1.30000000E+00  1.30000000E+00  1.50000000E+00  1.70000000E+00  1.70000000E+00
  1.70000000E+00  1.30000000E+00  1.30000000E+00  1.30000000E+00  1.30000000E+00
  1.30000000E+00  1.30000000E+00  1.50000000E+00  1.70000000E+00  1.70000000E+00
  1.70000000E+00  1.30000000E+00  1.30000000E+00  1.30000000E+00  1.30000000E+00
  1.30000000E+00  1.30000000E+00  1.50000000E+00  1.70000000E+00  1.70000000E+00
  1.70000000E+00  1.30000000E+00  1.30000000E+00  1.30000000E+00  1.30000000E+00
  1.30000000E+00  1.30000000E+00  1.50000000E+00  1.70000000E+00  1.70000000E+00
  1.70000000E+00  1.30000000E+00  1.30000000E+00  1.30000000E+00  1.30000000E+00
  1.30000000E+00  1.30000000E+00  1.50000000E+00  1.70000000E+00  1.70000000E+00
  1.70000000E+00  1.30000000E+00  1.30000000E+00  1.30000000E+00  1.30000000E+00
  1.30000000E+00  1.30000000E+00  1.50000000E+00  1.70000000E+00  1.70000000E+00
  1.70000000E+00  1.30000000E+00  1.30000000E+00  1.30000000E+00  1.30000000E+00
  1.30000000E+00  1.30000000E+00  1.50000000E+00  1.70000000E+00  1.70000000E+00
  1.70000000E+00  1.30000000E+00  1.30000000E+00  1.30000000E+00  1.30000000E+00
  1.30000000E+00  1.30000000E+00  1.50000000E+00  1.70000000E+00  1.70000000E+00
  1.70000000E+00  1.30000000E+00  1.30000000E+00  1.30000000E+00  1.30000000E+00
  1.30000000E+00  1.30000000E+00  1.50000000E+00  1.70000000E+00  1.70000000E+00
  1.70000000E+00  1.30000000E+00  1.30000000E+00  1.30000000E+00  1.30000000E+00
  1.30000000E+00  1.30000000E+00  1.50000000E+00  1.70000000E+00  1.70000000E+00
  1.70000000E+00  1.30000000E+00  1.30000000E+00  1.30000000E+00  1.30000000E+00
  1.30000000E+00  1.30000000E+00  1.50000000E+00  1.70000000E+00  1.70000000E+00
  1.70000000E+00  1.30000000E+00  1.30000000E+00  1.30000000E+00  1.30000000E+00
  1.30000000E+00  1.30000000E+00  1.50000000E+00  1.70000000E+00  1.70000000E+00
  1.70000000E+00  1.30000000E+00  1.30000000E+00  1.30000000E+00  1.30000000E+00
  1.30000000E+00  1.30000000E+00  1.50000000E+00  1.70000000E+00  1.70000000E+00
  1.70000000E+00  1.30000000E+00  1.30000000E+00  1.30000000E+00  1.30000000E+00
  1.30000000E+00  1.30000000E+00  1.50000000E+00  1.70000000E+00  1.70000000E+00
  1.70000000E+00  1.30000000E+00  1.30000000E+00  1.30000000E+00  1.30000000E+00
  1.30000000E+00  1.30000000E+00  1.50000000E+00  1.70000000E+00  1.70000000E+00
  1.70000000E+00  1.30000000E+00  1.30000000E+00  1.30000000E+00  1.30000000E+00
  1.30000000E+00  1.30000000E+00  1.50000000E+00  1.70000000E+00  1.70000000E+00
  1.70000000E+00  1.30000000E+00  1.30000000E+00  1.30000000E+00  1.30000000E+00
  1.30000000E+00  1.30000000E+00  1.50000000E+00  1.70000000E+00  1.70000000E+00
  1.70000000E+00  1.30000000E+00  1.30000000E+00  1.30000000E+00  1.30000000E+00
  1.30000000E+00  1.30000000E+00  1.50000000E+00  1.70000000E+00  1.70000000E+00
  1.70000000E+00  1.30000000E+00  1.30000000E+00  1.30000000E+00  1.30000000E+00
  1.30000000E+00  1.30000000E+00  1.50000000E+00  1.70000000E+00  1.70000000E+00
  1.70000000E+00  1.30000000E+00  1.30000000E+00  1.30000000E+00  1.30000000E+00
  1.30000000E+00  1.30000000E+00  1.50000000E+00  1.70000000E+00  1.70000000E+00
  1.70000000E+00  1.30000000E+00  1.30000000E+00  1.30000000E+00  1.30000000E+00
  1.30000000E+00  1.30000000E+00  1.50000000E+00  1.70000000E+00  1.70000000E+00
  1.70000000E+00  1.30000000E+00  1.30000000E+00  1.30000000E+00  1.30000000E+00
  1.30000000E+00  1.30000000E+00  1.50000000E+00  1.70000000E+00  1.70000000E+00
  1.70000000E+00  1.30000000E+00  1.30000000E+00  1.30000000E+00  1.30000000E+00
  1.30000000E+00  1.30000000E+00  1.50000000E+00  1.70000000E+00  1.70000000E+00
  1.70000000E+00  1.30000000E+00  1.30000000E+00  1.30000000E+00  1.30000000E+00
  1.30000000E+00  1.30000000E+00  1.50000000E+00  1.70000000E+00  1.70000000E+00
  1.70000000E+00  1.30000000E+00  1.30000000E+00  1.30000000E+00  1.30000000E+00
  1.30000000E+00  1.30000000E+00  1.50000000E+00  1.70000000E+00  1.70000000E+00
  1.70000000E+00  1.30000000E+00  1.30000000E+00  1.30000000E+00  1.30000000E+00
  1.30000000E+00  1.30000000E+00  1.50000000E+00  1.70000000E+00  1.70000000E+00
  1.70000000E+00  1.30000000E+00  1.30000000E+00  1.30000000E+00  1.30000000E+00
  1.30000000E+00  1.30000000E+00  1.50000000E+00  1.70000000E+00  1.70000000E+00
  1.70000000E+00  1.30000000E+00  1.30000000E+00  1.30000000E+00  1.30000000E+00
  1.30000000E+00  1.30000000E+00  1.50000000E+00  1.70000000E+00  1.70000000E+00
  1.70000000E+00  1.30000000E+00  1.30000000E+00  1.30000000E+00  1.30000000E+00
  1.30000000E+00  1.30000000E+00  1.50000000E+00  1.70000000E+00  1.70000000E+00
  1.70000000E+00  1.30000000E+00  1.30000000E+00  1.30000000E+00  1.30000000E+00
  1.30000000E+00  1.30000000E+00  1.50000000E+00  1.70000000E+00  1.70000000E+00
  1.70000000E+00  1.30000000E+00  1.30000000E+00  1.30000000E+00  1.30000000E+00
  1.30000000E+00  1.30000000E+00  1.50000000E+00  1.70000000E+00  1.70000000E+00
  1.70000000E+00  1.30000000E+00  1.30000000E+00  1.30000000E+00  1.30000000E+00
  1.30000000E+00  1.30000000E+00  1.50000000E+00  1.70000000E+00  1.70000000E+00
  1.70000000E+00  1.30000000E+00  1.30000000E+00  1.30000000E+00  1.30000000E+00
  1.30000000E+00  1.30000000E+00  1.50000000E+00  1.70000000E+00  1.70000000E+00
  1.70000000E+00  1.30000000E+00  1.30000000E+00  1.30000000E+00  1.30000000E+00
  1.30000000E+00  1.30000000E+00  1.50000000E+00  1.70000000E+00  1.70000000E+00
  1.70000000E+00  1.30000000E+00  1.30000000E+00  1.30000000E+00  1.30000000E+00
  1.30000000E+00  1.30000000E+00  1.50000000E+00  1.70000000E+00  1.70000000E+00
  1.70000000E+00  1.30000000E+00  1.30000000E+00  1.30000000E+00  1.30000000E+00
  1.30000000E+00  1.30000000E+00  1.50000000E+00  1.70000000E+00  1.70000000E+00
  1.70000000E+00  1.30000000E+00  1.30000000E+00  1.30000000E+00  1.30000000E+00
  1.30000000E+00  1.30000000E+00  1.50000000E+00  1.70000000E+00  1.70000000E+00
  1.70000000E+00  1.30000000E+00  1.30000000E+00  1.30000000E+00  1.30000000E+00
  1.30000000E+00  1.30000000E+00  1.50000000E+00  1.70000000E+00  1.70000000E+00
  1.70000000E+00  1.30000000E+00  1.30000000E+00  1.30000000E+00  1.30000000E+00
  1.30000000E+00  1.30000000E+00  1.50000000E+00  1.70000000E+00  1.70000000E+00
  1.70000000E+00  1.30000000E+00  1.30000000E+00  1.30000000E+00  1.30000000E+00
  1.30000000E+00  1.30000000E+00  1.50000000E+00  1.70000000E+00  1.70000000E+00
  1.70000000E+00  1.30000000E+00  1.30000000E+00  1.30000000E+00  1.30000000E+00
  1.30000000E+00  1.30000000E+00  1.50000000E+00  1.70000000E+00  1.70000000E+00
  1.70000000E+00  1.30000000E+00  1.30000000E+00  1.30000000E+00  1.30000000E+00
  1.30000000E+00  1.30000000E+00  1.50000000E+00  1.70000000E+00  1.70000000E+00
  1.70000000E+00  1.30000000E+00  1.30000000E+00  1.30000000E+00  1.30000000E+00
  1.30000000E+00  1.30000000E+00  1.50000000E+00  1.70000000E+00  1.70000000E+00
  1.70000000E+00  1.30000000E+00  1.30000000E+00  1.30000000E+00  1.30000000E+00
  1.30000000E+00  1.30000000E+00  1.50000000E+00  1.70000000E+00  1.70000000E+00
  1.70000000E+00  1.30000000E+00  1.30000000E+00  1.30000000E+00  1.30000000E+00
  1.30000000E+00  1.30000000E+00  1.50000000E+00  1.70000000E+00  1.70000000E+00
  1.70000000E+00  1.30000000E+00  1.30000000E+00  1.30000000E+00  1.30000000E+00
  1.30000000E+00  1.30000000E+00  1.50000000E+00  1.70000000E+00  1.70000000E+00
  1.70000000E+00  1.30000000E+00  1.30000000E+00  1.30000000E+00  1.30000000E+00
  1.30000000E+00  1.30000000E+00  1.50000000E+00  1.70000000E+00  1.70000000E+00
  1.70000000E+00  1.30000000E+00  1.30000000E+00  1.30000000E+00  1.30000000E+00
  1.30000000E+00  1.30000000E+00  1.50000000E+00  1.70000000E+00  1.70000000E+00
  1.70000000E+00  1.30000000E+00  1.30000000E+00  1.30000000E+00  1.30000000E+00
  1.30000000E+00  1.30000000E+00  1.50000000E+00  1.70000000E+00  1.70000000E+00
  1.70000000E+00  1.30000000E+00  1.30000000E+00  1.30000000E+00  1.30000000E+00
  1.30000000E+00  1.30000000E+00  1.50000000E+00  1.70000000E+00  1.70000000E+00
  1.70000000E+00  1.30000000E+00  1.30000000E+00  1.30000000E+00  1.30000000E+00
  1.30000000E+00  1.30000000E+00  1.50000000E+00  1.70000000E+00  1.70000000E+00
  1.70000000E+00  1.30000000E+00  1.30000000E+00  1.30000000E+00  1.30000000E+00
  1.30000000E+00  1.30000000E+00  1.50000000E+00  1.70000000E+00  1.70000000E+00
  1.70000000E+00  1.30000000E+00  1.30000000E+00  1.30000000E+00  1.30000000E+00
  1.30000000E+00  1.30000000E+00  1.50000000E+00  1.70000000E+00  1.70000000E+00
  1.70000000E+00  1.30000000E+00  1.30000000E+00  1.30000000E+00  1.30000000E+00
  1.30000000E+00  1.30000000E+00  1.50000000E+00  1.70000000E+00  1.70000000E+00
  1.70000000E+00  1.30000000E+00  1.30000000E+00  1.30000000E+00  1.30000000E+00
  1.30000000E+00  1.30000000E+00  1.50000000E+00  1.70000000E+00  1.70000000E+00
  1.70000000E+00  1.30000000E+00  1.30000000E+00  1.30000000E+00  1.30000000E+00
  1.30000000E+00  1.30000000E+00  1.50000000E+00  1.70000000E+00  1.70000000E+00
  1.70000000E+00  1.30000000E+00  1.30000000E+00  1.30000000E+00  1.30000000E+00
  1.30000000E+00  1.30000000E+00  1.50000000E+00  1.70000000E+00  1.70000000E+00
  1.70000000E+00  1.30000000E+00  1.30000000E+00  1.30000000E+00  1.30000000E+00
  1.30000000E+00  1.30000000E+00  1.50000000E+00  1.70000000E+00  1.70000000E+00
  1.70000000E+00  1.30000000E+00  1.30000000E+00  1.30000000E+00  1.30000000E+00
  1.30000000E+00  1.30000000E+00  1.50000000E+00  1.70000000E+00  1.70000000E+00
  1.70000000E+00  1.30000000E+00  1.30000000E+00  1.30000000E+00  1.30000000E+00
  1.30000000E+00  1.30000000E+00  1.50000000E+00  1.70000000E+00  1.70000000E+00
  1.70000000E+00  1.30000000E+00  1.30000000E+00  1.30000000E+00  1.30000000E+00
  1.30000000E+00  1.30000000E+00  1.50000000E+00  1.70000000E+00  1.70000000E+00
  1.70000000E+00  1.30000000E+00  1.30000000E+00  1.30000000E+00  1.30000000E+00
  1.30000000E+00  1.30000000E+00  1.50000000E+00  1.70000000E+00  1.70000000E+00
  1.70000000E+00  1.30000000E+00  1.30000000E+00  1.30000000E+00  1.30000000E+00
  1.30000000E+00  1.30000000E+00  1.50000000E+00  1.70000000E+00  1.70000000E+00
  1.70000000E+00  1.30000000E+00  1.30000000E+00  1.30000000E+00  1.30000000E+00
  1.30000000E+00  1.30000000E+00  1.50000000E+00  1.70000000E+00  1.70000000E+00
  1.70000000E+00  1.30000000E+00  1.30000000E+00  1.30000000E+00  1.30000000E+00
  1.30000000E+00  1.30000000E+00  1.50000000E+00  1.70000000E+00  1.70000000E+00
  1.70000000E+00  1.30000000E+00  1.30000000E+00  1.30000000E+00  1.30000000E+00
  1.30000000E+00  1.30000000E+00  1.50000000E+00  1.70000000E+00  1.70000000E+00
  1.70000000E+00  1.30000000E+00  1.30000000E+00  1.30000000E+00  1.30000000E+00
  1.30000000E+00  1.30000000E+00  1.50000000E+00  1.70000000E+00  1.70000000E+00
  1.70000000E+00  1.30000000E+00  1.30000000E+00  1.30000000E+00  1.30000000E+00
  1.30000000E+00  1.30000000E+00  1.50000000E+00  1.70000000E+00  1.70000000E+00
  1.70000000E+00  1.30000000E+00  1.30000000E+00  1.30000000E+00  1.30000000E+00
  1.30000000E+00  1.30000000E+00  1.50000000E+00  1.70000000E+00  1.70000000E+00
  1.70000000E+00  1.30000000E+00  1.30000000E+00  1.30000000E+00  1.30000000E+00
  1.30000000E+00  1.30000000E+00  1.50000000E+00  1.70000000E+00  1.70000000E+00
  1.70000000E+00  1.30000000E+00  1.30000000E+00  1.30000000E+00  1.30000000E+00
  1.30000000E+00  1.30000000E+00  1.50000000E+00  1.70000000E+00  1.70000000E+00
  1.70000000E+00  1.30000000E+00  1.30000000E+00  1.30000000E+00  1.30000000E+00
  1.30000000E+00  1.30000000E+00  1.50000000E+00  1.70000000E+00  1.70000000E+00
  1.70000000E+00  1.30000000E+00  1.30000000E+00  1.30000000E+00  1.30000000E+00
  1.30000000E+00  1.30000000E+00  1.50000000E+00  1.70000000E+00  1.70000000E+00
  1.70000000E+00  1.30000000E+00  1.30000000E+00  1.30000000E+00  1.30000000E+00
  1.30000000E+00  1.30000000E+00  1.50000000E+00  1.70000000E+00  1.70000000E+00
  1.70000000E+00  1.30000000E+00  1.30000000E+00  1.30000000E+00  1.30000000E+00
  1.30000000E+00  1.30000000E+00  1.50000000E+00  1.70000000E+00  1.70000000E+00
  1.70000000E+00  1.30000000E+00  1.30000000E+00  1.30000000E+00  1.30000000E+00
  1.30000000E+00  1.30000000E+00  1.50000000E+00  1.70000000E+00  1.70000000E+00
  1.70000000E+00  1.30000000E+00  1.30000000E+00  1.30000000E+00  1.30000000E+00
  1.30000000E+00  1.30000000E+00  1.50000000E+00  1.70000000E+00  1.70000000E+00
  1.70000000E+00  1.30000000E+00  1.30000000E+00  1.30000000E+00  1.30000000E+00
  1.30000000E+00  1.30000000E+00  1.50000000E+00  1.70000000E+00  1.70000000E+00
  1.70000000E+00  1.30000000E+00  1.30000000E+00  1.30000000E+00  1.30000000E+00
  1.30000000E+00  1.30000000E+00  1.50000000E+00  1.70000000E+00  1.70000000E+00
  1.70000000E+00  1.30000000E+00  1.30000000E+00  1.30000000E+00  1.30000000E+00
  1.30000000E+00  1.30000000E+00  1.50000000E+00  1.70000000E+00  1.70000000E+00
  1.70000000E+00  1.30000000E+00  1.30000000E+00  1.30000000E+00  1.30000000E+00
  1.30000000E+00  1.30000000E+00  1.50000000E+00  1.70000000E+00  1.70000000E+00
  1.70000000E+00  1.30000000E+00  1.30000000E+00  1.30000000E+00  1.30000000E+00
  1.30000000E+00  1.30000000E+00  1.50000000E+00  1.70000000E+00  1.70000000E+00
  1.70000000E+00  1.30000000E+00  1.30000000E+00  1.30000000E+00  1.30000000E+00
  1.30000000E+00  1.30000000E+00  1.50000000E+00  1.70000000E+00  1.70000000E+00
  1.70000000E+00  1.30000000E+00  1.30000000E+00  1.30000000E+00  1.30000000E+00
  1.30000000E+00  1.30000000E+00  1.50000000E+00  1.70000000E+00  1.70000000E+00
  1.70000000E+00  1.30000000E+00  1.30000000E+00  1.30000000E+00  1.30000000E+00
  1.30000000E+00  1.30000000E+00  1.50000000E+00  1.70000000E+00  1.70000000E+00
  1.70000000E+00  1.30000000E+00  1.30000000E+00  1.30000000E+00  1.30000000E+00
  1.30000000E+00  1.30000000E+00  1.50000000E+00  1.70000000E+00  1.70000000E+00
  1.70000000E+00  1.30000000E+00  1.30000000E+00  1.30000000E+00  1.30000000E+00
  1.30000000E+00  1.30000000E+00  1.50000000E+00  1.70000000E+00  1.70000000E+00
  1.70000000E+00  1.30000000E+00  1.30000000E+00  1.30000000E+00  1.30000000E+00
  1.30000000E+00  1.30000000E+00  1.50000000E+00  1.70000000E+00  1.70000000E+00
  1.70000000E+00  1.30000000E+00  1.30000000E+00  1.30000000E+00  1.30000000E+00
  1.30000000E+00  1.30000000E+00  1.50000000E+00  1.70000000E+00  1.70000000E+00
  1.70000000E+00  1.30000000E+00  1.30000000E+00  1.30000000E+00  1.30000000E+00
  1.30000000E+00  1.30000000E+00  1.50000000E+00  1.70000000E+00  1.70000000E+00
  1.70000000E+00  1.30000000E+00  1.30000000E+00  1.30000000E+00  1.30000000E+00
  1.30000000E+00  1.30000000E+00  1.50000000E+00  1.70000000E+00  1.70000000E+00
  1.70000000E+00  1.30000000E+00  1.30000000E+00  1.30000000E+00  1.30000000E+00
  1.30000000E+00  1.30000000E+00  1.50000000E+00  1.70000000E+00  1.70000000E+00
  1.70000000E+00  1.30000000E+00  1.30000000E+00  1.30000000E+00  1.30000000E+00
  1.30000000E+00  1.30000000E+00  1.50000000E+00  1.70000000E+00  1.70000000E+00
  1.70000000E+00  1.30000000E+00  1.30000000E+00  1.30000000E+00  1.30000000E+00
  1.30000000E+00  1.30000000E+00  1.50000000E+00  1.70000000E+00  1.70000000E+00
  1.70000000E+00  1.30000000E+00  1.30000000E+00  1.30000000E+00  1.30000000E+00
  1.30000000E+00  1.30000000E+00  1.50000000E+00  1.70000000E+00  1.70000000E+00
  1.70000000E+00  1.30000000E+00  1.30000000E+00  1.30000000E+00  1.30000000E+00
  1.30000000E+00  1.30000000E+00  1.50000000E+00  1.70000000E+00  1.70000000E+00
  1.70000000E+00  1.30000000E+00  1.30000000E+00  1.30000000E+00  1.30000000E+00
  1.30000000E+00  1.30000000E+00  1.50000000E+00  1.70000000E+00  1.70000000E+00
  1.70000000E+00  1.30000000E+00  1.30000000E+00  1.30000000E+00  1.30000000E+00
  1.30000000E+00  1.30000000E+00  1.50000000E+00  1.70000000E+00  1.70000000E+00
  1.70000000E+00  1.30000000E+00  1.30000000E+00  1.30000000E+00  1.30000000E+00
  1.30000000E+00  1.30000000E+00  1.50000000E+00  1.70000000E+00  1.70000000E+00
  1.70000000E+00  1.30000000E+00  1.30000000E+00  1.30000000E+00  1.30000000E+00
  1.30000000E+00  1.30000000E+00  1.50000000E+00  1.70000000E+00  1.70000000E+00
  1.70000000E+00  1.30000000E+00  1.30000000E+00  1.30000000E+00  1.30000000E+00
  1.30000000E+00  1.30000000E+00  1.50000000E+00  1.70000000E+00  1.70000000E+00
  1.70000000E+00  1.30000000E+00  1.30000000E+00  1.30000000E+00  1.30000000E+00
  1.30000000E+00  1.30000000E+00  1.50000000E+00  1.70000000E+00  1.70000000E+00
  1.70000000E+00  1.30000000E+00  1.30000000E+00  1.30000000E+00  1.30000000E+00
  1.30000000E+00  1.30000000E+00  1.50000000E+00  1.70000000E+00  1.70000000E+00
  1.70000000E+00  1.30000000E+00  1.30000000E+00  1.30000000E+00  1.30000000E+00
  1.30000000E+00  1.30000000E+00  1.50000000E+00  1.70000000E+00  1.70000000E+00
  1.70000000E+00  1.30000000E+00  1.30000000E+00  1.30000000E+00  1.30000000E+00
  1.30000000E+00  1.30000000E+00  1.50000000E+00  1.70000000E+00  1.70000000E+00
  1.70000000E+00  1.30000000E+00  1.30000000E+00  1.30000000E+00  1.30000000E+00
  1.30000000E+00  1.30000000E+00  1.50000000E+00  1.70000000E+00  1.70000000E+00
  1.70000000E+00  1.30000000E+00  1.30000000E+00  1.30000000E+00  1.30000000E+00
  1.30000000E+00  1.30000000E+00  1.50000000E+00  1.70000000E+00  1.70000000E+00
  1.70000000E+00  1.30000000E+00  1.30000000E+00  1.30000000E+00  1.30000000E+00
  1.30000000E+00  1.30000000E+00  1.50000000E+00  1.70000000E+00  1.70000000E+00
  1.70000000E+00  1.30000000E+00  1.30000000E+00  1.30000000E+00  1.30000000E+00
  1.30000000E+00  1.30000000E+00  1.50000000E+00  1.70000000E+00  1.70000000E+00
  1.70000000E+00  1.30000000E+00  1.30000000E+00  1.30000000E+00  1.30000000E+00
  1.30000000E+00  1.30000000E+00  1.50000000E+00  1.70000000E+00  1.70000000E+00
  1.70000000E+00  1.30000000E+00  1.30000000E+00  1.30000000E+00  1.30000000E+00
  1.30000000E+00  1.30000000E+00  1.50000000E+00  1.70000000E+00  1.70000000E+00
  1.70000000E+00  1.30000000E+00  1.30000000E+00  1.30000000E+00  1.30000000E+00
  1.30000000E+00  1.30000000E+00  1.50000000E+00  1.70000000E+00  1.70000000E+00
  1.70000000E+00  1.30000000E+00  1.30000000E+00  1.30000000E+00  1.30000000E+00
  1.30000000E+00  1.30000000E+00  1.50000000E+00  1.70000000E+00  1.70000000E+00
  1.70000000E+00  1.30000000E+00  1.30000000E+00  1.30000000E+00  1.30000000E+00
  1.30000000E+00  1.30000000E+00  1.50000000E+00  1.70000000E+00  1.70000000E+00
  1.70000000E+00  1.30000000E+00  1.30000000E+00  1.30000000E+00  1.30000000E+00
  1.30000000E+00  1.30000000E+00  1.50000000E+00  1.70000000E+00  1.70000000E+00
  1.70000000E+00  1.30000000E+00  1.30000000E+00  1.30000000E+00  1.30000000E+00
  1.30000000E+00  1.30000000E+00  1.50000000E+00  1.70000000E+00  1.70000000E+00
  1.70000000E+00  1.30000000E+00  1.30000000E+00  1.30000000E+00  1.30000000E+00
  1.30000000E+00  1.30000000E+00  1.50000000E+00  1.70000000E+00  1.70000000E+00
  1.70000000E+00  1.30000000E+00  1.30000000E+00  1.30000000E+00  1.30000000E+00
  1.30000000E+00  1.30000000E+00  1.50000000E+00  1.70000000E+00  1.70000000E+00
  1.70000000E+00  1.30000000E+00  1.30000000E+00  1.30000000E+00  1.30000000E+00
  1.30000000E+00  1.30000000E+00  1.50000000E+00  1.70000000E+00  1.70000000E+00
  1.70000000E+00  1.30000000E+00  1.30000000E+00  1.30000000E+00  1.30000000E+00
  1.30000000E+00  1.30000000E+00  1.50000000E+00  1.70000000E+00  1.70000000E+00
  1.70000000E+00  1.30000000E+00  1.30000000E+00  1.30000000E+00  1.30000000E+00
  1.30000000E+00  1.30000000E+00  1.50000000E+00  1.70000000E+00  1.70000000E+00
  1.70000000E+00  1.30000000E+00  1.30000000E+00  1.30000000E+00  1.30000000E+00
  1.30000000E+00  1.30000000E+00  1.50000000E+00  1.70000000E+00  1.70000000E+00
  1.70000000E+00  1.30000000E+00  1.30000000E+00  1.30000000E+00  1.30000000E+00
  1.30000000E+00  1.30000000E+00  1.50000000E+00  1.70000000E+00  1.70000000E+00
  1.70000000E+00  1.30000000E+00  1.30000000E+00  1.30000000E+00  1.30000000E+00
  1.30000000E+00  1.30000000E+00  1.50000000E+00  1.70000000E+00  1.70000000E+00
  1.70000000E+00  1.30000000E+00  1.30000000E+00  1.30000000E+00  1.30000000E+00
  1.30000000E+00  1.30000000E+00  1.50000000E+00  1.70000000E+00  1.70000000E+00
  1.70000000E+00  1.30000000E+00  1.30000000E+00  1.30000000E+00  1.30000000E+00
  1.30000000E+00  1.30000000E+00  1.50000000E+00  1.70000000E+00  1.70000000E+00
  1.70000000E+00  1.30000000E+00  1.30000000E+00  1.30000000E+00  1.30000000E+00
  1.30000000E+00  1.30000000E+00  1.50000000E+00  1.70000000E+00  1.70000000E+00
  1.70000000E+00  1.30000000E+00  1.30000000E+00  1.30000000E+00  1.30000000E+00
  1.30000000E+00  1.30000000E+00  1.50000000E+00  1.70000000E+00  1.70000000E+00
  1.70000000E+00  1.30000000E+00  1.30000000E+00  1.30000000E+00  1.30000000E+00
  1.30000000E+00  1.30000000E+00  1.50000000E+00  1.70000000E+00  1.70000000E+00
  1.70000000E+00  1.30000000E+00  1.30000000E+00  1.30000000E+00  1.30000000E+00
  1.30000000E+00  1.30000000E+00  1.50000000E+00  1.70000000E+00  1.70000000E+00
  1.70000000E+00  1.30000000E+00  1.30000000E+00  1.30000000E+00  1.30000000E+00
  1.30000000E+00  1.30000000E+00  1.50000000E+00  1.70000000E+00  1.70000000E+00
  1.70000000E+00  1.30000000E+00  1.30000000E+00  1.30000000E+00  1.30000000E+00
  1.30000000E+00  1.30000000E+00  1.50000000E+00  1.70000000E+00  1.70000000E+00
  1.70000000E+00  1.30000000E+00  1.30000000E+00  1.30000000E+00  1.30000000E+00
  1.30000000E+00  1.30000000E+00  1.50000000E+00  1.70000000E+00  1.70000000E+00
  1.70000000E+00  1.30000000E+00  1.30000000E+00  1.30000000E+00  1.30000000E+00
  1.30000000E+00  1.30000000E+00  1.50000000E+00  1.70000000E+00  1.70000000E+00
  1.70000000E+00  1.30000000E+00  1.30000000E+00  1.30000000E+00  1.30000000E+00
  1.30000000E+00  1.30000000E+00  1.50000000E+00  1.70000000E+00  1.70000000E+00
  1.70000000E+00  1.30000000E+00  1.30000000E+00  1.30000000E+00  1.30000000E+00
  1.30000000E+00  1.30000000E+00  1.50000000E+00  1.70000000E+00  1.70000000E+00
  1.70000000E+00  1.30000000E+00  1.30000000E+00  1.30000000E+00  1.30000000E+00
  1.30000000E+00  1.30000000E+00  1.50000000E+00  1.70000000E+00  1.70000000E+00
  1.70000000E+00  1.30000000E+00  1.30000000E+00  1.30000000E+00  1.30000000E+00
  1.30000000E+00  1.30000000E+00  1.50000000E+00  1.70000000E+00  1.70000000E+00
  1.70000000E+00  1.30000000E+00  1.30000000E+00  1.30000000E+00  1.30000000E+00
  1.30000000E+00  1.30000000E+00  1.50000000E+00  1.70000000E+00  1.70000000E+00
  1.70000000E+00  1.30000000E+00  1.30000000E+00  1.30000000E+00  1.30000000E+00
  1.30000000E+00  1.30000000E+00  1.50000000E+00  1.70000000E+00  1.70000000E+00
  1.70000000E+00  1.30000000E+00  1.30000000E+00  1.30000000E+00  1.30000000E+00
  1.30000000E+00  1.30000000E+00  1.50000000E+00  1.70000000E+00  1.70000000E+00
  1.70000000E+00  1.30000000E+00  1.30000000E+00  1.30000000E+00  1.30000000E+00
  1.30000000E+00  1.30000000E+00  1.50000000E+00  1.70000000E+00  1.70000000E+00
  1.70000000E+00  1.30000000E+00  1.30000000E+00  1.30000000E+00  1.30000000E+00
  1.30000000E+00  1.30000000E+00  1.50000000E+00  1.70000000E+00  1.70000000E+00
  1.70000000E+00  1.30000000E+00  1.30000000E+00  1.30000000E+00  1.30000000E+00
  1.30000000E+00  1.30000000E+00  1.50000000E+00  1.70000000E+00  1.70000000E+00
  1.70000000E+00  1.30000000E+00  1.30000000E+00  1.30000000E+00  1.30000000E+00
  1.30000000E+00  1.30000000E+00  1.50000000E+00  1.70000000E+00  1.70000000E+00
  1.70000000E+00  1.30000000E+00  1.30000000E+00  1.30000000E+00  1.30000000E+00
  1.30000000E+00  1.30000000E+00  1.50000000E+00  1.70000000E+00  1.70000000E+00
  1.70000000E+00  1.30000000E+00  1.30000000E+00  1.30000000E+00  1.30000000E+00
  1.30000000E+00  1.30000000E+00  1.50000000E+00  1.70000000E+00  1.70000000E+00
  1.70000000E+00  1.30000000E+00  1.30000000E+00  1.30000000E+00  1.30000000E+00
  1.30000000E+00  1.30000000E+00  1.50000000E+00  1.70000000E+00  1.70000000E+00
  1.70000000E+00  1.30000000E+00  1.30000000E+00  1.30000000E+00  1.30000000E+00
  1.30000000E+00  1.30000000E+00  1.50000000E+00  1.70000000E+00  1.70000000E+00
  1.70000000E+00  1.30000000E+00  1.30000000E+00  1.30000000E+00  1.30000000E+00
  1.30000000E+00  1.30000000E+00  1.50000000E+00  1.70000000E+00  1.70000000E+00
  1.70000000E+00  1.30000000E+00  1.30000000E+00  1.30000000E+00  1.30000000E+00
  1.30000000E+00  1.30000000E+00  1.50000000E+00  1.70000000E+00  1.70000000E+00
  1.70000000E+00  1.30000000E+00  1.30000000E+00  1.30000000E+00  1.30000000E+00
  1.30000000E+00  1.30000000E+00  1.50000000E+00  1.70000000E+00  1.70000000E+00
  1.70000000E+00  1.30000000E+00  1.30000000E+00  1.30000000E+00  1.30000000E+00
  1.30000000E+00  1.30000000E+00  1.50000000E+00  1.70000000E+00  1.70000000E+00
  1.70000000E+00  1.30000000E+00  1.30000000E+00  1.30000000E+00  1.30000000E+00
  1.30000000E+00  1.30000000E+00  1.50000000E+00  1.70000000E+00  1.70000000E+00
  1.70000000E+00  1.30000000E+00  1.30000000E+00  1.30000000E+00  1.30000000E+00
  1.30000000E+00  1.30000000E+00  1.50000000E+00  1.70000000E+00  1.70000000E+00
  1.70000000E+00  1.30000000E+00  1.30000000E+00  1.30000000E+00  1.30000000E+00
  1.30000000E+00  1.30000000E+00  1.50000000E+00  1.70000000E+00  1.70000000E+00
  1.70000000E+00  1.30000000E+00  1.30000000E+00  1.30000000E+00  1.30000000E+00
  1.30000000E+00  1.30000000E+00  1.50000000E+00  1.70000000E+00  1.70000000E+00
  1.70000000E+00  1.30000000E+00  1.30000000E+00  1.30000000E+00  1.30000000E+00
  1.30000000E+00  1.30000000E+00  1.50000000E+00  1.70000000E+00  1.70000000E+00
  1.70000000E+00  1.30000000E+00  1.30000000E+00  1.30000000E+00  1.30000000E+00
  1.30000000E+00  1.30000000E+00  1.50000000E+00  1.70000000E+00  1.70000000E+00
  1.70000000E+00  1.30000000E+00  1.30000000E+00  1.30000000E+00  1.30000000E+00
  1.30000000E+00  1.30000000E+00  1.50000000E+00  1.70000000E+00  1.70000000E+00
  1.70000000E+00  1.30000000E+00  1.30000000E+00  1.30000000E+00  1.30000000E+00
  1.30000000E+00  1.30000000E+00  1.50000000E+00  1.70000000E+00  1.70000000E+00
  1.70000000E+00  1.30000000E+00  1.30000000E+00  1.30000000E+00  1.30000000E+00
  1.30000000E+00  1.30000000E+00  1.50000000E+00  1.70000000E+00  1.70000000E+00
  1.70000000E+00  1.30000000E+00  1.30000000E+00  1.30000000E+00  1.30000000E+00
  1.30000000E+00  1.30000000E+00  1.50000000E+00  1.70000000E+00  1.70000000E+00
  1.70000000E+00  1.30000000E+00  1.30000000E+00  1.30000000E+00  1.30000000E+00
  1.30000000E+00  1.30000000E+00  1.50000000E+00  1.70000000E+00  1.70000000E+00
  1.70000000E+00  1.30000000E+00  1.30000000E+00  1.30000000E+00  1.30000000E+00
  1.30000000E+00  1.30000000E+00  1.50000000E+00  1.70000000E+00  1.70000000E+00
  1.70000000E+00  1.30000000E+00  1.30000000E+00  1.30000000E+00  1.30000000E+00
  1.30000000E+00  1.30000000E+00  1.50000000E+00  1.70000000E+00  1.70000000E+00
  1.70000000E+00  1.30000000E+00  1.30000000E+00  1.30000000E+00  1.30000000E+00
  1.30000000E+00  1.30000000E+00  1.50000000E+00  1.70000000E+00  1.70000000E+00
  1.70000000E+00  1.30000000E+00  1.30000000E+00  1.30000000E+00  1.30000000E+00
  1.30000000E+00  1.30000000E+00
%FLAG SCREEN                                                                    
%FORMAT(5E16.8)                                                                 
  8.50000000E-01  8.50000000E-01  7.90000000E-01  7.90000000E-01  7.20000000E-01
  7.20000000E-01  7.20000000E-01  7.20000000E-01  7.20000000E-01  7.20000000E-01
  7.20000000E-01  7.20000000E-01  7.20000000E-01  7.20000000E-01  7.20000000E-01
  7.20000000E-01  7.20000000E-01  7.20000000E-01  7.20000000E-01  7.20000000E-01
  7.20000000E-01  7.20000000E-01  7.20000000E-01  7.20000000E-01  8.50000000E-01
  8.50000000E-01  8.50000000E-01  8.50000000E-01  8.50000000E-01  8.50000000E-01
  8.50000000E-01  8.50000000E-01  8.50000000E-01  8.50000000E-01  8.50000000E-01
  8.50000000E-01  8.50000000E-01  8.50000000E-01  8.50000000E-01  8.50000000E-01
  8.50000000E-01  8.50000000E-01  8.50000000E-01  7.20000000E-01  7.20000000E-01
  7.20000000E-01  8.50000000E-01  8.50000000E-01  8.50000000E-01  8.50000000E-01
  8.50000000E-01  8.50000000E-01  8.50000000E-01  7.20000000E-01  7.20000000E-01
  7.20000000E-01  8.50000000E-01  8.50000000E-01  8.50000000E-01  8.50000000E-01
  8.50000000E-01  8.50000000E-01  8.50000000E-01  7.20000000E-01  7.20000000E-01
  7.20000000E-01  8.50000000E-01  8.50000000E-01  8.50000000E-01  8.50000000E-01
  8.50000000E-01  8.50000000E-01  8.50000000E-01  7.20000000E-01  7.20000000E-01
  7.20000000E-01  8.50000000E-01  8.50000000E-01  8.50000000E-01  8.50000000E-01
  8.50000000E-01  8.50000000E-01  8.50000000E-01  7.20000000E-01  7.20000000E-01
  7.20000000E-01  8.50000000E-01  8.50000000E-01  8.50000000E-01  8.50000000E-01
  8.50000000E-01  8.50000000E-01  8.50000000E-01  7.20000000E-01  7.20000000E-01
  7.20000000E-01  8.50000000E-01  8.50000000E-01  8.50000000E-01  8.50000000E-01
  8.50000000E-01  8.50000000E-01  8.50000000E-01  7.20000000E-01  7.20000000E-01
  7.20000000E-01  8.50000000E-01  8.50000000E-01  8.50000000E-01  8.50000000E-01
  8.50000000E-01  8.50000000E-01  8.50000000E-01  7.20000000E-01  7.20000000E-01
  7.20000000E-01  8.50000000E-01  8.50000000E-01  8.50000000E-01  8.50000000E-01
  8.50000000E-01  8.50000000E-01  8.50000000E-01  7.20000000E-01  7.20000000E-01
  7.20000000E-01  8.50000000E-01  8.50000000E-01  8.50000000E-01  8.50000000E-01
  8.50000000E-01  8.50000000E-01  8.50000000E-01  7.20000000E-01  7.20000000E-01
  7.20000000E-01  8.50000000E-01  8.50000000E-01  8.50000000E-01  8.50000000E-01
  8.50000000E-01  8.50000000E-01  8.50000000E-01  7.20000000E-01  7.20000000E-01
  7.20000000E-01  8.50000000E-01  8.50000000E-01  8.50000000E-01  8.50000000E-01
  8.50000000E-01  8.50000000E-01  8.50000000E-01  7.20000000E-01  7.20000000E-01
  7.20000000E-01  8.50000000E-01  8.50000000E-01  8.50000000E-01  8.50000000E-01
  8.50000000E-01  8.50000000E-01  8.50000000E-01  7.20000000E-01  7.20000000E-01
  7.20000000E-01  8.50000000E-01  8.50000000E-01  8.50000000E-01  8.50000000E-01
  8.50000000E-01  8.50000000E-01  8.50000000E-01  7.20000000E-01  7.20000000E-01
  7.20000000E-01  8.50000000E-01  8.50000000E-01  8.50000000E-01  8.50000000E-01
  8.50000000E-01  8.50000000E-01  8.50000000E-01  7.20000000E-01  7.20000000E-01
  7.20000000E-01  8.50000000E-01  8.50000000E-01  8.50000000E-01  8.50000000E-01
  8.50000000E-01  8.50000000E-01  8.50000000E-01  7.20000000E-01  7.20000000E-01
  7.20000000E-01  8.50000000E-01  8.50000000E-01  8.50000000E-01  8.50000000E-01
  8.50000000E-01  8.50000000E-01  8.50000000E-01  7.20000000E-01  7.20000000E-01
  7.20000000E-01  8.50000000E-01  8.50000000E-01  8.50000000E-01  8.50000000E-01
  8.50000000E-01  8.50000000E-01  8.50000000E-01  7.20000000E-01  7.20000000E-01
  7.20000000E-01  8.50000000E-01  8.50000000E-01  8.50000000E-01  8.50000000E-01
  8.50000000E-01  8.50000000E-01  8.50000000E-01  7.20000000E-01  7.20000000E-01
  7.20000000E-01  8.50000000E-01  8.50000000E-01  8.50000000E-01  8.50000000E-01
  8.50000000E-01  8.50000000E-01  8.50000000E-01  7.20000000E-01  7.20000000E-01
  7.20000000E-01  8.50000000E-01  8.50000000E-01  8.50000000E-01  8.50000000E-01
  8.50000000E-01  8.50000000E-01  8.50000000E-01  7.20000000E-01  7.20000000E-01
  7.20000000E-01  8.50000000E-01  8.50000000E-01  8.50000000E-01  8.50000000E-01
  8.50000000E-01  8.50000000E-01  8.50000000E-01  7.20000000E-01  7.20000000E-01
  7.20000000E-01  8.50000000E-01  8.50000000E-01  8.50000000E-01  8.50000000E-01
  8.50000000E-01  8.50000000E-01  8.50000000E-01  7.20000000E-01  7.20000000E-01
  7.20000000E-01  8.50000000E-01  8.50000000E-01  8.50000000E-01  8.50000000E-01
  8.50000000E-01  8.50000000E-01  8.50000000E-01  7.20000000E-01  7.20000000E-01
  7.20000000E-01  8.50000000E-01  8.50000000E-01  8.50000000E-01  8.50000000E-01
  8.50000000E-01  8.50000000E-01  8.50000000E-01  7.20000000E-01  7.20000000E-01
  7.20000000E-01  8.50000000E-01  8.50000000E-01  8.50000000E-01  8.50000000E-01
  8.50000000E-01  8.50000000E-01  8.50000000E-01  7.20000000E-01  7.20000000E-01
  7.20000000E-01  8.50000000E-01  8.50000000E-01  8.50000000E-01  8.50000000E-01
  8.50000000E-01  8.50000000E-01  8.50000000E-01  7.20000000E-01  7.20000000E-01
  7.20000000E-01  8.50000000E-01  8.50000000E-01  8.50000000E-01  8.50000000E-01
  8.50000000E-01  8.50000000E-01  8.50000000E-01  7.20000000E-01  7.20000000E-01
  7.20000000E-01  8.50000000E-01  8.50000000E-01  8.50000000E-01  8.50000000E-01
  8.50000000E-01  8.50000000E-01  8.50000000E-01  7.20000000E-01  7.20000000E-01
  7.20000000E-01  8.50000000E-01  8.50000000E-01  8.50000000E-01  8.50000000E-01
  8.50000000E-01  8.50000000E-01  8.50000000E-01  7.20000000E-01  7.20000000E-01
  7.20000000E-01  8.50000000E-01  8.50000000E-01  8.50000000E-01  8.50000000E-01
  8.50000000E-01  8.50000000E-01  8.50000000E-01  7.20000000E-01  7.20000000E-01
  7.20000000E-01  8.50000000E-01  8.50000000E-01  8.50000000E-01  8.50000000E-01
  8.50000000E-01  8.50000000E-01  8.50000000E-01  7.20000000E-01  7.20000000E-01
  7.20000000E-01  8.50000000E-01  8.50000000E-01  8.50000000E-01  8.50000000E-01
  8.50000000E-01  8.50000000E-01  8.50000000E-01  7.20000000E-01  7.20000000E-01
  7.20000000E-01  8.50000000E-01  8.50000000E-01  8.50000000E-01  8.50000000E-01
  8.50000000E-01  8.50000000E-01  8.50000000E-01  7.20000000E-01  7.20000000E-01
  7.20000000E-01  8.50000000E-01  8.50000000E-01  8.50000000E-01  8.50000000E-01
  8.50000000E-01  8.50000000E-01  8.50000000E-01  7.20000000E-01  7.20000000E-01
  7.20000000E-01  8.50000000E-01  8.50000000E-01  8.50000000E-01  8.50000000E-01
  8.50000000E-01  8.50000000E-01  8.50000000E-01  7.20000000E-01  7.20000000E-01
  7.20000000E-01  8.50000000E-01  8.50000000E-01  8.50000000E-01  8.50000000E-01
  8.50000000E-01  8.50000000E-01  8.50000000E-01  7.20000000E-01  7.20000000E-01
  7.20000000E-01  8.50000000E-01  8.50000000E-01  8.50000000E-01  8.50000000E-01
  8.50000000E-01  8.50000000E-01  8.50000000E-01  7.20000000E-01  7.20000000E-01
  7.20000000E-01  8.50000000E-01  8.50000000E-01  8.50000000E-01  8.50000000E-01
  8.50000000E-01  8.50000000E-01  8.50000000E-01  7.20000000E-01  7.20000000E-01
  7.20000000E-01  8.50000000E-01  8.50000000E-01  8.50000000E-01  8.50000000E-01
  8.50000000E-01  8.50000000E-01  8.50000000E-01  7.20000000E-01  7.20000000E-01
  7.20000000E-01  8.50000000E-01  8.50000000E-01  8.50000000E-01  8.50000000E-01
  8.50000000E-01  8.50000000E-01  8.50000000E-01  7.20000000E-01  7.20000000E-01
  7.20000000E-01  8.50000000E-01  8.50000000E-01  8.50000000E-01  8.50000000E-01
  8.50000000E-01  8.50000000E-01  8.50000000E-01  7.20000000E-01  7.20000000E-01
  7.20000000E-01  8.50000000E-01  8.50000000E-01  8.50000000E-01  8.50000000E-01
  8.50000000E-01  8.50000000E-01  8.50000000E-01  7.20000000E-01  7.20000000E-01
  7.20000000E-01  8.50000000E-01  8.50000000E-01  8.50000000E-01  8.50000000E-01
  8.50000000E-01  8.50000000E-01  8.50000000E-01  7.20000000E-01  7.20000000E-01
  7.20000000E-01  8.50000000E-01  8.50000000E-01  8.50000000E-01  8.50000000E-01
  8.50000000E-01  8.50000000E-01  8.50000000E-01  7.20000000E-01  7.20000000E-01
  7.20000000E-01  8.50000000E-01  8.50000000E-01  8.50000000E-01  8.50000000E-01
  8.50000000E-01  8.50000000E-01  8.50000000E-01  7.20000000E-01  7.20000000E-01
  7.20000000E-01  8.50000000E-01  8.50000000E-01  8.50000000E-01  8.50000000E-01
  8.50000000E-01  8.50000000E-01  8.50000000E-01  7.20000000E-01  7.20000000E-01
  7.20000000E-01  8.50000000E-01  8.50000000E-01  8.50000000E-01  8.50000000E-01
  8.50000000E-01  8.50000000E-01  8.50000000E-01  7.20000000E-01  7.20000000E-01
  7.20000000E-01  8.50000000E-01  8.50000000E-01  8.50000000E-01  8.50000000E-01
  8.50000000E-01  8.50000000E-01  8.50000000E-01  7.20000000E-01  7.20000000E-01
  7.20000000E-01  8.50000000E-01  8.50000000E-01  8.50000000E-01  8.50000000E-01
  8.50000000E-01  8.50000000E-01  8.50000000E-01  7.20000000E-01  7.20000000E-01
  7.20000000E-01  8.50000000E-01  8.50000000E-01  8.50000000E-01  8.50000000E-01
  8.50000000E-01  8.50000000E-01  8.50000000E-01  7.20000000E-01  7.20000000E-01
  7.20000000E-01  8.50000000E-01  8.50000000E-01  8.50000000E-01  8.50000000E-01
  8.50000000E-01  8.50000000E-01  8.50000000E-01  7.20000000E-01  7.20000000E-01
  7.20000000E-01  8.50000000E-01  8.50000000E-01  8.50000000E-01  8.50000000E-01
  8.50000000E-01  8.50000000E-01  8.50000000E-01  7.20000000E-01  7.20000000E-01
  7.20000000E-01  8.50000000E-01  8.50000000E-01  8.50000000E-01  8.50000000E-01
  8.50000000E-01  8.50000000E-01  8.50000000E-01  7.20000000E-01  7.20000000E-01
  7.20000000E-01  8.50000000E-01  8.50000000E-01  8.50000000E-01  8.50000000E-01
  8.50000000E-01  8.50000000E-01  8.50000000E-01  7.20000000E-01  7.20000000E-01
  7.20000000E-01  8.50000000E-01  8.50000000E-01  8.50000000E-01  8.50000000E-01
  8.50000000E-01  8.50000000E-01  8.50000000E-01  7.20000000E-01  7.20000000E-01
  7.20000000E-01  8.50000000E-01  8.50000000E-01  8.50000000E-01  8.50000000E-01
  8.50000000E-01  8.50000000E-01  8.50000000E-01  7.20000000E-01  7.20000000E-01
  7.20000000E-01  8.50000000E-01  8.50000000E-01  8.50000000E-01  8.50000000E-01
  8.50000000E-01  8.50000000E-01  8.50000000E-01  7.20000000E-01  7.20000000E-01
  7.20000000E-01  8.50000000E-01  8.50000000E-01  8.50000000E-01  8.50000000E-01
  8.50000000E-01  8.50000000E-01  8.50000000E-01  7.20000000E-01  7.20000000E-01
  7.20000000E-01  8.50000000E-01  8.50000000E-01  8.50000000E-01  8.50000000E-01
  8.50000000E-01  8.50000000E-01  8.50000000E-01  7.20000000E-01  7.20000000E-01
  7.20000000E-01  8.50000000E-01  8.50000000E-01  8.50000000E-01  8.50000000E-01
  8.50000000E-01  8.50000000E-01  8.50000000E-01  7.20000000E-01  7.20000000E-01
  7.20000000E-01  8.50000000E-01  8.50000000E-01  8.50000000E-01  8.50000000E-01
  8.50000000E-01  8.50000000E-01  8.50000000E-01  7.20000000E-01  7.20000000E-01
  7.20000000E-01  8.50000000E-01  8.50000000E-01  8.50000000E-01  8.50000000E-01
  8.50000000E-01  8.50000000E-01  8.50000000E-01  7.20000000E-01  7.20000000E-01
  7.20000000E-01  8.50000000E-01  8.50000000E-01  8.50000000E-01  8.50000000E-01
  8.50000000E-01  8.50000000E-01  8.50000000E-01  7.20000000E-01  7.20000000E-01
  7.20000000E-01  8.50000000E-01  8.50000000E-01  8.50000000E-01  8.50000000E-01
  8.50000000E-01  8.50000000E-01  8.50000000E-01  7.20000000E-01  7.20000000E-01
  7.20000000E-01  8.50000000E-01  8.50000000E-01  8.50000000E-01  8.50000000E-01
  8.50000000E-01  8.50000000E-01  8.50000000E-01  7.20000000E-01  7.20000000E-01
  7.20000000E-01  8.50000000E-01  8.50000000E-01  8.50000000E-01  8.50000000E-01
  8.50000000E-01  8.50000000E-01  8.50000000E-01  7.20000000E-01  7.20000000E-01
  7.20000000E-01  8.50000000E-01  8.50000000E-01  8.50000000E-01  8.50000000E-01
  8.50000000E-01  8.50000000E-01  8.50000000E-01  7.20000000E-01  7.20000000E-01
  7.20000000E-01  8.50000000E-01  8.50000000E-01  8.50000000E-01  8.50000000E-01
  8.50000000E-01  8.50000000E-01  8.50000000E-01  7.20000000E-01  7.20000000E-01
  7.20000000E-01  8.50000000E-01  8.50000000E-01  8.50000000E-01  8.50000000E-01
  8.50000000E-01  8.50000000E-01  8.50000000E-01  7.20000000E-01  7.20000000E-01
  7.20000000E-01  8.50000000E-01  8.50000000E-01  8.50000000E-01  8.50000000E-01
  8.50000000E-01  8.50000000E-01  8.50000000E-01  7.20000000E-01  7.20000000E-01
  7.20000000E-01  8.50000000E-01  8.50000000E-01  8.50000000E-01  8.50000000E-01
  8.50000000E-01  8.50000000E-01  8.50000000E-01  7.20000000E-01  7.20000000E-01
  7.20000000E-01  8.50000000E-01  8.50000000E-01  8.50000000E-01  8.50000000E-01
  8.50000000E-01  8.50000000E-01  8.50000000E-01  7.20000000E-01  7.20000000E-01
  7.20000000E-01  8.50000000E-01  8.50000000E-01  8.50000000E-01  8.50000000E-01
  8.50000000E-01  8.50000000E-01  8.50000000E-01  7.20000000E-01  7.20000000E-01
  7.20000000E-01  8.50000000E-01  8.50000000E-01  8.50000000E-01  8.50000000E-01
  8.50000000E-01  8.50000000E-01  8.50000000E-01  7.20000000E-01  7.20000000E-01
  7.20000000E-01  8.50000000E-01  8.50000000E-01  8.50000000E-01  8.50000000E-01
  8.50000000E-01  8.50000000E-01  8.50000000E-01  7.20000000E-01  7.20000000E-01
  7.20000000E-01  8.50000000E-01  8.50000000E-01  8.50000000E-01  8.50000000E-01
  8.50000000E-01  8.50000000E-01  8.50000000E-01  7.20000000E-01  7.20000000E-01
  7.20000000E-01  8.50000000E-01  8.50000000E-01  8.50000000E-01  8.50000000E-01
  8.50000000E-01  8.50000000E-01  8.50000000E-01  7.20000000E-01  7.20000000E-01
  7.20000000E-01  8.50000000E-01  8.50000000E-01  8.50000000E-01  8.50000000E-01
  8.50000000E-01  8.50000000E-01  8.50000000E-01  7.20000000E-01  7.20000000E-01
  7.20000000E-01  8.50000000E-01  8.50000000E-01  8.50000000E-01  8.50000000E-01
  8.50000000E-01  8.50000000E-01  8.50000000E-01  7.20000000E-01  7.20000000E-01
  7.20000000E-01  8.50000000E-01  8.50000000E-01  8.50000000E-01  8.50000000E-01
  8.50000000E-01  8.50000000E-01  8.50000000E-01  7.20000000E-01  7.20000000E-01
  7.20000000E-01  8.50000000E-01  8.50000000E-01  8.50000000E-01  8.50000000E-01
  8.50000000E-01  8.50000000E-01  8.50000000E-01  7.20000000E-01  7.20000000E-01
  7.20000000E-01  8.50000000E-01  8.50000000E-01  8.50000000E-01  8.50000000E-01
  8.50000000E-01  8.50000000E-01  8.50000000E-01  7.20000000E-01  7.20000000E-01
  7.20000000E-01  8.50000000E-01  8.50000000E-01  8.50000000E-01  8.50000000E-01
  8.50000000E-01  8.50000000E-01  8.50000000E-01  7.20000000E-01  7.20000000E-01
  7.20000000E-01  8.50000000E-01  8.50000000E-01  8.50000000E-01  8.50000000E-01
  8.50000000E-01  8.50000000E-01  8.50000000E-01  7.20000000E-01  7.20000000E-01
  7.20000000E-01  8.50000000E-01  8.50000000E-01  8.50000000E-01  8.50000000E-01
  8.50000000E-01  8.50000000E-01  8.50000000E-01  7.20000000E-01  7.20000000E-01
  7.20000000E-01  8.50000000E-01  8.50000000E-01  8.50000000E-01  8.50000000E-01
  8.50000000E-01  8.50000000E-01  8.50000000E-01  7.20000000E-01  7.20000000E-01
  7.20000000E-01  8.50000000E-01  8.50000000E-01  8.50000000E-01  8.50000000E-01
  8.50000000E-01  8.50000000E-01  8.50000000E-01  7.20000000E-01  7.20000000E-01
  7.20000000E-01  8.50000000E-01  8.50000000E-01  8.50000000E-01  8.50000000E-01
  8.50000000E-01  8.50000000E-01  8.50000000E-01  7.20000000E-01  7.20000000E-01
  7.20000000E-01  8.50000000E-01  8.50000000E-01  8.50000000E-01  8.50000000E-01
  8.50000000E-01  8.50000000E-01  8.50000000E-01  7.20000000E-01  7.20000000E-01
  7.20000000E-01  8.50000000E-01  8.50000000E-01  8.50000000E-01  8.50000000E-01
  8.50000000E-01  8.50000000E-01  8.50000000E-01  7.20000000E-01  7.20000000E-01
  7.20000000E-01  8.50000000E-01  8.50000000E-01  8.50000000E-01  8.50000000E-01
  8.50000000E-01  8.50000000E-01  8.50000000E-01  7.20000000E-01  7.20000000E-01
  7.20000000E-01  8.50000000E-01  8.50000000E-01  8.50000000E-01  8.50000000E-01
  8.50000000E-01  8.50000000E-01  8.50000000E-01  7.20000000E-01  7.20000000E-01
  7.20000000E-01  8.50000000E-01  8.50000000E-01  8.50000000E-01  8.50000000E-01
  8.50000000E-01  8.50000000E-01  8.50000000E-01  7.20000000E-01  7.20000000E-01
  7.20000000E-01  8.50000000E-01  8.50000000E-01  8.50000000E-01  8.50000000E-01
  8.50000000E-01  8.50000000E-01  8.50000000E-01  7.20000000E-01  7.20000000E-01
  7.20000000E-01  8.50000000E-01  8.50000000E-01  8.50000000E-01  8.50000000E-01
  8.50000000E-01  8.50000000E-01  8.50000000E-01  7.20000000E-01  7.20000000E-01
  7.20000000E-01  8.50000000E-01  8.50000000E-01  8.50000000E-01  8.50000000E-01
  8.50000000E-01  8.50000000E-01  8.50000000E-01  7.20000000E-01  7.20000000E-01
  7.20000000E-01  8.50000000E-01  8.50000000E-01  8.50000000E-01  8.50000000E-01
  8.50000000E-01  8.50000000E-01  8.50000000E-01  7.20000000E-01  7.20000000E-01
  7.20000000E-01  8.50000000E-01  8.50000000E-01  8.50000000E-01  8.50000000E-01
  8.50000000E-01  8.50000000E-01  8.50000000E-01  7.20000000E-01  7.20000000E-01
  7.20000000E-01  8.50000000E-01  8.50000000E-01  8.50000000E-01  8.50000000E-01
  8.50000000E-01  8.50000000E-01  8.50000000E-01  7.20000000E-01  7.20000000E-01
  7.20000000E-01  8.50000000E-01  8.50000000E-01  8.50000000E-01  8.50000000E-01
  8.50000000E-01  8.50000000E-01  8.50000000E-01  7.20000000E-01  7.20000000E-01
  7.20000000E-01  8.50000000E-01  8.50000000E-01  8.50000000E-01  8.50000000E-01
  8.50000000E-01  8.50000000E-01  8.50000000E-01  7.20000000E-01  7.20000000E-01
  7.20000000E-01  8.50000000E-01  8.50000000E-01  8.50000000E-01  8.50000000E-01
  8.50000000E-01  8.50000000E-01  8.50000000E-01  7.20000000E-01  7.20000000E-01
  7.20000000E-01  8.50000000E-01  8.50000000E-01  8.50000000E-01  8.50000000E-01
  8.50000000E-01  8.50000000E-01  8.50000000E-01  7.20000000E-01  7.20000000E-01
  7.20000000E-01  8.50000000E-01  8.50000000E-01  8.50000000E-01  8.50000000E-01
  8.50000000E-01  8.50000000E-01  8.50000000E-01  7.20000000E-01  7.20000000E-01
  7.20000000E-01  8.50000000E-01  8.50000000E-01  8.50000000E-01  8.50000000E-01
  8.50000000E-01  8.50000000E-01  8.50000000E-01  7.20000000E-01  7.20000000E-01
  7.20000000E-01  8.50000000E-01  8.50000000E-01  8.50000000E-01  8.50000000E-01
  8.50000000E-01  8.50000000E-01  8.50000000E-01  7.20000000E-01  7.20000000E-01
  7.20000000E-01  8.50000000E-01  8.50000000E-01  8.50000000E-01  8.50000000E-01
  8.50000000E-01  8.50000000E-01  8.50000000E-01  7.20000000E-01  7.20000000E-01
  7.20000000E-01  8.50000000E-01  8.50000000E-01  8.50000000E-01  8.50000000E-01
  8.50000000E-01  8.50000000E-01  8.50000000E-01  7.20000000E-01  7.20000000E-01
  7.20000000E-01  8.50000000E-01  8.50000000E-01  8.50000000E-01  8.50000000E-01
  8.50000000E-01  8.50000000E-01  8.50000000E-01  7.20000000E-01  7.20000000E-01
  7.20000000E-01  8.50000000E-01  8.50000000E-01  8.50000000E-01  8.50000000E-01
  8.50000000E-01  8.50000000E-01  8.50000000E-01  7.20000000E-01  7.20000000E-01
  7.20000000E-01  8.50000000E-01  8.50000000E-01  8.50000000E-01  8.50000000E-01
  8.50000000E-01  8.50000000E-01  8.50000000E-01  7.20000000E-01  7.20000000E-01
  7.20000000E-01  8.50000000E-01  8.50000000E-01  8.50000000E-01  8.50000000E-01
  8.50000000E-01  8.50000000E-01  8.50000000E-01  7.20000000E-01  7.20000000E-01
  7.20000000E-01  8.50000000E-01  8.50000000E-01  8.50000000E-01  8.50000000E-01
  8.50000000E-01  8.50000000E-01  8.50000000E-01  7.20000000E-01  7.20000000E-01
  7.20000000E-01  8.50000000E-01  8.50000000E-01  8.50000000E-01  8.50000000E-01
  8.50000000E-01  8.50000000E-01  8.50000000E-01  7.20000000E-01  7.20000000E-01
  7.20000000E-01  8.50000000E-01  8.50000000E-01  8.50000000E-01  8.50000000E-01
  8.50000000E-01  8.50000000E-01  8.50000000E-01  7.20000000E-01  7.20000000E-01
  7.20000000E-01  8.50000000E-01  8.50000000E-01  8.50000000E-01  8.50000000E-01
  8.50000000E-01  8.50000000E-01  8.50000000E-01  7.20000000E-01  7.20000000E-01
  7.20000000E-01  8.50000000E-01  8.50000000E-01  8.50000000E-01  8.50000000E-01
  8.50000000E-01  8.50000000E-01  8.50000000E-01  7.20000000E-01  7.20000000E-01
  7.20000000E-01  8.50000000E-01  8.50000000E-01  8.50000000E-01  8.50000000E-01
  8.50000000E-01  8.50000000E-01  8.50000000E-01  7.20000000E-01  7.20000000E-01
  7.20000000E-01  8.50000000E-01  8.50000000E-01  8.50000000E-01  8.50000000E-01
  8.50000000E-01  8.50000000E-01  8.50000000E-01  7.20000000E-01  7.20000000E-01
  7.20000000E-01  8.50000000E-01  8.50000000E-01  8.50000000E-01  8.50000000E-01
  8.50000000E-01  8.50000000E-01  8.50000000E-01  7.20000000E-01  7.20000000E-01
  7.20000000E-01  8.50000000E-01  8.50000000E-01  8.50000000E-01  8.50000000E-01
  8.50000000E-01  8.50000000E-01  8.50000000E-01  7.20000000E-01  7.20000000E-01
  7.20000000E-01  8.50000000E-01  8.50000000E-01  8.50000000E-01  8.50000000E-01
  8.50000000E-01  8.50000000E-01  8.50000000E-01  7.20000000E-01  7.20000000E-01
  7.20000000E-01  8.50000000E-01  8.50000000E-01  8.50000000E-01  8.50000000E-01
  8.50000000E-01  8.50000000E-01  8.50000000E-01  7.20000000E-01  7.20000000E-01
  7.20000000E-01  8.50000000E-01  8.50000000E-01  8.50000000E-01  8.50000000E-01
  8.50000000E-01  8.50000000E-01  8.50000000E-01  7.20000000E-01  7.20000000E-01
  7.20000000E-01  8.50000000E-01  8.50000000E-01  8.50000000E-01  8.50000000E-01
  8.50000000E-01  8.50000000E-01  8.50000000E-01  7.20000000E-01  7.20000000E-01
  7.20000000E-01  8.50000000E-01  8.50000000E-01  8.50000000E-01  8.50000000E-01
  8.50000000E-01  8.50000000E-01  8.50000000E-01  7.20000000E-01  7.20000000E-01
  7.20000000E-01  8.50000000E-01  8.50000000E-01  8.50000000E-01  8.50000000E-01
  8.50000000E-01  8.50000000E-01  8.50000000E-01  7.20000000E-01  7.20000000E-01
  7.20000000E-01  8.50000000E-01  8.50000000E-01  8.50000000E-01  8.50000000E-01
  8.50000000E-01  8.50000000E-01  8.50000000E-01  7.20000000E-01  7.20000000E-01
  7.20000000E-01  8.50000000E-01  8.50000000E-01  8.50000000E-01  8.50000000E-01
  8.50000000E-01  8.50000000E-01  8.50000000E-01  7.20000000E-01  7.20000000E-01
  7.20000000E-01  8.50000000E-01  8.50000000E-01  8.50000000E-01  8.50000000E-01
  8.50000000E-01  8.50000000E-01  8.50000000E-01  7.20000000E-01  7.20000000E-01
  7.20000000E-01  8.50000000E-01  8.50000000E-01  8.50000000E-01  8.50000000E-01
  8.50000000E-01  8.50000000E-01  8.50000000E-01  7.20000000E-01  7.20000000E-01
  7.20000000E-01  8.50000000E-01  8.50000000E-01  8.50000000E-01  8.50000000E-01
  8.50000000E-01  8.50000000E-01  8.50000000E-01  7.20000000E-01  7.20000000E-01
  7.20000000E-01  8.50000000E-01  8.50000000E-01  8.50000000E-01  8.50000000E-01
  8.50000000E-01  8.50000000E-01  8.50000000E-01  7.20000000E-01  7.20000000E-01
  7.20000000E-01  8.50000000E-01  8.50000000E-01  8.50000000E-01  8.50000000E-01
  8.50000000E-01  8.50000000E-01  8.50000000E-01  7.20000000E-01  7.20000000E-01
  7.20000000E-01  8.50000000E-01  8.50000000E-01  8.50000000E-01  8.50000000E-01
  8.50000000E-01  8.50000000E-01  8.50000000E-01  7.20000000E-01  7.20000000E-01
  7.20000000E-01  8.50000000E-01  8.50000000E-01  8.50000000E-01  8.50000000E-01
  8.50000000E-01  8.50000000E-01  8.50000000E-01  7.20000000E-01  7.20000000E-01
  7.20000000E-01  8.50000000E-01  8.50000000E-01  8.50000000E-01  8.50000000E-01
  8.50000000E-01  8.50000000E-01  8.50000000E-01  7.20000000E-01  7.20000000E-01
  7.20000000E-01  8.50000000E-01  8.50000000E-01  8.50000000E-01  8.50000000E-01
  8.50000000E-01  8.50000000E-01  8.50000000E-01  7.20000000E-01  7.20000000E-01
  7.20000000E-01  8.50000000E-01  8.50000000E-01  8.50000000E-01  8.50000000E-01
  8.50000000E-01  8.50000000E-01  8.50000000E-01  7.20000000E-01  7.20000000E-01
  7.20000000E-01  8.50000000E-01  8.50000000E-01  8.50000000E-01  8.50000000E-01
  8.50000000E-01  8.50000000E-01  8.50000000E-01  7.20000000E-01  7.20000000E-01
  7.20000000E-01  8.50000000E-01  8.50000000E-01  8.50000000E-01  8.50000000E-01
  8.50000000E-01  8.50000000E-01  8.50000000E-01  7.20000000E-01  7.20000000E-01
  7.20000000E-01  8.50000000E-01  8.50000000E-01  8.50000000E-01  8.50000000E-01
  8.50000000E-01  8.50000000E-01  8.50000000E-01  7.20000000E-01  7.20000000E-01
  7.20000000E-01  8.50000000E-01  8.50000000E-01  8.50000000E-01  8.50000000E-01
  8.50000000E-01  8.50000000E-01  8.50000000E-01  7.20000000E-01  7.20000000E-01
  7.20000000E-01  8.50000000E-01  8.50000000E-01  8.50000000E-01  8.50000000E-01
  8.50000000E-01  8.50000000E-01  8.50000000E-01  7.20000000E-01  7.20000000E-01
  7.20000000E-01  8.50000000E-01  8.50000000E-01  8.50000000E-01  8.50000000E-01
  8.50000000E-01  8.50000000E-01  8.50000000E-01  7.20000000E-01  7.20000000E-01
  7.20000000E-01  8.50000000E-01  8.50000000E-01  8.50000000E-01  8.50000000E-01
  8.50000000E-01  8.50000000E-01  8.50000000E-01  7.20000000E-01  7.20000000E-01
  7.20000000E-01  8.50000000E-01  8.50000000E-01  8.50000000E-01  8.50000000E-01
  8.50000000E-01  8.50000000E-01  8.50000000E-01  7.20000000E-01  7.20000000E-01
  7.20000000E-01  8.50000000E-01  8.50000000E-01  8.50000000E-01  8.50000000E-01
  8.50000000E-01  8.50000000E-01  8.50000000E-01  7.20000000E-01  7.20000000E-01
  7.20000000E-01  8.50000000E-01  8.50000000E-01  8.50000000E-01  8.50000000E-01
  8.50000000E-01  8.50000000E-01  8.50000000E-01  7.20000000E-01  7.20000000E-01
  7.20000000E-01  8.50000000E-01  8.50000000E-01  8.50000000E-01  8.50000000E-01
  8.50000000E-01  8.50000000E-01  8.50000000E-01  7.20000000E-01  7.20000000E-01
  7.20000000E-01  8.50000000E-01  8.50000000E-01  8.50000000E-01  8.50000000E-01
  8.50000000E-01  8.50000000E-01  8.50000000E-01  7.20000000E-01  7.20000000E-01
  7.20000000E-01  8.50000000E-01  8.50000000E-01  8.50000000E-01  8.50000000E-01
  8.50000000E-01  8.50000000E-01  8.50000000E-01  7.20000000E-01  7.20000000E-01
  7.20000000E-01  8.50000000E-01  8.50000000E-01  8.50000000E-01  8.50000000E-01
  8.50000000E-01  8.50000000E-01  8.50000000E-01  7.20000000E-01  7.20000000E-01
  7.20000000E-01  8.50000000E-01  8.50000000E-01  8.50000000E-01  8.50000000E-01
  8.50000000E-01  8.50000000E-01  8.50000000E-01  7.20000000E-01  7.20000000E-01
  7.20000000E-01  8.50000000E-01  8.50000000E-01  8.50000000E-01  8.50000000E-01
  8.50000000E-01  8.50000000E-01  8.50000000E-01  7.20000000E-01  7.20000000E-01
  7.20000000E-01  8.50000000E-01  8.50000000E-01  8.50000000E-01  8.50000000E-01
  8.50000000E-01  8.50000000E-01  8.50000000E-01  7.20000000E-01  7.20000000E-01
  7.20000000E-01  8.50000000E-01  8.50000000E-01  8.50000000E-01  8.50000000E-01
  8.50000000E-01  8.50000000E-01  8.50000000E-01  7.20000000E-01  7.20000000E-01
  7.20000000E-01  8.50000000E-01  8.50000000E-01  8.50000000E-01  8.50000000E-01
  8.50000000E-01  8.50000000E-01  8.50000000E-01  7.20000000E-01  7.20000000E-01
  7.20000000E-01  8.50000000E-01  8.50000000E-01  8.50000000E-01  8.50000000E-01
  8.50000000E-01  8.50000000E-01  8.50000000E-01  7.20000000E-01  7.20000000E-01
  7.20000000E-01  8.50000000E-01  8.50000000E-01  8.50000000E-01  8.50000000E-01
  8.50000000E-01  8.50000000E-01  8.50000000E-01  7.20000000E-01  7.20000000E-01
  7.20000000E-01  8.50000000E-01  8.50000000E-01  8.50000000E-01  8.50000000E-01
  8.50000000E-01  8.50000000E-01  8.50000000E-01  7.20000000E-01  7.20000000E-01
  7.20000000E-01  8.50000000E-01  8.50000000E-01  8.50000000E-01  8.50000000E-01
  8.50000000E-01  8.50000000E-01  8.50000000E-01  7.20000000E-01  7.20000000E-01
  7.20000000E-01  8.50000000E-01  8.50000000E-01  8.50000000E-01  8.50000000E-01
  8.50000000E-01  8.50000000E-01  8.50000000E-01  7.20000000E-01  7.20000000E-01
  7.20000000E-01  8.50000000E-01  8.50000000E-01  8.50000000E-01  8.50000000E-01
  8.50000000E-01  8.50000000E-01  8.50000000E-01  7.20000000E-01  7.20000000E-01
  7.20000000E-01  8.50000000E-01  8.50000000E-01  8.50000000E-01  8.50000000E-01
  8.50000000E-01  8.50000000E-01  8.50000000E-01  7.20000000E-01  7.20000000E-01
  7.20000000E-01  8.50000000E-01  8.50000000E-01  8.50000000E-01  8.50000000E-01
  8.50000000E-01  8.50000000E-01  8.50000000E-01  7.20000000E-01  7.20000000E-01
  7.20000000E-01  8.50000000E-01  8.50000000E-01  8.50000000E-01  8.50000000E-01
  8.50000000E-01  8.50000000E-01  8.50000000E-01  7.20000000E-01  7.20000000E-01
  7.20000000E-01  8.50000000E-01  8.50000000E-01  8.50000000E-01  8.50000000E-01
  8.50000000E-01  8.50000000E-01  8.50000000E-01  7.20000000E-01  7.20000000E-01
  7.20000000E-01  8.50000000E-01  8.50000000E-01  8.50000000E-01  8.50000000E-01
  8.50000000E-01  8.50000000E-01  8.50000000E-01  7.20000000E-01  7.20000000E-01
  7.20000000E-01  8.50000000E-01  8.50000000E-01  8.50000000E-01  8.50000000E-01
  8.50000000E-01  8.50000000E-01  8.50000000E-01  7.20000000E-01  7.20000000E-01
  7.20000000E-01  8.50000000E-01  8.50000000E-01  8.50000000E-01  8.50000000E-01
  8.50000000E-01  8.50000000E-01  8.50000000E-01  7.20000000E-01  7.20000000E-01
  7.20000000E-01  8.50000000E-01  8.50000000E-01  8.50000000E-01  8.50000000E-01
  8.50000000E-01  8.50000000E-01  8.50000000E-01  7.20000000E-01  7.20000000E-01
  7.20000000E-01  8.50000000E-01  8.50000000E-01  8.50000000E-01  8.50000000E-01
  8.50000000E-01  8.50000000E-01  8.50000000E-01  7.20000000E-01  7.20000000E-01
  7.20000000E-01  8.50000000E-01  8.50000000E-01  8.50000000E-01  8.50000000E-01
  8.50000000E-01  8.50000000E-01  8.50000000E-01  7.20000000E-01  7.20000000E-01
  7.20000000E-01  8.50000000E-01  8.50000000E-01  8.50000000E-01  8.50000000E-01
  8.50000000E-01  8.50000000E-01  8.50000000E-01  7.20000000E-01  7.20000000E-01
  7.20000000E-01  8.50000000E-01  8.50000000E-01  8.50000000E-01  8.50000000E-01
  8.50000000E-01  8.50000000E-01  8.50000000E-01  7.20000000E-01  7.20000000E-01
  7.20000000E-01  8.50000000E-01  8.50000000E-01  8.50000000E-01  8.50000000E-01
  8.50000000E-01  8.50000000E-01  8.50000000E-01  7.20000000E-01  7.20000000E-01
  7.20000000E-01  8.50000000E-01  8.50000000E-01  8.50000000E-01  8.50000000E-01
  8.50000000E-01  8.50000000E-01  8.50000000E-01  7.20000000E-01  7.20000000E-01
  7.20000000E-01  8.50000000E-01  8.50000000E-01  8.50000000E-01  8.50000000E-01
  8.50000000E-01  8.50000000E-01  8.50000000E-01  7.20000000E-01  7.20000000E-01
  7.20000000E-01  8.50000000E-01  8.50000000E-01  8.50000000E-01  8.50000000E-01
  8.50000000E-01  8.50000000E-01  8.50000000E-01  7.20000000E-01  7.20000000E-01
  7.20000000E-01  8.50000000E-01  8.50000000E-01  8.50000000E-01  8.50000000E-01
  8.50000000E-01  8.50000000E-01  8.50000000E-01  7.20000000E-01  7.20000000E-01
  7.20000000E-01  8.50000000E-01  8.50000000E-01  8.50000000E-01  8.50000000E-01
  8.50000000E-01  8.50000000E-01  8.50000000E-01  7.20000000E-01  7.20000000E-01
  7.20000000E-01  8.50000000E-01  8.50000000E-01  8.50000000E-01  8.50000000E-01
  8.50000000E-01  8.50000000E-01  8.50000000E-01  7.20000000E-01  7.20000000E-01
  7.20000000E-01  8.50000000E-01  8.50000000E-01  8.50000000E-01  8.50000000E-01
  8.50000000E-01  8.50000000E-01  8.50000000E-01  7.20000000E-01  7.20000000E-01
  7.20000000E-01  8.50000000E-01  8.50000000E-01  8.50000000E-01  8.50000000E-01
  8.50000000E-01  8.50000000E-01  8.50000000E-01  7.20000000E-01  7.20000000E-01
  7.20000000E-01  8.50000000E-01  8.50000000E-01  8.50000000E-01  8.50000000E-01
  8.50000000E-01  8.50000000E-01  8.50000000E-01  7.20000000E-01  7.20000000E-01
  7.20000000E-01  8.50000000E-01  8.50000000E-01  8.50000000E-01  8.50000000E-01
  8.50000000E-01  8.50000000E-01  8.50000000E-01  7.20000000E-01  7.20000000E-01
  7.20000000E-01  8.50000000E-01  8.50000000E-01  8.50000000E-01  8.50000000E-01
  8.50000000E-01  8.50000000E-01  8.50000000E-01  7.20000000E-01  7.20000000E-01
  7.20000000E-01  8.50000000E-01  8.50000000E-01  8.50000000E-01  8.50000000E-01
  8.50000000E-01  8.50000000E-01  8.50000000E-01  7.20000000E-01  7.20000000E-01
  7.20000000E-01  8.50000000E-01  8.50000000E-01  8.50000000E-01  8.50000000E-01
  8.50000000E-01  8.50000000E-01  8.50000000E-01  7.20000000E-01  7.20000000E-01
  7.20000000E-01  8.50000000E-01  8.50000000E-01  8.50000000E-01  8.50000000E-01
  8.50000000E-01  8.50000000E-01  8.50000000E-01  7.20000000E-01  7.20000000E-01
  7.20000000E-01  8.50000000E-01  8.50000000E-01  8.50000000E-01  8.50000000E-01
  8.50000000E-01  8.50000000E-01  8.50000000E-01  7.20000000E-01  7.20000000E-01
  7.20000000E-01  8.50000000E-01  8.50000000E-01  8.50000000E-01  8.50000000E-01
  8.50000000E-01  8.50000000E-01  8.50000000E-01  7.20000000E-01  7.20000000E-01
  7.20000000E-01  8.50000000E-01  8.50000000E-01  8.50000000E-01  8.50000000E-01
  8.50000000E-01  8.50000000E-01  8.50000000E-01  7.20000000E-01  7.20000000E-01
  7.20000000E-01  8.50000000E-01  8.50000000E-01  8.50000000E-01  8.50000000E-01
  8.50000000E-01  8.50000000E-01  8.50000000E-01  7.20000000E-01  7.20000000E-01
  7.20000000E-01  8.50000000E-01  8.50000000E-01  8.50000000E-01  8.50000000E-01
  8.50000000E-01  8.50000000E-01  8.50000000E-01  7.20000000E-01  7.20000000E-01
  7.20000000E-01  8.50000000E-01  8.50000000E-01  8.50000000E-01  8.50000000E-01
  8.50000000E-01  8.50000000E-01  8.50000000E-01  7.20000000E-01  7.20000000E-01
  7.20000000E-01  8.50000000E-01  8.50000000E-01  8.50000000E-01  8.50000000E-01
  8.50000000E-01  8.50000000E-01  8.50000000E-01  7.20000000E-01  7.20000000E-01
  7.20000000E-01  8.50000000E-01  8.50000000E-01  8.50000000E-01  8.50000000E-01
  8.50000000E-01  8.50000000E-01  8.50000000E-01  7.20000000E-01  7.20000000E-01
  7.20000000E-01  8.50000000E-01  8.50000000E-01  8.50000000E-01  8.50000000E-01
  8.50000000E-01  8.50000000E-01  8.50000000E-01  7.20000000E-01  7.20000000E-01
  7.20000000E-01  8.50000000E-01  8.50000000E-01  8.50000000E-01  8.50000000E-01
  8.50000000E-01  8.50000000E-01  8.50000000E-01  7.20000000E-01  7.20000000E-01
  7.20000000E-01  8.50000000E-01  8.50000000E-01  8.50000000E-01  8.50000000E-01
  8.50000000E-01  8.50000000E-01  8.50000000E-01  7.20000000E-01  7.20000000E-01
  7.20000000E-01  8.50000000E-01  8.50000000E-01  8.50000000E-01  8.50000000E-01
  8.50000000E-01  8.50000000E-01  8.50000000E-01  7.20000000E-01  7.20000000E-01
  7.20000000E-01  8.50000000E-01  8.50000000E-01  8.50000000E-01  8.50000000E-01
  8.50000000E-01  8.50000000E-01  8.50000000E-01  7.20000000E-01  7.20000000E-01
  7.20000000E-01  8.50000000E-01  8.50000000E-01  8.50000000E-01  8.50000000E-01
  8.50000000E-01  8.50000000E-01  8.50000000E-01  7.20000000E-01  7.20000000E-01
  7.20000000E-01  8.50000000E-01  8.50000000E-01  8.50000000E-01  8.50000000E-01
  8.50000000E-01  8.50000000E-01  8.50000000E-01  7.20000000E-01  7.20000000E-01
  7.20000000E-01  8.50000000E-01  8.50000000E-01  8.50000000E-01  8.50000000E-01
  8.50000000E-01  8.50000000E-01  8.50000000E-01  7.20000000E-01  7.20000000E-01
  7.20000000E-01  8.50000000E-01  8.50000000E-01  8.50000000E-01  8.50000000E-01
  8.50000000E-01  8.50000000E-01  8.50000000E-01  7.20000000E-01  7.20000000E-01
  7.20000000E-01  8.50000000E-01  8.50000000E-01  8.50000000E-01  8.50000000E-01
  8.50000000E-01  8.50000000E-01  8.50000000E-01  7.20000000E-01  7.20000000E-01
  7.20000000E-01  8.50000000E-01  8.50000000E-01  8.50000000E-01  8.50000000E-01
  8.50000000E-01  8.50000000E-01  8.50000000E-01  7.20000000E-01  7.20000000E-01
  7.20000000E-01  8.50000000E-01  8.50000000E-01  8.50000000E-01  8.50000000E-01
  8.50000000E-01  8.50000000E-01  8.50000000E-01  7.20000000E-01  7.20000000E-01
  7.20000000E-01  8.50000000E-01  8.50000000E-01  8.50000000E-01  8.50000000E-01
  8.50000000E-01  8.50000000E-01  8.50000000E-01  7.20000000E-01  7.20000000E-01
  7.20000000E-01  8.50000000E-01  8.50000000E-01  8.50000000E-01  8.50000000E-01
  8.50000000E-01  8.50000000E-01  8.50000000E-01  7.20000000E-01  7.20000000E-01
  7.20000000E-01  8.50000000E-01  8.50000000E-01  8.50000000E-01  8.50000000E-01
  8.50000000E-01  8.50000000E-01  8.50000000E-01  7.20000000E-01  7.20000000E-01
  7.20000000E-01  8.50000000E-01  8.50000000E-01  8.50000000E-01  8.50000000E-01
  8.50000000E-01  8.50000000E-01  8.50000000E-01  7.20000000E-01  7.20000000E-01
  7.20000000E-01  8.50000000E-01  8.50000000E-01  8.50000000E-01  8.50000000E-01
  8.50000000E-01  8.50000000E-01  8.50000000E-01  7.20000000E-01  7.20000000E-01
  7.20000000E-01  8.50000000E-01  8.50000000E-01  8.50000000E-01  8.50000000E-01
  8.50000000E-01  8.50000000E-01  8.50000000E-01  7.20000000E-01  7.20000000E-01
  7.20000000E-01  8.50000000E-01  8.50000000E-01  8.50000000E-01  8.50000000E-01
  8.50000000E-01  8.50000000E-01  8.50000000E-01  7.20000000E-01  7.20000000E-01
  7.20000000E-01  8.50000000E-01  8.50000000E-01  8.50000000E-01  8.50000000E-01
  8.50000000E-01  8.50000000E-01  8.50000000E-01  7.20000000E-01  7.20000000E-01
  7.20000000E-01  8.50000000E-01  8.50000000E-01  8.50000000E-01  8.50000000E-01
  8.50000000E-01  8.50000000E-01  8.50000000E-01  7.20000000E-01  7.20000000E-01
  7.20000000E-01  8.50000000E-01  8.50000000E-01  8.50000000E-01  8.50000000E-01
  8.50000000E-01  8.50000000E-01  8.50000000E-01  7.20000000E-01  7.20000000E-01
  7.20000000E-01  8.50000000E-01  8.50000000E-01  8.50000000E-01  8.50000000E-01
  8.50000000E-01  8.50000000E-01  8.50000000E-01  7.20000000E-01  7.20000000E-01
  7.20000000E-01  8.50000000E-01  8.50000000E-01  8.50000000E-01  8.50000000E-01
  8.50000000E-01  8.50000000E-01  8.50000000E-01  7.20000000E-01  7.20000000E-01
  7.20000000E-01  8.50000000E-01  8.50000000E-01  8.50000000E-01  8.50000000E-01
  8.50000000E-01  8.50000000E-01  8.50000000E-01  7.20000000E-01  7.20000000E-01
  7.20000000E-01  8.50000000E-01  8.50000000E-01  8.50000000E-01  8.50000000E-01
  8.50000000E-01  8.50000000E-01  8.50000000E-01  7.20000000E-01  7.20000000E-01
  7.20000000E-01  8.50000000E-01  8.50000000E-01  8.50000000E-01  8.50000000E-01
  8.50000000E-01  8.50000000E-01  8.50000000E-01  7.20000000E-01  7.20000000E-01
  7.20000000E-01  8.50000000E-01  8.50000000E-01  8.50000000E-01  8.50000000E-01
  8.50000000E-01  8.50000000E-01  8.50000000E-01  7.20000000E-01  7.20000000E-01
  7.20000000E-01  8.50000000E-01  8.50000000E-01  8.50000000E-01  8.50000000E-01
  8.50000000E-01  8.50000000E-01  8.50000000E-01  7.20000000E-01  7.20000000E-01
  7.20000000E-01  8.50000000E-01  8.50000000E-01  8.50000000E-01  8.50000000E-01
  8.50000000E-01  8.50000000E-01  8.50000000E-01  7.20000000E-01  7.20000000E-01
  7.20000000E-01  8.50000000E-01  8.50000000E-01  8.50000000E-01  8.50000000E-01
  8.50000000E-01  8.50000000E-01  8.50000000E-01  7.20000000E-01  7.20000000E-01
  7.20000000E-01  8.50000000E-01  8.50000000E-01  8.50000000E-01  8.50000000E-01
  8.50000000E-01  8.50000000E-01  8.50000000E-01  7.20000000E-01  7.20000000E-01
  7.20000000E-01  8.50000000E-01  8.50000000E-01  8.50000000E-01  8.50000000E-01
  8.50000000E-01  8.50000000E-01  8.50000000E-01  7.20000000E-01  7.20000000E-01
  7.20000000E-01  8.50000000E-01  8.50000000E-01  8.50000000E-01  8.50000000E-01
  8.50000000E-01  8.50000000E-01  8.50000000E-01  7.20000000E-01  7.20000000E-01
  7.20000000E-01  8.50000000E-01  8.50000000E-01  8.50000000E-01  8.50000000E-01
  8.50000000E-01  8.50000000E-01  8.50000000E-01  7.20000000E-01  7.20000000E-01
  7.20000000E-01  8.50000000E-01  8.50000000E-01  8.50000000E-01  8.50000000E-01
  8.50000000E-01  8.50000000E-01  8.50000000E-01  7.20000000E-01  7.20000000E-01
  7.20000000E-01  8.50000000E-01  8.50000000E-01  8.50000000E-01  8.50000000E-01
  8.50000000E-01  8.50000000E-01  8.50000000E-01  7.20000000E-01  7.20000000E-01
  7.20000000E-01  8.50000000E-01  8.50000000E-01  8.50000000E-01  8.50000000E-01
  8.50000000E-01  8.50000000E-01  8.50000000E-01  7.20000000E-01  7.20000000E-01
  7.20000000E-01  8.50000000E-01  8.50000000E-01  8.50000000E-01  8.50000000E-01
  8.50000000E-01  8.50000000E-01  8.50000000E-01  7.20000000E-01  7.20000000E-01
  7.20000000E-01  8.50000000E-01  8.50000000E-01  8.50000000E-01  8.50000000E-01
  8.50000000E-01  8.50000000E-01  8.50000000E-01  7.20000000E-01  7.20000000E-01
  7.20000000E-01  8.50000000E-01  8.50000000E-01  8.50000000E-01  8.50000000E-01
  8.50000000E-01  8.50000000E-01  8.50000000E-01  7.20000000E-01  7.20000000E-01
  7.20000000E-01  8.50000000E-01  8.50000000E-01  8.50000000E-01  8.50000000E-01
  8.50000000E-01  8.50000000E-01  8.50000000E-01  7.20000000E-01  7.20000000E-01
  7.20000000E-01  8.50000000E-01  8.50000000E-01  8.50000000E-01  8.50000000E-01
  8.50000000E-01  8.50000000E-01  8.50000000E-01  7.20000000E-01  7.20000000E-01
  7.20000000E-01  8.50000000E-01  8.50000000E-01  8.50000000E-01  8.50000000E-01
  8.50000000E-01  8.50000000E-01  8.50000000E-01  7.20000000E-01  7.20000000E-01
  7.20000000E-01  8.50000000E-01  8.50000000E-01  8.50000000E-01  8.50000000E-01
  8.50000000E-01  8.50000000E-01  8.50000000E-01  7.20000000E-01  7.20000000E-01
  7.20000000E-01  8.50000000E-01  8.50000000E-01  8.50000000E-01  8.50000000E-01
  8.50000000E-01  8.50000000E-01  8.50000000E-01  7.20000000E-01  7.20000000E-01
  7.20000000E-01  8.50000000E-01  8.50000000E-01  8.50000000E-01  8.50000000E-01
  8.50000000E-01  8.50000000E-01  8.50000000E-01  7.20000000E-01  7.20000000E-01
  7.20000000E-01  8.50000000E-01  8.50000000E-01  8.50000000E-01  8.50000000E-01
  8.50000000E-01  8.50000000E-01  8.50000000E-01  7.20000000E-01  7.20000000E-01
  7.20000000E-01  8.50000000E-01  8.50000000E-01  8.50000000E-01  8.50000000E-01
  8.50000000E-01  8.50000000E-01  8.50000000E-01  7.20000000E-01  7.20000000E-01
  7.20000000E-01  8.50000000E-01  8.50000000E-01  8.50000000E-01  8.50000000E-01
  8.50000000E-01  8.50000000E-01  8.50000000E-01  7.20000000E-01  7.20000000E-01
  7.20000000E-01  8.50000000E-01  8.50000000E-01  8.50000000E-01  8.50000000E-01
  8.50000000E-01  8.50000000E-01  8.50000000E-01  7.20000000E-01  7.20000000E-01
  7.20000000E-01  8.50000000E-01  8.50000000E-01  8.50000000E-01  8.50000000E-01
  8.50000000E-01  8.50000000E-01  8.50000000E-01  7.20000000E-01  7.20000000E-01
  7.20000000E-01  8.50000000E-01  8.50000000E-01  8.50000000E-01  8.50000000E-01
  8.50000000E-01  8.50000000E-01  8.50000000E-01  7.20000000E-01  7.20000000E-01
  7.20000000E-01  8.50000000E-01  8.50000000E-01  8.50000000E-01  8.50000000E-01
  8.50000000E-01  8.50000000E-01  8.50000000E-01  7.20000000E-01  7.20000000E-01
  7.20000000E-01  8.50000000E-01  8.50000000E-01  8.50000000E-01  8.50000000E-01
  8.50000000E-01  8.50000000E-01  8.50000000E-01  7.20000000E-01  7.20000000E-01
  7.20000000E-01  8.50000000E-01  8.50000000E-01  8.50000000E-01  8.50000000E-01
  8.50000000E-01  8.50000000E-01  8.50000000E-01  7.20000000E-01  7.20000000E-01
  7.20000000E-01  8.50000000E-01  8.50000000E-01  8.50000000E-01  8.50000000E-01
  8.50000000E-01  8.50000000E-01  8.50000000E-01  7.20000000E-01  7.20000000E-01
  7.20000000E-01  8.50000000E-01  8.50000000E-01  8.50000000E-01  8.50000000E-01
  8.50000000E-01  8.50000000E-01  8.50000000E-01  7.20000000E-01  7.20000000E-01
  7.20000000E-01  8.50000000E-01  8.50000000E-01  8.50000000E-01  8.50000000E-01
  8.50000000E-01  8.50000000E-01  8.50000000E-01  7.20000000E-01  7.20000000E-01
  7.20000000E-01  8.50000000E-01  8.50000000E-01  8.50000000E-01  8.50000000E-01
  8.50000000E-01  8.50000000E-01  8.50000000E-01  7.20000000E-01  7.20000000E-01
  7.20000000E-01  8.50000000E-01  8.50000000E-01  8.50000000E-01  8.50000000E-01
  8.50000000E-01  8.50000000E-01  8.50000000E-01  7.20000000E-01  7.20000000E-01
  7.20000000E-01  8.50000000E-01  8.50000000E-01  8.50000000E-01  8.50000000E-01
  8.50000000E-01  8.50000000E-01  8.50000000E-01  7.20000000E-01  7.20000000E-01
  7.20000000E-01  8.50000000E-01  8.50000000E-01  8.50000000E-01  8.50000000E-01
  8.50000000E-01  8.50000000E-01  8.50000000E-01  7.20000000E-01  7.20000000E-01
  7.20000000E-01  8.50000000E-01  8.50000000E-01  8.50000000E-01  8.50000000E-01
  8.50000000E-01  8.50000000E-01  8.50000000E-01  7.20000000E-01  7.20000000E-01
  7.20000000E-01  8.50000000E-01  8.50000000E-01  8.50000000E-01  8.50000000E-01
  8.50000000E-01  8.50000000E-01  8.50000000E-01  7.20000000E-01  7.20000000E-01
  7.20000000E-01  8.50000000E-01  8.50000000E-01  8.50000000E-01  8.50000000E-01
  8.50000000E-01  8.50000000E-01  8.50000000E-01  7.20000000E-01  7.20000000E-01
  7.20000000E-01  8.50000000E-01  8.50000000E-01  8.50000000E-01  8.50000000E-01
  8.50000000E-01  8.50000000E-01  8.50000000E-01  7.20000000E-01  7.20000000E-01
  7.20000000E-01  8.50000000E-01  8.50000000E-01  8.50000000E-01  8.50000000E-01
  8.50000000E-01  8.50000000E-01  8.50000000E-01  7.20000000E-01  7.20000000E-01
  7.20000000E-01  8.50000000E-01  8.50000000E-01  8.50000000E-01  8.50000000E-01
  8.50000000E-01  8.50000000E-01  8.50000000E-01  7.20000000E-01  7.20000000E-01
  7.20000000E-01  8.50000000E-01  8.50000000E-01  8.50000000E-01  8.50000000E-01
  8.50000000E-01  8.50000000E-01  8.50000000E-01  7.20000000E-01  7.20000000E-01
  7.20000000E-01  8.50000000E-01  8.50000000E-01  8.50000000E-01  8.50000000E-01
  8.50000000E-01  8.50000000E-01  8.50000000E-01  7.20000000E-01  7.20000000E-01
  7.20000000E-01  8.50000000E-01  8.50000000E-01  8.50000000E-01  8.50000000E-01
  8.50000000E-01  8.50000000E-01  8.50000000E-01  7.20000000E-01  7.20000000E-01
  7.20000000E-01  8.50000000E-01  8.50000000E-01  8.50000000E-01  8.50000000E-01
  8.50000000E-01  8.50000000E-01  8.50000000E-01  7.20000000E-01  7.20000000E-01
  7.20000000E-01  8.50000000E-01  8.50000000E-01  8.50000000E-01  8.50000000E-01
  8.50000000E-01  8.50000000E-01  8.50000000E-01  7.20000000E-01  7.20000000E-01
  7.20000000E-01  8.50000000E-01  8.50000000E-01  8.50000000E-01  8.50000000E-01
  8.50000000E-01  8.50000000E-01  8.50000000E-01  7.20000000E-01  7.20000000E-01
  7.20000000E-01  8.50000000E-01  8.50000000E-01  8.50000000E-01  8.50000000E-01
  8.50000000E-01  8.50000000E-01  8.50000000E-01  7.20000000E-01  7.20000000E-01
  7.20000000E-01  8.50000000E-01  8.50000000E-01  8.50000000E-01  8.50000000E-01
  8.50000000E-01  8.50000000E-01  8.50000000E-01  7.20000000E-01  7.20000000E-01
  7.20000000E-01  8.50000000E-01  8.50000000E-01  8.50000000E-01  8.50000000E-01
  8.50000000E-01  8.50000000E-01  8.50000000E-01  7.20000000E-01  7.20000000E-01
  7.20000000E-01  8.50000000E-01  8.50000000E-01  8.50000000E-01  8.50000000E-01
  8.50000000E-01  8.50000000E-01  8.50000000E-01  7.20000000E-01  7.20000000E-01
  7.20000000E-01  8.50000000E-01  8.50000000E-01  8.50000000E-01  8.50000000E-01
  8.50000000E-01  8.50000000E-01  8.50000000E-01  7.20000000E-01  7.20000000E-01
  7.20000000E-01  8.50000000E-01  8.50000000E-01  8.50000000E-01  8.50000000E-01
  8.50000000E-01  8.50000000E-01  8.50000000E-01  7.20000000E-01  7.20000000E-01
  7.20000000E-01  8.50000000E-01  8.50000000E-01  8.50000000E-01  8.50000000E-01
  8.50000000E-01  8.50000000E-01  8.50000000E-01  7.20000000E-01  7.20000000E-01
  7.20000000E-01  8.50000000E-01  8.50000000E-01  8.50000000E-01  8.50000000E-01
  8.50000000E-01  8.50000000E-01  8.50000000E-01  7.20000000E-01  7.20000000E-01
  7.20000000E-01  8.50000000E-01  8.50000000E-01  8.50000000E-01  8.50000000E-01
  8.50000000E-01  8.50000000E-01  8.50000000E-01  7.20000000E-01  7.20000000E-01
  7.20000000E-01  8.50000000E-01  8.50000000E-01  8.50000000E-01  8.50000000E-01
  8.50000000E-01  8.50000000E-01  8.50000000E-01  7.20000000E-01  7.20000000E-01
  7.20000000E-01  8.50000000E-01  8.50000000E-01  8.50000000E-01  8.50000000E-01
  8.50000000E-01  8.50000000E-01  8.50000000E-01  7.20000000E-01  7.20000000E-01
  7.20000000E-01  8.50000000E-01  8.50000000E-01  8.50000000E-01  8.50000000E-01
  8.50000000E-01  8.50000000E-01  8.50000000E-01  7.20000000E-01  7.20000000E-01
  7.20000000E-01  8.50000000E-01  8.50000000E-01  8.50000000E-01  8.50000000E-01
  8.50000000E-01  8.50000000E-01  8.50000000E-01  7.20000000E-01  7.20000000E-01
  7.20000000E-01  8.50000000E-01  8.50000000E-01  8.50000000E-01  8.50000000E-01
  8.50000000E-01  8.50000000E-01  8.50000000E-01  7.20000000E-01  7.20000000E-01
  7.20000000E-01  8.50000000E-01  8.50000000E-01  8.50000000E-01  8.50000000E-01
  8.50000000E-01  8.50000000E-01  8.50000000E-01  7.20000000E-01  7.20000000E-01
  7.20000000E-01  8.50000000E-01  8.50000000E-01  8.50000000E-01  8.50000000E-01
  8.50000000E-01  8.50000000E-01  8.50000000E-01  7.20000000E-01  7.20000000E-01
  7.20000000E-01  8.50000000E-01  8.50000000E-01  8.50000000E-01  8.50000000E-01
  8.50000000E-01  8.50000000E-01  8.50000000E-01  7.20000000E-01  7.20000000E-01
  7.20000000E-01  8.50000000E-01  8.50000000E-01  8.50000000E-01  8.50000000E-01
  8.50000000E-01  8.50000000E-01  8.50000000E-01  7.20000000E-01  7.20000000E-01
  7.20000000E-01  8.50000000E-01  8.50000000E-01  8.50000000E-01  8.50000000E-01
  8.50000000E-01  8.50000000E-01  8.50000000E-01  7.20000000E-01  7.20000000E-01
  7.20000000E-01  8.50000000E-01  8.50000000E-01  8.50000000E-01  8.50000000E-01
  8.50000000E-01  8.50000000E-01  8.50000000E-01  7.20000000E-01  7.20000000E-01
  7.20000000E-01  8.50000000E-01  8.50000000E-01  8.50000000E-01  8.50000000E-01
  8.50000000E-01  8.50000000E-01  8.50000000E-01  7.20000000E-01  7.20000000E-01
  7.20000000E-01  8.50000000E-01  8.50000000E-01  8.50000000E-01  8.50000000E-01
  8.50000000E-01  8.50000000E-01  8.50000000E-01  7.20000000E-01  7.20000000E-01
  7.20000000E-01  8.50000000E-01  8.50000000E-01  8.50000000E-01  8.50000000E-01
  8.50000000E-01  8.50000000E-01  8.50000000E-01  7.20000000E-01  7.20000000E-01
  7.20000000E-01  8.50000000E-01  8.50000000E-01  8.50000000E-01  8.50000000E-01
  8.50000000E-01  8.50000000E-01  8.50000000E-01  7.20000000E-01  7.20000000E-01
  7.20000000E-01  8.50000000E-01  8.50000000E-01  8.50000000E-01  8.50000000E-01
  8.50000000E-01  8.50000000E-01  8.50000000E-01  7.20000000E-01  7.20000000E-01
  7.20000000E-01  8.50000000E-01  8.50000000E-01  8.50000000E-01  8.50000000E-01
  8.50000000E-01  8.50000000E-01  8.50000000E-01  7.20000000E-01  7.20000000E-01
  7.20000000E-01  8.50000000E-01  8.50000000E-01  8.50000000E-01  8.50000000E-01
  8.50000000E-01  8.50000000E-01  8.50000000E-01  7.20000000E-01  7.20000000E-01
  7.20000000E-01  8.50000000E-01  8.50000000E-01  8.50000000E-01  8.50000000E-01
  8.50000000E-01  8.50000000E-01  8.50000000E-01  7.20000000E-01  7.20000000E-01
  7.20000000E-01  8.50000000E-01  8.50000000E-01  8.50000000E-01  8.50000000E-01
  8.50000000E-01  8.50000000E-01  8.50000000E-01  7.20000000E-01  7.20000000E-01
  7.20000000E-01  8.50000000E-01  8.50000000E-01  8.50000000E-01  8.50000000E-01
  8.50000000E-01  8.50000000E-01  8.50000000E-01  7.20000000E-01  7.20000000E-01
  7.20000000E-01  8.50000000E-01  8.50000000E-01  8.50000000E-01  8.50000000E-01
  8.50000000E-01  8.50000000E-01  8.50000000E-01  7.20000000E-01  7.20000000E-01
  7.20000000E-01  8.50000000E-01  8.50000000E-01  8.50000000E-01  8.50000000E-01
  8.50000000E-01  8.50000000E-01  8.50000000E-01  7.20000000E-01  7.20000000E-01
  7.20000000E-01  8.50000000E-01  8.50000000E-01  8.50000000E-01  8.50000000E-01
  8.50000000E-01  8.50000000E-01  8.50000000E-01  7.20000000E-01  7.20000000E-01
  7.20000000E-01  8.50000000E-01  8.50000000E-01  8.50000000E-01  8.50000000E-01
  8.50000000E-01  8.50000000E-01  8.50000000E-01  7.20000000E-01  7.20000000E-01
  7.20000000E-01  8.50000000E-01  8.50000000E-01  8.50000000E-01  8.50000000E-01
  8.50000000E-01  8.50000000E-01  8.50000000E-01  7.20000000E-01  7.20000000E-01
  7.20000000E-01  8.50000000E-01  8.50000000E-01  8.50000000E-01  8.50000000E-01
  8.50000000E-01  8.50000000E-01  8.50000000E-01  7.20000000E-01  7.20000000E-01
  7.20000000E-01  8.50000000E-01  8.50000000E-01  8.50000000E-01  8.50000000E-01
  8.50000000E-01  8.50000000E-01  8.50000000E-01  7.20000000E-01  7.20000000E-01
  7.20000000E-01  8.50000000E-01  8.50000000E-01  8.50000000E-01  8.50000000E-01
  8.50000000E-01  8.50000000E-01  8.50000000E-01  7.20000000E-01  7.20000000E-01
  7.20000000E-01  8.50000000E-01  8.50000000E-01  8.50000000E-01  8.50000000E-01
  8.50000000E-01  8.50000000E-01  8.50000000E-01  7.20000000E-01  7.20000000E-01
  7.20000000E-01  8.50000000E-01  8.50000000E-01  8.50000000E-01  8.50000000E-01
  8.50000000E-01  8.50000000E-01  8.50000000E-01  7.20000000E-01  7.20000000E-01
  7.20000000E-01  8.50000000E-01  8.50000000E-01  8.50000000E-01  8.50000000E-01
  8.50000000E-01  8.50000000E-01  8.50000000E-01  7.20000000E-01  7.20000000E-01
  7.20000000E-01  8.50000000E-01  8.50000000E-01  8.50000000E-01  8.50000000E-01
  8.50000000E-01  8.50000000E-01  8.50000000E-01  7.20000000E-01  7.20000000E-01
  7.20000000E-01  8.50000000E-01  8.50000000E-01  8.50000000E-01  8.50000000E-01
  8.50000000E-01  8.50000000E-01  8.50000000E-01  7.20000000E-01  7.20000000E-01
  7.20000000E-01  8.50000000E-01  8.50000000E-01  8.50000000E-01  8.50000000E-01
  8.50000000E-01  8.50000000E-01  8.50000000E-01  7.20000000E-01  7.20000000E-01
  7.20000000E-01  8.50000000E-01  8.50000000E-01  8.50000000E-01  8.50000000E-01
  8.50000000E-01  8.50000000E-01  8.50000000E-01  7.20000000E-01  7.20000000E-01
  7.20000000E-01  8.50000000E-01  8.50000000E-01  8.50000000E-01  8.50000000E-01
  8.50000000E-01  8.50000000E-01  8.50000000E-01  7.20000000E-01  7.20000000E-01
  7.20000000E-01  8.50000000E-01  8.50000000E-01  8.50000000E-01  8.50000000E-01
  8.50000000E-01  8.50000000E-01  8.50000000E-01  7.20000000E-01  7.20000000E-01
  7.20000000E-01  8.50000000E-01  8.50000000E-01  8.50000000E-01  8.50000000E-01
  8.50000000E-01  8.50000000E-01  8.50000000E-01  7.20000000E-01  7.20000000E-01
  7.20000000E-01  8.50000000E-01  8.50000000E-01  8.50000000E-01  8.50000000E-01
  8.50000000E-01  8.50000000E-01  8.50000000E-01  7.20000000E-01  7.20000000E-01
  7.20000000E-01  8.50000000E-01  8.50000000E-01  8.50000000E-01  8.50000000E-01
  8.50000000E-01  8.50000000E-01  8.50000000E-01  7.20000000E-01  7.20000000E-01
  7.20000000E-01  8.50000000E-01  8.50000000E-01  8.50000000E-01  8.50000000E-01
  8.50000000E-01  8.50000000E-01  8.50000000E-01  7.20000000E-01  7.20000000E-01
  7.20000000E-01  8.50000000E-01  8.50000000E-01  8.50000000E-01  8.50000000E-01
  8.50000000E-01  8.50000000E-01  8.50000000E-01  7.20000000E-01  7.20000000E-01
  7.20000000E-01  8.50000000E-01  8.50000000E-01  8.50000000E-01  8.50000000E-01
  8.50000000E-01  8.50000000E-01  8.50000000E-01  7.20000000E-01  7.20000000E-01
  7.20000000E-01  8.50000000E-01  8.50000000E-01  8.50000000E-01  8.50000000E-01
  8.50000000E-01  8.50000000E-01  8.50000000E-01  7.20000000E-01  7.20000000E-01
  7.20000000E-01  8.50000000E-01  8.50000000E-01  8.50000000E-01  8.50000000E-01
  8.50000000E-01  8.50000000E-01  8.50000000E-01  7.20000000E-01  7.20000000E-01
  7.20000000E-01  8.50000000E-01  8.50000000E-01  8.50000000E-01  8.50000000E-01
  8.50000000E-01  8.50000000E-01  8.50000000E-01  7.20000000E-01  7.20000000E-01
  7.20000000E-01  8.50000000E-01  8.50000000E-01  8.50000000E-01  8.50000000E-01
  8.50000000E-01  8.50000000E-01  8.50000000E-01  7.20000000E-01  7.20000000E-01
  7.20000000E-01  8.50000000E-01  8.50000000E-01  8.50000000E-01  8.50000000E-01
  8.50000000E-01  8.50000000E-01  8.50000000E-01  7.20000000E-01  7.20000000E-01
  7.20000000E-01  8.50000000E-01  8.50000000E-01  8.50000000E-01  8.50000000E-01
  8.50000000E-01  8.50000000E-01  8.50000000E-01  7.20000000E-01  7.20000000E-01
  7.20000000E-01  8.50000000E-01  8.50000000E-01  8.50000000E-01  8.50000000E-01
  8.50000000E-01  8.50000000E-01  8.50000000E-01  7.20000000E-01  7.20000000E-01
  7.20000000E-01  8.50000000E-01  8.50000000E-01  8.50000000E-01  8.50000000E-01
  8.50000000E-01  8.50000000E-01  8.50000000E-01  7.20000000E-01  7.20000000E-01
  7.20000000E-01  8.50000000E-01  8.50000000E-01  8.50000000E-01  8.50000000E-01
  8.50000000E-01  8.50000000E-01  8.50000000E-01  7.20000000E-01  7.20000000E-01
  7.20000000E-01  8.50000000E-01  8.50000000E-01  8.50000000E-01  8.50000000E-01
  8.50000000E-01  8.50000000E-01  8.50000000E-01  7.20000000E-01  7.20000000E-01
  7.20000000E-01  8.50000000E-01  8.50000000E-01  8.50000000E-01  8.50000000E-01
  8.50000000E-01  8.50000000E-01  8.50000000E-01  7.20000000E-01  7.20000000E-01
  7.20000000E-01  8.50000000E-01  8.50000000E-01  8.50000000E-01  8.50000000E-01
  8.50000000E-01  8.50000000E-01  8.50000000E-01  7.20000000E-01  7.20000000E-01
  7.20000000E-01  8.50000000E-01  8.50000000E-01  8.50000000E-01  8.50000000E-01
  8.50000000E-01  8.50000000E-01
%FLAG IPOL                                                                      
%FORMAT(1I8)                                                                    
       0
