default_name
 17640
  10.4330000  29.0730000  63.2440000   9.4480000  29.0780000  64.2630000
  11.6770000  28.3440000  63.4760000  10.2620000  29.7530000  62.0310000
   9.6440000  28.4190000  65.4640000   8.6340000  29.5460000  64.1180000
  11.8470000  27.6670000  64.7000000  12.6530000  28.3390000  62.4720000
  11.2380000  29.7480000  61.0270000   9.4480000  30.2260000  61.9000000
   8.6600000  28.4360000  66.5010000  10.8750000  27.6950000  65.6900000
  12.6480000  27.1800000  64.8520000  13.4660000  27.8670000  62.6030000
  12.4820000  29.0190000  61.2590000  11.0670000  30.4250000  59.8030000
   8.8710000  27.7920000  67.6730000   7.8450000  28.9050000  66.3650000
  11.0460000  27.0350000  66.9440000  13.4660000  29.0140000  60.2400000
  12.0400000  30.3980000  58.8130000  10.2660000  30.9120000  59.6510000
  10.0890000  27.0780000  67.9020000   8.2040000  27.8150000  68.3490000
  11.8490000  26.5540000  67.1100000  14.2810000  28.5470000  60.3850000
  13.2710000  29.6730000  59.0400000  11.8680000  31.0580000  57.5590000
  10.2270000  26.6330000  68.7300000  14.2550000  29.6570000  58.0020000
  12.8260000  31.0150000  56.6010000  11.0660000  31.5390000  57.3940000
  14.0440000  30.3000000  56.8300000  15.0700000  29.1880000  58.1390000
  12.6870000  31.4600000  55.7730000  14.7100000  30.2770000  56.1540000
  12.2160000  30.1440000  33.1460000  13.2000000  30.1390000  32.1260000
  10.9710000  30.8730000  32.9140000  12.3860000  29.4640000  34.3590000
  13.0040000  30.7980000  30.9260000  14.0140000  29.6710000  32.2710000
  10.8010000  31.5500000  31.6890000   9.9960000  30.8780000  33.9170000
  11.4100000  29.4690000  35.3620000  13.2000000  28.9910000  34.4890000
  13.9890000  30.7820000  29.8890000  11.7740000  31.5230000  30.7000000
  10.0000000  32.0370000  31.5370000   9.1820000  31.3510000  33.7870000
  10.1660000  30.1980000  35.1300000  11.5810000  28.7920000  36.5870000
  13.7770000  31.4250000  28.7160000  14.8030000  30.3130000  30.0250000
  11.6020000  32.1830000  29.4460000   9.1820000  30.2030000  36.1500000
  10.6080000  28.8200000  37.5760000  12.3820000  28.3050000  36.7380000
  12.5590000  32.1390000  28.4870000  14.4440000  31.4020000  28.0400000
  10.7990000  32.6640000  29.2800000   8.3680000  30.6710000  36.0050000
   9.3780000  29.5440000  37.3500000  10.7800000  28.1600000  38.8300000
  12.4210000  32.5850000  27.6590000   8.3930000  29.5610000  38.3870000
   9.8220000  28.2030000  39.7890000  11.5830000  27.6790000  38.9960000
   8.6050000  28.9170000  39.5600000   7.5790000  30.0300000  38.2510000
   9.9610000  27.7580000  40.6170000   7.9380000  28.9400000  40.2360000
  13.1110000  60.9130000  35.1300000  12.1260000  60.9170000  36.1500000
  14.3550000  60.1830000  35.3620000  12.9400000  61.5930000  33.9170000
  12.3220000  60.2580000  37.3500000  11.3120000  61.3850000  36.0050000
  14.5250000  59.5070000  36.5870000  15.3310000  60.1780000  34.3590000
  13.9160000  61.5880000  32.9140000  12.1270000  62.0650000  33.7870000
  11.3380000  60.2750000  38.3870000  13.5530000  59.5340000  37.5760000
  15.3270000  59.0190000  36.7380000  16.1440000  59.7060000  34.4890000
  15.1600000  60.8580000  33.1460000  13.7460000  62.2640000  31.6890000
  11.5490000  59.6320000  39.5600000  10.5230000  60.7440000  38.2510000
  13.7250000  58.8740000  38.8300000  16.1440000  60.8530000  32.1260000
  14.7180000  62.2370000  30.7000000  12.9440000  62.7520000  31.5370000
  12.7670000  58.9170000  39.7890000  10.8830000  59.6550000  40.2360000
  14.5270000  58.3930000  38.9960000  16.9590000  60.3860000  32.2710000
  15.9490000  61.5130000  30.9260000  14.5460000  62.8970000  29.4460000
  12.9050000  58.4720000  40.6170000  16.9330000  61.4960000  29.8890000
  15.5040000  62.8540000  28.4870000  13.7440000  63.3780000  29.2800000
  16.7220000  62.1390000  28.7160000  17.7480000  61.0270000  30.0250000
  15.3660000  63.2990000  27.6590000  17.3880000  62.1160000  28.0400000
  14.1130000  67.4660000  63.2440000  13.1290000  67.4710000  64.2630000
  15.3570000  66.7370000  63.4760000  13.9430000  68.1460000  62.0310000
  13.3250000  66.8120000  65.4640000  12.3150000  67.9390000  64.1180000
  15.5280000  66.0600000  64.7000000  16.3330000  66.7320000  62.4720000
  14.9180000  68.1410000  61.0270000  13.1290000  68.6190000  61.9000000
  12.3400000  66.8290000  66.5010000  14.5550000  66.0880000  65.6900000
  16.3290000  65.5730000  64.8520000  17.1470000  66.2590000  62.6030000
  16.1630000  67.4120000  61.2590000  14.7480000  68.8180000  59.8030000
  12.5520000  66.1850000  67.6730000  11.5260000  67.2980000  66.3650000
  14.7270000  65.4280000  66.9440000  17.1470000  67.4070000  60.2400000
  15.7210000  68.7910000  58.8130000  13.9470000  69.3050000  59.6510000
  13.7690000  65.4710000  67.9020000  11.8850000  66.2080000  68.3490000
  15.5300000  64.9470000  67.1100000  17.9610000  66.9390000  60.3850000
  16.9510000  68.0660000  59.0400000  15.5490000  69.4510000  57.5590000
  13.9080000  65.0260000  68.7300000  17.9360000  68.0500000  58.0020000
  16.5060000  69.4080000  56.6010000  14.7460000  69.9320000  57.3940000
  17.7240000  68.6930000  56.8300000  18.7500000  67.5810000  58.1390000
  16.3680000  69.8530000  55.7730000  18.3910000  68.6700000  56.1540000
  13.4530000  41.0990000  47.2020000  14.4370000  41.0950000  46.1830000
  12.2090000  41.8290000  46.9700000  13.6240000  40.4190000  48.4150000
  14.2420000  41.7540000  44.9830000  15.2520000  40.6270000  46.3280000
  12.0380000  42.5050000  45.7460000  11.2330000  41.8340000  47.9740000
  12.6480000  40.4240000  49.4190000  14.4370000  39.9470000  48.5460000
  15.2260000  41.7370000  43.9450000  13.0110000  42.4780000  44.7560000
  11.2370000  42.9930000  45.5940000  10.4190000  42.3060000  47.8430000
  11.4040000  41.1540000  49.1870000  12.8180000  39.7480000  50.6430000
  15.0150000  42.3800000  42.7730000  16.0410000  41.2680000  44.0820000
  12.8390000  43.1380000  43.5030000  10.4190000  41.1590000  50.2060000
  11.8460000  39.7750000  51.6330000  13.6190000  39.2600000  50.7950000
  13.7970000  43.0950000  42.5440000  15.6810000  42.3570000  42.0970000
  12.0370000  43.6190000  43.3370000   9.6050000  41.6260000  50.0620000
  10.6150000  40.4990000  51.4070000  12.0170000  39.1150000  52.8870000
  13.6580000  43.5400000  41.7160000   9.6310000  40.5160000  52.4440000
  11.0600000  39.1580000  53.8460000  12.8200000  38.6340000  53.0530000
   9.8420000  39.8730000  53.6170000   8.8160000  40.9850000  52.3080000
  11.1980000  38.7130000  54.6740000   9.1750000  39.8960000  54.2930000
  11.9490000  31.2690000   5.0320000  12.9340000  31.2640000   4.0130000
  10.7050000  31.9980000   4.8000000  12.1200000  30.5890000   6.2450000
  12.7380000  31.9230000   2.8120000  13.7480000  30.7960000   4.1580000
  10.5350000  32.6750000   3.5760000   9.7290000  32.0030000   5.8040000
  11.1440000  30.5940000   7.2490000  12.9330000  30.1160000   6.3760000
  13.7220000  31.9060000   1.7750000  11.5070000  32.6480000   2.5860000
   9.7330000  33.1620000   3.4240000   8.9160000  32.4760000   5.6730000
   9.9000000  31.3230000   7.0170000  11.3140000  29.9170000   8.4730000
  13.5110000  32.5500000   0.6030000  14.5370000  31.4380000   1.9110000
  11.3350000  33.3070000   1.3320000   8.9160000  31.3280000   8.0360000
  10.3420000  29.9440000   9.4630000  12.1160000  29.4300000   8.6250000
  12.2930000  33.2640000   0.3740000  14.1770000  32.5270000  -0.0730000
  10.5330000  33.7890000   1.1660000   8.1010000  31.7960000   7.8910000
   9.1110000  30.6690000   9.2360000  10.5140000  29.2850000  10.7170000
  12.1550000  33.7100000  -0.4540000   8.1270000  30.6860000  10.2740000
   9.5560000  29.3280000  11.6750000  11.3160000  28.8030000  10.8820000
   8.3380000  30.0420000  11.4460000   7.3120000  31.1540000  10.1370000
   9.6940000  28.8830000  12.5030000   7.6720000  30.0650000  12.1220000
  13.1870000  42.2240000  19.0890000  14.1710000  42.2190000  18.0700000
  11.9420000  42.9540000  18.8570000  13.3570000  41.5440000  20.3020000
  13.9750000  42.8790000  16.8690000  14.9850000  41.7520000  18.2140000
  11.7720000  43.6300000  17.6320000  10.9670000  42.9590000  19.8600000
  12.3810000  41.5490000  21.3060000  14.1710000  41.0720000  20.4330000
  14.9600000  42.8620000  15.8320000  12.7450000  43.6030000  16.6430000
  10.9710000  44.1180000  17.4810000  10.1530000  43.4310000  19.7300000
  11.1370000  42.2790000  21.0740000  12.5520000  40.8730000  22.5300000
  14.7480000  43.5050000  14.6590000  15.7740000  42.3930000  15.9680000
  12.5730000  44.2630000  15.3890000  10.1530000  42.2830000  22.0930000
  11.5790000  40.9000000  23.5190000  13.3530000  40.3850000  22.6820000
  13.5300000  44.2200000  14.4300000  15.4150000  43.4820000  13.9830000
  11.7700000  44.7440000  15.2230000   9.3390000  42.7510000  21.9480000
  10.3490000  41.6240000  23.2930000  11.7510000  40.2400000  24.7730000
  13.3920000  44.6650000  13.6020000   9.3640000  41.6410000  24.3310000
  10.7930000  40.2830000  25.7320000  12.5540000  39.7590000  24.9390000
   9.5760000  40.9980000  25.5030000   8.5500000  42.1100000  24.1940000
  10.9320000  39.8380000  26.5600000   8.9090000  41.0210000  26.1790000
  12.6410000  52.1090000  63.2440000  11.6570000  52.1140000  64.2630000
  13.8850000  51.3800000  63.4760000  12.4700000  52.7890000  62.0310000
  11.8520000  51.4550000  65.4640000  10.8420000  52.5820000  64.1180000
  14.0560000  50.7030000  64.7000000  14.8610000  51.3750000  62.4720000
  13.4460000  52.7840000  61.0270000  11.6570000  53.2620000  61.9000000
  10.8680000  51.4720000  66.5010000  13.0830000  50.7300000  65.6900000
  14.8570000  50.2160000  64.8520000  15.6750000  50.9020000  62.6030000
  14.6900000  52.0550000  61.2590000  13.2760000  53.4610000  59.8030000
  11.0790000  50.8280000  67.6730000  10.0530000  51.9400000  66.3650000
  13.2550000  50.0710000  66.9440000  15.6750000  52.0500000  60.2400000
  14.2480000  53.4340000  58.8130000  12.4750000  53.9480000  59.6510000
  12.2970000  50.1140000  67.9020000  10.4130000  50.8510000  68.3490000
  14.0570000  49.5890000  67.1100000  16.4890000  51.5820000  60.3850000
  15.4790000  52.7090000  59.0400000  14.0770000  54.0930000  57.5590000
  12.4360000  49.6680000  68.7300000  16.4630000  52.6920000  58.0020000
  15.0340000  54.0500000  56.6010000  13.2740000  54.5750000  57.3940000
  16.2520000  53.3360000  56.8300000  17.2780000  52.2240000  58.1390000
  14.8960000  54.4950000  55.7730000  16.9190000  53.3130000  56.1540000
  13.4210000  46.6260000   5.0320000  14.4060000  46.6210000   4.0130000
  12.1770000  47.3550000   4.8000000  13.5920000  45.9460000   6.2450000
  14.2100000  47.2800000   2.8120000  15.2200000  46.1540000   4.1580000
  12.0070000  48.0320000   3.5760000  11.2020000  47.3600000   5.8040000
  12.6160000  45.9510000   7.2490000  14.4060000  45.4740000   6.3760000
  15.1940000  47.2640000   1.7750000  12.9790000  48.0050000   2.5860000
  11.2060000  48.5200000   3.4240000  10.3880000  47.8330000   5.6730000
  11.3720000  46.6800000   7.0170000  12.7870000  45.2740000   8.4730000
  14.9830000  47.9070000   0.6030000  16.0090000  46.7950000   1.9110000
  12.8080000  48.6650000   1.3320000  10.3880000  46.6850000   8.0360000
  11.8140000  45.3020000   9.4630000  13.5880000  44.7870000   8.6250000
  13.7650000  48.6220000   0.3740000  15.6500000  47.8840000  -0.0730000
  12.0050000  49.1460000   1.1660000   9.5730000  47.1530000   7.8910000
  10.5830000  46.0260000   9.2360000  11.9860000  44.6420000  10.7170000
  13.6270000  49.0670000  -0.4540000   9.5990000  46.0430000  10.2740000
  11.0280000  44.6850000  11.6750000  12.7890000  44.1610000  10.8820000
   9.8100000  45.3990000  11.4460000   8.7840000  46.5120000  10.1370000
  11.1670000  44.2400000  12.5030000   9.1440000  45.4230000  12.1220000
  11.2450000  18.0640000  47.2020000  12.2290000  18.0590000  46.1830000
  10.0010000  18.7930000  46.9700000  11.4150000  17.3840000  48.4150000
  12.0330000  18.7180000  44.9830000  13.0430000  17.5910000  46.3280000
   9.8300000  19.4700000  45.7460000   9.0250000  18.7980000  47.9740000
  10.4390000  17.3890000  49.4190000  12.2290000  16.9110000  48.5460000
  13.0180000  18.7010000  43.9450000  10.8030000  19.4420000  44.7560000
   9.0290000  19.9570000  45.5940000   8.2110000  19.2700000  47.8430000
   9.1950000  18.1180000  49.1870000  10.6100000  16.7120000  50.6430000
  12.8060000  19.3450000  42.7730000  13.8320000  18.2320000  44.0820000
  10.6310000  20.1020000  43.5030000   8.2110000  18.1230000  50.2060000
   9.6370000  16.7390000  51.6330000  11.4110000  16.2240000  50.7950000
  11.5890000  20.0590000  42.5440000  13.4730000  19.3210000  42.0970000
   9.8280000  20.5830000  43.3370000   7.3970000  18.5900000  50.0620000
   8.4070000  17.4630000  51.4070000   9.8090000  16.0790000  52.8870000
  11.4500000  20.5040000  41.7160000   7.4220000  17.4800000  52.4440000
   8.8510000  16.1220000  53.8460000  10.6120000  15.5980000  53.0530000
   7.6340000  16.8370000  53.6170000   6.6080000  17.9490000  52.3080000
   8.9900000  15.6770000  54.6740000   6.9670000  16.8600000  54.2930000
  10.2420000  11.5100000  19.0890000  11.2260000  11.5050000  18.0700000
   8.9980000  12.2390000  18.8570000  10.4130000  10.8300000  20.3020000
  11.0310000  12.1640000  16.8690000  12.0410000  11.0370000  18.2140000
   8.8280000  12.9160000  17.6320000   8.0220000  12.2440000  19.8600000
   9.4370000  10.8350000  21.3060000  11.2260000  10.3570000  20.4330000
  12.0150000  12.1470000  15.8320000   9.8000000  12.8890000  16.6430000
   8.0260000  13.4030000  17.4810000   7.2090000  12.7170000  19.7300000
   8.1930000  11.5640000  21.0740000   9.6070000  10.1580000  22.5300000
  11.8040000  12.7910000  14.6590000  12.8300000  11.6790000  15.9680000
   9.6280000  13.5480000  15.3890000   7.2080000  11.5690000  22.0930000
   8.6350000  10.1860000  23.5190000  10.4090000   9.6710000  22.6820000
  10.5860000  13.5050000  14.4300000  12.4700000  12.7680000  13.9830000
   8.8260000  14.0300000  15.2230000   6.3940000  12.0370000  21.9480000
   7.4040000  10.9100000  23.2930000   8.8070000   9.5260000  24.7730000
  10.4480000  13.9510000  13.6020000   6.4200000  10.9270000  24.3310000
   7.8490000   9.5690000  25.7320000   9.6090000   9.0440000  24.9390000
   6.6310000  10.2830000  25.5030000   5.6050000  11.3960000  24.1940000
   7.9870000   9.1240000  26.5600000   5.9650000  10.3060000  26.1790000
   9.7410000   8.2330000   5.0320000  10.7250000   8.2280000   4.0130000
   8.4970000   8.9620000   4.8000000   9.9110000   7.5530000   6.2450000
  10.5300000   8.8870000   2.8120000  11.5400000   7.7610000   4.1580000
   8.3260000   9.6390000   3.5760000   7.5210000   8.9670000   5.8040000
   8.9360000   7.5580000   7.2490000  10.7250000   7.0810000   6.3760000
  11.5140000   8.8710000   1.7750000   9.2990000   9.6120000   2.5860000
   7.5250000  10.1270000   3.4240000   6.7070000   9.4400000   5.6730000
   7.6920000   8.2870000   7.0170000   9.1060000   6.8810000   8.4730000
  11.3030000   9.5140000   0.6030000  12.3280000   8.4020000   1.9110000
   9.1270000  10.2720000   1.3320000   6.7070000   8.2920000   8.0360000
   8.1340000   6.9090000   9.4630000   9.9070000   6.3940000   8.6250000
  10.0850000  10.2290000   0.3740000  11.9690000   9.4910000  -0.0730000
   8.3240000  10.7530000   1.1660000   5.8930000   8.7600000   7.8910000
   6.9030000   7.6330000   9.2360000   8.3050000   6.2490000  10.7170000
   9.9460000  10.6740000  -0.4540000   5.9190000   7.6500000  10.2740000
   7.3480000   6.2920000  11.6750000   9.1080000   5.7680000  10.8820000
   6.1300000   7.0060000  11.4460000   5.1040000   8.1190000  10.1370000
   7.4860000   5.8470000  12.5030000   5.4630000   7.0300000  12.1220000
   9.6970000  21.3950000  63.2440000   8.7120000  21.4000000  64.2630000
  10.9410000  20.6660000  63.4760000   9.5260000  22.0750000  62.0310000
   8.9080000  20.7400000  65.4640000   7.8980000  21.8670000  64.1180000
  11.1110000  19.9890000  64.7000000  11.9160000  20.6600000  62.4720000
  10.5020000  22.0700000  61.0270000   8.7120000  22.5470000  61.9000000
   7.9240000  20.7570000  66.5010000  10.1390000  20.0160000  65.6900000
  11.9120000  19.5010000  64.8520000  12.7300000  20.1880000  62.6030000
  11.7460000  21.3400000  61.2590000  10.3310000  22.7460000  59.8030000
   8.1350000  20.1140000  67.6730000   7.1090000  21.2260000  66.3650000
  10.3100000  19.3560000  66.9440000  12.7300000  21.3360000  60.2400000
  11.3040000  22.7190000  58.8130000   9.5300000  23.2340000  59.6510000
   9.3530000  19.3990000  67.9020000   7.4680000  20.1370000  68.3490000
  11.1130000  18.8750000  67.1100000  13.5450000  20.8680000  60.3850000
  12.5350000  21.9950000  59.0400000  11.1320000  23.3790000  57.5590000
   9.4910000  18.9540000  68.7300000  13.5190000  21.9780000  58.0020000
  12.0900000  23.3360000  56.6010000  10.3290000  23.8600000  57.3940000
  13.3080000  22.6220000  56.8300000  14.3340000  21.5090000  58.1390000
  11.9510000  23.7810000  55.7730000  13.9740000  22.5980000  56.1540000
  10.7430000  14.7870000  33.1460000  11.7280000  14.7820000  32.1260000
   9.4990000  15.5160000  32.9140000  10.9140000  14.1070000  34.3590000
  11.5320000  15.4410000  30.9260000  12.5420000  14.3140000  32.2710000
   9.3290000  16.1930000  31.6890000   8.5240000  15.5210000  33.9170000
   9.9380000  14.1120000  35.3620000  11.7280000  13.6340000  34.4890000
  12.5160000  15.4240000  29.8890000  10.3010000  16.1650000  30.7000000
   8.5280000  16.6800000  31.5370000   7.7100000  15.9940000  33.7870000
   8.6940000  14.8410000  35.1300000  10.1090000  13.4350000  36.5870000
  12.3050000  16.0680000  28.7160000  13.3310000  14.9550000  30.0250000
  10.1300000  16.8250000  29.4460000   7.7100000  14.8460000  36.1500000
   9.1360000  13.4620000  37.5760000  10.9100000  12.9480000  36.7380000
  11.0870000  16.7820000  28.4870000  12.9720000  16.0450000  28.0400000
   9.3270000  17.3070000  29.2800000   6.8950000  15.3140000  36.0050000
   7.9050000  14.1870000  37.3500000   9.3080000  12.8020000  38.8300000
  10.9490000  17.2270000  27.6590000   6.9210000  14.2040000  38.3870000
   8.3500000  12.8460000  39.7890000  10.1100000  12.3210000  38.9960000
   7.1320000  13.5600000  39.5600000   6.1060000  14.6720000  38.2510000
   8.4890000  12.4000000  40.6170000   6.4660000  13.5830000  40.2360000
  10.9780000  19.1890000  19.0890000  11.9630000  19.1840000  18.0700000
   9.7340000  19.9180000  18.8570000  11.1490000  18.5080000  20.3020000
  11.7670000  19.8430000  16.8690000  12.7770000  18.7160000  18.2140000
   9.5640000  20.5940000  17.6320000   8.7580000  19.9230000  19.8600000
  10.1730000  18.5140000  21.3060000  11.9620000  18.0360000  20.4330000
  12.7510000  19.8260000  15.8320000  10.5360000  20.5670000  16.6430000
   8.7620000  21.0820000  17.4810000   7.9450000  20.3950000  19.7300000
   8.9290000  19.2430000  21.0740000  10.3430000  17.8370000  22.5300000
  12.5400000  20.4700000  14.6590000  13.5660000  19.3570000  15.9680000
  10.3640000  21.2270000  15.3890000   7.9450000  19.2480000  22.0930000
   9.3710000  17.8640000  23.5190000  11.1450000  17.3490000  22.6820000
  11.3220000  21.1840000  14.4300000  13.2060000  20.4460000  13.9830000
   9.5620000  21.7080000  15.2230000   7.1300000  19.7150000  21.9480000
   8.1400000  18.5880000  23.2930000   9.5430000  17.2040000  24.7730000
  11.1840000  21.6290000  13.6020000   7.1560000  18.6050000  24.3310000
   8.5850000  17.2470000  25.7320000  10.3450000  16.7230000  24.9390000
   7.3670000  17.9620000  25.5030000   6.3410000  19.0740000  24.1940000
   8.7230000  16.8020000  26.5600000   6.7010000  17.9850000  26.1790000
  10.4770000  15.9120000   5.0320000  11.4610000  15.9070000   4.0130000
   9.2330000  16.6410000   4.8000000  10.6480000  15.2320000   6.2450000
  11.2660000  16.5660000   2.8120000  12.2760000  15.4390000   4.1580000
   9.0620000  17.3180000   3.5760000   8.2570000  16.6460000   5.8040000
   9.6720000  15.2370000   7.2490000  11.4610000  14.7590000   6.3760000
  12.2500000  16.5490000   1.7750000  10.0350000  17.2900000   2.5860000
   8.2610000  17.8050000   3.4240000   7.4430000  17.1190000   5.6730000
   8.4280000  15.9660000   7.0170000   9.8420000  14.5600000   8.4730000
  12.0390000  17.1930000   0.6030000  13.0650000  16.0800000   1.9110000
   9.8630000  17.9500000   1.3320000   7.4430000  15.9710000   8.0360000
   8.8700000  14.5870000   9.4630000  10.6430000  14.0730000   8.6250000
  10.8210000  17.9070000   0.3740000  12.7050000  17.1700000  -0.0730000
   9.0610000  18.4310000   1.1660000   6.6290000  16.4390000   7.8910000
   7.6390000  15.3120000   9.2360000   9.0410000  13.9270000  10.7170000
  10.6820000  18.3520000  -0.4540000   6.6550000  15.3280000  10.2740000
   8.0840000  13.9700000  11.6750000   9.8440000  13.4460000  10.8820000
   6.8660000  14.6850000  11.4460000   5.8400000  15.7970000  10.1370000
   8.2220000  13.5250000  12.5030000   6.1990000  14.7080000  12.1220000
  11.9810000  25.7420000  47.2020000  12.9650000  25.7370000  46.1830000
  10.7370000  26.4710000  46.9700000  12.1510000  25.0620000  48.4150000
  12.7690000  26.3970000  44.9830000  13.7790000  25.2700000  46.3280000
  10.5660000  27.1480000  45.7460000   9.7610000  26.4770000  47.9740000
  11.1760000  25.0670000  49.4190000  12.9650000  24.5900000  48.5460000
  13.7540000  26.3800000  43.9450000  11.5390000  27.1210000  44.7560000
   9.7650000  27.6360000  45.5940000   8.9470000  26.9490000  47.8430000
   9.9310000  25.7960000  49.1870000  11.3460000  24.3910000  50.6430000
  13.5420000  27.0230000  42.7730000  14.5680000  25.9110000  44.0820000
  11.3670000  27.7810000  43.5030000   8.9470000  25.8010000  50.2060000
  10.3730000  24.4180000  51.6330000  12.1470000  23.9030000  50.7950000
  12.3250000  27.7380000  42.5440000  14.2090000  27.0000000  42.0970000
  10.5640000  28.2620000  43.3370000   8.1330000  26.2690000  50.0620000
   9.1430000  25.1420000  51.4070000  10.5450000  23.7580000  52.8870000
  12.1860000  28.1830000  41.7160000   8.1590000  25.1590000  52.4440000
   9.5880000  23.8010000  53.8460000  11.3480000  23.2770000  53.0530000
   8.3700000  24.5150000  53.6170000   7.3440000  25.6280000  52.3080000
   9.7260000  23.3560000  54.6740000   7.7030000  24.5390000  54.2930000
  11.4790000  22.4650000  33.1460000  12.4640000  22.4610000  32.1260000
  10.2350000  23.1950000  32.9140000  11.6500000  21.7850000  34.3590000
  12.2680000  23.1200000  30.9260000  13.2780000  21.9930000  32.2710000
  10.0650000  23.8710000  31.6890000   9.2600000  23.2000000  33.9170000
  10.6740000  21.7900000  35.3620000  12.4640000  21.3130000  34.4890000
  13.2520000  23.1030000  29.8890000  11.0380000  23.8440000  30.7000000
   9.2640000  24.3590000  31.5370000   8.4460000  23.6720000  33.7870000
   9.4300000  22.5200000  35.1300000  10.8450000  21.1140000  36.5870000
  13.0410000  23.7460000  28.7160000  14.0670000  22.6340000  30.0250000
  10.8660000  24.5040000  29.4460000   8.4460000  22.5250000  36.1500000
   9.8720000  21.1410000  37.5760000  11.6460000  20.6260000  36.7380000
  11.8230000  24.4610000  28.4870000  13.7080000  23.7230000  28.0400000
  10.0630000  24.9850000  29.2800000   7.6320000  22.9920000  36.0050000
   8.6410000  21.8650000  37.3500000  10.0440000  20.4810000  38.8300000
  11.6850000  24.9060000  27.6590000   7.6570000  21.8820000  38.3870000
   9.0860000  20.5240000  39.7890000  10.8470000  20.0000000  38.9960000
   7.8680000  21.2390000  39.5600000   6.8430000  22.3510000  38.2510000
   9.2250000  20.0790000  40.6170000   7.2020000  21.2620000  40.2360000
  11.2130000  23.5900000   5.0320000  12.1970000  23.5850000   4.0130000
   9.9690000  24.3190000   4.8000000  11.3840000  22.9100000   6.2450000
  12.0020000  24.2450000   2.8120000  13.0120000  23.1180000   4.1580000
   9.7990000  24.9960000   3.5760000   8.9930000  24.3250000   5.8040000
  10.4080000  22.9150000   7.2490000  12.1970000  22.4380000   6.3760000
  12.9860000  24.2280000   1.7750000  10.7710000  24.9690000   2.5860000
   8.9970000  25.4840000   3.4240000   8.1800000  24.7970000   5.6730000
   9.1640000  23.6450000   7.0170000  10.5780000  22.2390000   8.4730000
  12.7750000  24.8710000   0.6030000  13.8010000  23.7590000   1.9110000
  10.5990000  25.6290000   1.3320000   8.1790000  23.6490000   8.0360000
   9.6060000  22.2660000   9.4630000  11.3800000  21.7510000   8.6250000
  11.5570000  25.5860000   0.3740000  13.4410000  24.8480000  -0.0730000
   9.7970000  26.1100000   1.1660000   7.3650000  24.1170000   7.8910000
   8.3750000  22.9900000   9.2360000   9.7780000  21.6060000  10.7170000
  11.4190000  26.0310000  -0.4540000   7.3910000  23.0070000  10.2740000
   8.8200000  21.6490000  11.6750000  10.5800000  21.1250000  10.8820000
   7.6020000  22.3640000  11.4460000   6.5760000  23.4760000  10.1370000
   8.9580000  21.2040000  12.5030000   6.9360000  22.3870000  12.1220000
  11.7140000  26.8670000  19.0890000  12.6990000  26.8620000  18.0700000
  10.4700000  27.5960000  18.8570000  11.8850000  26.1870000  20.3020000
  12.5030000  27.5220000  16.8690000  13.5130000  26.3950000  18.2140000
  10.3000000  28.2730000  17.6320000   9.4940000  27.6010000  19.8600000
  10.9090000  26.1920000  21.3060000  12.6990000  25.7150000  20.4330000
  13.4870000  27.5050000  15.8320000  11.2720000  28.2460000  16.6430000
   9.4990000  28.7610000  17.4810000   8.6810000  28.0740000  19.7300000
   9.6650000  26.9210000  21.0740000  11.0800000  25.5160000  22.5300000
  13.2760000  28.1480000  14.6590000  14.3020000  27.0360000  15.9680000
  11.1010000  28.9060000  15.3890000   8.6810000  26.9260000  22.0930000
  10.1070000  25.5430000  23.5190000  11.8810000  25.0280000  22.6820000
  12.0580000  28.8630000  14.4300000  13.9430000  28.1250000  13.9830000
  10.2980000  29.3870000  15.2230000   7.8660000  27.3940000  21.9480000
   8.8760000  26.2670000  23.2930000  10.2790000  24.8830000  24.7730000
  11.9200000  29.3080000  13.6020000   7.8920000  26.2840000  24.3310000
   9.3210000  24.9260000  25.7320000  11.0810000  24.4020000  24.9390000
   8.1030000  25.6400000  25.5030000   7.0770000  26.7530000  24.1940000
   9.4600000  24.4810000  26.5600000   7.4370000  25.6640000  26.1790000
  12.7170000  33.4210000  47.2020000  13.7010000  33.4160000  46.1830000
  11.4730000  34.1500000  46.9700000  12.8870000  32.7410000  48.4150000
  13.5060000  34.0750000  44.9830000  14.5160000  32.9480000  46.3280000
  11.3020000  34.8270000  45.7460000  10.4970000  34.1550000  47.9740000
  11.9120000  32.7460000  49.4190000  13.7010000  32.2680000  48.5460000
  14.4900000  34.0580000  43.9450000  12.2750000  34.8000000  44.7560000
  10.5010000  35.3140000  45.5940000   9.6830000  34.6280000  47.8430000
  10.6680000  33.4750000  49.1870000  12.0820000  32.0690000  50.6430000
  14.2790000  34.7020000  42.7730000  15.3050000  33.5890000  44.0820000
  12.1030000  35.4590000  43.5030000   9.6830000  33.4800000  50.2060000
  11.1100000  32.0960000  51.6330000  12.8830000  31.5820000  50.7950000
  13.0610000  35.4160000  42.5440000  14.9450000  34.6790000  42.0970000
  11.3000000  35.9410000  43.3370000   8.8690000  33.9480000  50.0620000
   9.8790000  32.8210000  51.4070000  11.2810000  31.4370000  52.8870000
  12.9220000  35.8610000  41.7160000   8.8950000  32.8380000  52.4440000
  10.3240000  31.4800000  53.8460000  12.0840000  30.9550000  53.0530000
   9.1060000  32.1940000  53.6170000   8.0800000  33.3060000  52.3080000
  10.4620000  31.0340000  54.6740000   8.4390000  32.2170000  54.2930000
  11.1690000  36.7520000  63.2440000  10.1840000  36.7570000  64.2630000
  12.4130000  36.0230000  63.4760000  10.9980000  37.4320000  62.0310000
  10.3800000  36.0980000  65.4640000   9.3700000  37.2240000  64.1180000
  12.5830000  35.3460000  64.7000000  13.3890000  36.0180000  62.4720000
  11.9740000  37.4270000  61.0270000  10.1850000  37.9040000  61.9000000
   9.3960000  36.1140000  66.5010000  11.6110000  35.3730000  65.6900000
  13.3850000  34.8580000  64.8520000  14.2020000  35.5450000  62.6030000
  13.2180000  36.6980000  61.2590000  11.8040000  38.1040000  59.8030000
   9.6070000  35.4710000  67.6730000   8.5810000  36.5830000  66.3650000
  11.7830000  34.7130000  66.9440000  14.2020000  36.6930000  60.2400000
  12.7760000  38.0760000  58.8130000  11.0020000  38.5910000  59.6510000
  10.8250000  34.7560000  67.9020000   8.9410000  35.4940000  68.3490000
  12.5850000  34.2320000  67.1100000  15.0170000  36.2250000  60.3850000
  14.0070000  37.3520000  59.0400000  12.6040000  38.7360000  57.5590000
  10.9630000  34.3110000  68.7300000  14.9910000  37.3350000  58.0020000
  13.5620000  38.6930000  56.6010000  11.8020000  39.2170000  57.3940000
  14.7800000  37.9790000  56.8300000  15.8060000  36.8660000  58.1390000
  13.4240000  39.1380000  55.7730000  15.4460000  37.9550000  56.1540000
  14.6590000  57.5820000  19.0890000  15.6430000  57.5770000  18.0700000
  13.4150000  58.3110000  18.8570000  14.8290000  56.9010000  20.3020000
  15.4480000  58.2360000  16.8690000  16.4570000  57.1090000  18.2140000
  13.2440000  58.9870000  17.6320000  12.4390000  58.3160000  19.8600000
  13.8540000  56.9070000  21.3060000  15.6430000  56.4290000  20.4330000
  16.4320000  58.2190000  15.8320000  14.2170000  58.9600000  16.6430000
  12.4430000  59.4750000  17.4810000  11.6250000  58.7880000  19.7300000
  12.6100000  57.6360000  21.0740000  14.0240000  56.2300000  22.5300000
  16.2210000  58.8630000  14.6590000  17.2460000  57.7500000  15.9680000
  14.0450000  59.6200000  15.3890000  11.6250000  57.6410000  22.0930000
  13.0510000  56.2570000  23.5190000  14.8250000  55.7420000  22.6820000
  15.0030000  59.5770000  14.4300000  16.8870000  58.8390000  13.9830000
  13.2420000  60.1010000  15.2230000  10.8110000  58.1080000  21.9480000
  11.8210000  56.9810000  23.2930000  13.2230000  55.5970000  24.7730000
  14.8640000  60.0220000  13.6020000  10.8370000  56.9980000  24.3310000
  12.2660000  55.6400000  25.7320000  14.0260000  55.1160000  24.9390000
  11.0480000  56.3550000  25.5030000  10.0220000  57.4670000  24.1940000
  12.4040000  55.1950000  26.5600000  10.3810000  56.3780000  26.1790000
  14.1580000  54.3050000   5.0320000  15.1420000  54.3000000   4.0130000
  12.9130000  55.0340000   4.8000000  14.3280000  53.6250000   6.2450000
  14.9460000  54.9590000   2.8120000  15.9560000  53.8320000   4.1580000
  12.7430000  55.7110000   3.5760000  11.9380000  55.0390000   5.8040000
  13.3520000  53.6300000   7.2490000  15.1420000  53.1520000   6.3760000
  15.9310000  54.9420000   1.7750000  13.7160000  55.6830000   2.5860000
  11.9420000  56.1980000   3.4240000  11.1240000  55.5110000   5.6730000
  12.1080000  54.3590000   7.0170000  13.5230000  52.9530000   8.4730000
  15.7190000  55.5860000   0.6030000  16.7450000  54.4730000   1.9110000
  13.5440000  56.3430000   1.3320000  11.1240000  54.3640000   8.0360000
  12.5500000  52.9800000   9.4630000  14.3240000  52.4660000   8.6250000
  14.5010000  56.3000000   0.3740000  16.3860000  55.5630000  -0.0730000
  12.7410000  56.8240000   1.1660000  10.3100000  54.8310000   7.8910000
  11.3200000  53.7050000   9.2360000  12.7220000  52.3200000  10.7170000
  14.3630000  56.7450000  -0.4540000  10.3350000  53.7210000  10.2740000
  11.7640000  52.3630000  11.6750000  13.5250000  51.8390000  10.8820000
  10.5470000  53.0780000  11.4460000   9.5210000  54.1900000  10.1370000
  11.9030000  51.9180000  12.5030000   9.8800000  53.1010000  12.1220000
  15.6610000  64.1350000  47.2020000  16.6460000  64.1300000  46.1830000
  14.4170000  64.8640000  46.9700000  15.8320000  63.4550000  48.4150000
  16.4500000  64.7900000  44.9830000  17.4600000  63.6630000  46.3280000
  14.2470000  65.5410000  45.7460000  13.4410000  64.8700000  47.9740000
  14.8560000  63.4600000  49.4190000  16.6460000  62.9830000  48.5460000
  17.4340000  64.7730000  43.9450000  15.2190000  65.5140000  44.7560000
  13.4460000  66.0290000  45.5940000  12.6280000  65.3420000  47.8430000
  13.6120000  64.1890000  49.1870000  15.0270000  62.7840000  50.6430000
  17.2230000  65.4160000  42.7730000  18.2490000  64.3040000  44.0820000
  15.0480000  66.1740000  43.5030000  12.6280000  64.1940000  50.2060000
  14.0540000  62.8110000  51.6330000  15.8280000  62.2960000  50.7950000
  16.0050000  66.1310000  42.5440000  17.8900000  65.3930000  42.0970000
  14.2450000  66.6550000  43.3370000  11.8130000  64.6620000  50.0620000
  12.8230000  63.5350000  51.4070000  14.2260000  62.1510000  52.8870000
  15.8670000  66.5760000  41.7160000  11.8390000  63.5520000  52.4440000
  13.2680000  62.1940000  53.8460000  15.0280000  61.6700000  53.0530000
  12.0500000  62.9080000  53.6170000  11.0240000  64.0210000  52.3080000
  13.4070000  61.7490000  54.6740000  11.3840000  62.9320000  54.2930000
  12.4500000  34.5460000  19.0890000  13.4350000  34.5410000  18.0700000
  11.2060000  35.2750000  18.8570000  12.6210000  33.8660000  20.3020000
  13.2390000  35.2000000  16.8690000  14.2490000  34.0730000  18.2140000
  11.0360000  35.9520000  17.6320000  10.2310000  35.2800000  19.8600000
  11.6450000  33.8710000  21.3060000  13.4350000  33.3930000  20.4330000
  14.2230000  35.1830000  15.8320000  12.0090000  35.9240000  16.6430000
  10.2350000  36.4390000  17.4810000   9.4170000  35.7530000  19.7300000
  10.4010000  34.6000000  21.0740000  11.8160000  33.1940000  22.5300000
  14.0120000  35.8270000  14.6590000  15.0380000  34.7140000  15.9680000
  11.8370000  36.5840000  15.3890000   9.4170000  34.6050000  22.0930000
  10.8430000  33.2210000  23.5190000  12.6170000  32.7070000  22.6820000
  12.7940000  36.5410000  14.4300000  14.6790000  35.8040000  13.9830000
  11.0340000  37.0650000  15.2230000   8.6030000  35.0730000  21.9480000
   9.6120000  33.9460000  23.2930000  11.0150000  32.5610000  24.7730000
  12.6560000  36.9860000  13.6020000   8.6280000  33.9620000  24.3310000
  10.0570000  32.6040000  25.7320000  11.8180000  32.0800000  24.9390000
   8.8390000  33.3190000  25.5030000   7.8140000  34.4310000  24.1940000
  10.1960000  32.1590000  26.5600000   8.1730000  33.3420000  26.1790000
  11.9050000  44.4300000  63.2440000  10.9210000  44.4350000  64.2630000
  13.1490000  43.7010000  63.4760000  11.7340000  45.1110000  62.0310000
  11.1160000  43.7760000  65.4640000  10.1060000  44.9030000  64.1180000
  13.3190000  43.0250000  64.7000000  14.1250000  43.6960000  62.4720000
  12.7100000  45.1050000  61.0270000  10.9210000  45.5830000  61.9000000
  10.1320000  43.7930000  66.5010000  12.3470000  43.0520000  65.6900000
  14.1210000  42.5370000  64.8520000  14.9380000  43.2240000  62.6030000
  13.9540000  44.3760000  61.2590000  12.5400000  45.7820000  59.8030000
  10.3430000  43.1490000  67.6730000   9.3170000  44.2620000  66.3650000
  12.5190000  42.3920000  66.9440000  14.9390000  44.3710000  60.2400000
  13.5120000  45.7550000  58.8130000  11.7390000  46.2700000  59.6510000
  11.5610000  42.4350000  67.9020000   9.6770000  43.1730000  68.3490000
  13.3210000  41.9110000  67.1100000  15.7530000  43.9040000  60.3850000
  14.7430000  45.0310000  59.0400000  13.3400000  46.4150000  57.5590000
  11.6990000  41.9900000  68.7300000  15.7270000  45.0140000  58.0020000
  14.2980000  46.3720000  56.6010000  12.5380000  46.8960000  57.3940000
  15.5160000  45.6570000  56.8300000  16.5420000  44.5450000  58.1390000
  14.1600000  46.8170000  55.7730000  16.1830000  45.6340000  56.1540000
  12.9520000  37.8230000  33.1460000  13.9360000  37.8180000  32.1260000
  11.7080000  38.5520000  32.9140000  13.1220000  37.1430000  34.3590000
  13.7400000  38.4770000  30.9260000  14.7500000  37.3500000  32.2710000
  11.5370000  39.2280000  31.6890000  10.7320000  38.5570000  33.9170000
  12.1470000  37.1480000  35.3620000  13.9360000  36.6700000  34.4890000
  14.7250000  38.4600000  29.8890000  12.5100000  39.2010000  30.7000000
  10.7360000  39.7160000  31.5370000   9.9180000  39.0290000  33.7870000
  10.9020000  37.8770000  35.1300000  12.3170000  36.4710000  36.5870000
  14.5130000  39.1040000  28.7160000  15.5390000  37.9910000  30.0250000
  12.3380000  39.8610000  29.4460000   9.9180000  37.8820000  36.1500000
  11.3440000  36.4980000  37.5760000  13.1180000  35.9830000  36.7380000
  13.2960000  39.8180000  28.4870000  15.1800000  39.0800000  28.0400000
  11.5350000  40.3420000  29.2800000   9.1040000  38.3490000  36.0050000
  10.1140000  37.2220000  37.3500000  11.5160000  35.8380000  38.8300000
  13.1570000  40.2630000  27.6590000   9.1290000  37.2390000  38.3870000
  10.5590000  35.8810000  39.7890000  12.3190000  35.3570000  38.9960000
   9.3410000  36.5960000  39.5600000   8.3150000  37.7080000  38.2510000
  10.6970000  35.4360000  40.6170000   8.6740000  36.6190000  40.2360000
  13.6880000  45.5010000  33.1460000  14.6720000  45.4960000  32.1260000
  12.4440000  46.2300000  32.9140000  13.8580000  44.8210000  34.3590000
  14.4770000  46.1560000  30.9260000  15.4860000  45.0290000  32.2710000
  12.2730000  46.9070000  31.6890000  11.4680000  46.2350000  33.9170000
  12.8830000  44.8260000  35.3620000  14.6720000  44.3490000  34.4890000
  15.4610000  46.1390000  29.8890000  13.2460000  46.8800000  30.7000000
  11.4720000  47.3950000  31.5370000  10.6540000  46.7080000  33.7870000
  11.6390000  45.5550000  35.1300000  13.0530000  44.1500000  36.5870000
  15.2500000  46.7820000  28.7160000  16.2750000  45.6700000  30.0250000
  13.0740000  47.5400000  29.4460000  10.6540000  45.5600000  36.1500000
  12.0810000  44.1770000  37.5760000  13.8540000  43.6620000  36.7380000
  14.0320000  47.4970000  28.4870000  15.9160000  46.7590000  28.0400000
  12.2710000  48.0210000  29.2800000   9.8400000  46.0280000  36.0050000
  10.8500000  44.9010000  37.3500000  12.2520000  43.5170000  38.8300000
  13.8930000  47.9420000  27.6590000   9.8660000  44.9180000  38.3870000
  11.2950000  43.5600000  39.7890000  13.0550000  43.0360000  38.9960000
  10.0770000  44.2740000  39.5600000   9.0510000  45.3870000  38.2510000
  11.4330000  43.1150000  40.6170000   9.4100000  44.2980000  40.2360000
  14.1890000  48.7780000  47.2020000  15.1730000  48.7730000  46.1830000
  12.9450000  49.5070000  46.9700000  14.3600000  48.0980000  48.4150000
  14.9780000  49.4320000  44.9830000  15.9880000  48.3050000  46.3280000
  12.7750000  50.1840000  45.7460000  11.9690000  49.5120000  47.9740000
  13.3840000  48.1030000  49.4190000  15.1730000  47.6250000  48.5460000
  15.9620000  49.4160000  43.9450000  13.7470000  50.1570000  44.7560000
  11.9730000  50.6710000  45.5940000  11.1560000  49.9850000  47.8430000
  12.1400000  48.8320000  49.1870000  13.5540000  47.4260000  50.6430000
  15.7510000  50.0590000  42.7730000  16.7770000  48.9470000  44.0820000
  13.5750000  50.8170000  43.5030000  11.1550000  48.8370000  50.2060000
  12.5820000  47.4540000  51.6330000  14.3560000  46.9390000  50.7950000
  14.5330000  50.7740000  42.5440000  16.4170000  50.0360000  42.0970000
  12.7730000  51.2980000  43.3370000  10.3410000  49.3050000  50.0620000
  11.3510000  48.1780000  51.4070000  12.7540000  46.7940000  52.8870000
  14.3950000  51.2190000  41.7160000  10.3670000  48.1950000  52.4440000
  11.7960000  46.8370000  53.8460000  13.5560000  46.3130000  53.0530000
  10.5780000  47.5510000  53.6170000   9.5520000  48.6640000  52.3080000
  11.9340000  46.3920000  54.6740000   9.9120000  47.5740000  54.2930000
  12.6850000  38.9480000   5.0320000  13.6700000  38.9430000   4.0130000
  11.4410000  39.6770000   4.8000000  12.8560000  38.2670000   6.2450000
  13.4740000  39.6020000   2.8120000  14.4840000  38.4750000   4.1580000
  11.2710000  40.3530000   3.5760000  10.4650000  39.6820000   5.8040000
  11.8800000  38.2730000   7.2490000  13.6700000  37.7950000   6.3760000
  14.4580000  39.5850000   1.7750000  12.2430000  40.3260000   2.5860000
  10.4700000  40.8410000   3.4240000   9.6520000  40.1540000   5.6730000
  10.6360000  39.0020000   7.0170000  12.0510000  37.5960000   8.4730000
  14.2470000  40.2290000   0.6030000  15.2730000  39.1160000   1.9110000
  12.0720000  40.9860000   1.3320000   9.6520000  39.0070000   8.0360000
  11.0780000  37.6230000   9.4630000  12.8520000  37.1080000   8.6250000
  13.0290000  40.9430000   0.3740000  14.9140000  40.2050000  -0.0730000
  11.2690000  41.4670000   1.1660000   8.8370000  39.4740000   7.8910000
   9.8470000  38.3470000   9.2360000  11.2500000  36.9630000  10.7170000
  12.8910000  41.3880000  -0.4540000   8.8630000  38.3640000  10.2740000
  10.2920000  37.0060000  11.6750000  12.0520000  36.4820000  10.8820000
   9.0740000  37.7210000  11.4460000   8.0480000  38.8330000  10.1370000
  10.4310000  36.5610000  12.5030000   8.4080000  37.7440000  12.1220000
  14.4240000  53.1800000  33.1460000  15.4080000  53.1750000  32.1260000
  13.1800000  53.9090000  32.9140000  14.5950000  52.5000000  34.3590000
  15.2130000  53.8340000  30.9260000  16.2230000  52.7070000  32.2710000
  13.0090000  54.5860000  31.6890000  12.2040000  53.9140000  33.9170000
  13.6190000  52.5050000  35.3620000  15.4080000  52.0270000  34.4890000
  16.1970000  53.8170000  29.8890000  13.9820000  54.5580000  30.7000000
  12.2080000  55.0730000  31.5370000  11.3900000  54.3870000  33.7870000
  12.3750000  53.2340000  35.1300000  13.7890000  51.8280000  36.5870000
  15.9860000  54.4610000  28.7160000  17.0120000  53.3480000  30.0250000
  13.8100000  55.2180000  29.4460000  11.3900000  53.2390000  36.1500000
  12.8170000  51.8550000  37.5760000  14.5900000  51.3410000  36.7380000
  14.7680000  55.1750000  28.4870000  16.6520000  54.4380000  28.0400000
  13.0080000  55.6990000  29.2800000  10.5760000  53.7070000  36.0050000
  11.5860000  52.5800000  37.3500000  12.9880000  51.1950000  38.8300000
  14.6290000  55.6200000  27.6590000  10.6020000  52.5960000  38.3870000
  12.0310000  51.2390000  39.7890000  13.7910000  50.7140000  38.9960000
  10.8130000  51.9530000  39.5600000   9.7870000  53.0650000  38.2510000
  12.1690000  50.7930000  40.6170000  10.1460000  51.9760000  40.2360000
  13.9230000  49.9030000  19.0890000  14.9070000  49.8980000  18.0700000
  12.6790000  50.6320000  18.8570000  14.0930000  49.2230000  20.3020000
  14.7110000  50.5570000  16.8690000  15.7210000  49.4300000  18.2140000
  12.5080000  51.3090000  17.6320000  11.7030000  50.6370000  19.8600000
  13.1180000  49.2280000  21.3060000  14.9070000  48.7500000  20.4330000
  15.6960000  50.5400000  15.8320000  13.4810000  51.2820000  16.6430000
  11.7070000  51.7960000  17.4810000  10.8890000  51.1100000  19.7300000
  11.8730000  49.9570000  21.0740000  13.2880000  48.5510000  22.5300000
  15.4840000  51.1840000  14.6590000  16.5100000  50.0720000  15.9680000
  13.3090000  51.9410000  15.3890000  10.8890000  49.9620000  22.0930000
  12.3150000  48.5780000  23.5190000  14.0890000  48.0640000  22.6820000
  14.2670000  51.8980000  14.4300000  16.1510000  51.1610000  13.9830000
  12.5060000  52.4230000  15.2230000  10.0750000  50.4300000  21.9480000
  11.0850000  49.3030000  23.2930000  12.4870000  47.9190000  24.7730000
  14.1280000  52.3440000  13.6020000  10.1000000  49.3200000  24.3310000
  11.5300000  47.9620000  25.7320000  13.2900000  47.4370000  24.9390000
  10.3120000  48.6760000  25.5030000   9.2860000  49.7890000  24.1940000
  11.6680000  47.5170000  26.5600000   9.6450000  48.6990000  26.1790000
  14.9250000  56.4570000  47.2020000  15.9100000  56.4520000  46.1830000
  13.6810000  57.1860000  46.9700000  15.0960000  55.7770000  48.4150000
  15.7140000  57.1110000  44.9830000  16.7240000  55.9840000  46.3280000
  13.5110000  57.8620000  45.7460000  12.7050000  57.1910000  47.9740000
  14.1200000  55.7820000  49.4190000  15.9090000  55.3040000  48.5460000
  16.6980000  57.0940000  43.9450000  14.4830000  57.8350000  44.7560000
  12.7090000  58.3500000  45.5940000  11.8920000  57.6630000  47.8430000
  12.8760000  56.5110000  49.1870000  14.2900000  55.1050000  50.6430000
  16.4870000  57.7380000  42.7730000  17.5130000  56.6250000  44.0820000
  14.3110000  58.4950000  43.5030000  11.8920000  56.5160000  50.2060000
  13.3180000  55.1320000  51.6330000  15.0920000  54.6170000  50.7950000
  15.2690000  58.4520000  42.5440000  17.1530000  57.7140000  42.0970000
  13.5090000  58.9760000  43.3370000  11.0770000  56.9830000  50.0620000
  12.0870000  55.8560000  51.4070000  13.4900000  54.4720000  52.8870000
  15.1310000  58.8970000  41.7160000  11.1030000  55.8730000  52.4440000
  12.5320000  54.5150000  53.8460000  14.2920000  53.9910000  53.0530000
  11.3140000  55.2300000  53.6170000  10.2880000  56.3420000  52.3080000
  12.6700000  54.0700000  54.6740000  10.6480000  55.2530000  54.2930000
  13.3770000  59.7880000  63.2440000  12.3930000  59.7930000  64.2630000
  14.6210000  59.0590000  63.4760000  13.2070000  60.4680000  62.0310000
  12.5880000  59.1330000  65.4640000  11.5790000  60.2600000  64.1180000
  14.7920000  58.3820000  64.7000000  15.5970000  59.0530000  62.4720000
  14.1820000  60.4630000  61.0270000  12.3930000  60.9400000  61.9000000
  11.6040000  59.1500000  66.5010000  13.8190000  58.4090000  65.6900000
  15.5930000  57.8940000  64.8520000  16.4110000  58.5810000  62.6030000
  15.4260000  59.7330000  61.2590000  14.0120000  61.1390000  59.8030000
  11.8150000  58.5070000  67.6730000  10.7900000  59.6190000  66.3650000
  13.9910000  57.7490000  66.9440000  16.4110000  59.7290000  60.2400000
  14.9850000  61.1120000  58.8130000  13.2110000  61.6270000  59.6510000
  13.0330000  57.7920000  67.9020000  11.1490000  58.5300000  68.3490000
  14.7940000  57.2680000  67.1100000  17.2250000  59.2610000  60.3850000
  16.2150000  60.3880000  59.0400000  14.8130000  61.7720000  57.5590000
  13.1720000  57.3470000  68.7300000  17.1990000  60.3710000  58.0020000
  15.7700000  61.7290000  56.6010000  14.0100000  62.2530000  57.3940000
  16.9880000  61.0140000  56.8300000  18.0140000  59.9020000  58.1390000
  15.6320000  62.1740000  55.7730000  17.6550000  60.9910000  56.1540000
  14.4760000  23.6290000  19.2740000  15.4670000  24.2000000  18.4420000
  13.2450000  23.1410000  18.6700000  14.6550000  23.5270000  20.6620000
  15.2890000  24.3010000  17.0670000  16.2730000  24.5210000  18.8320000
  13.0880000  23.2600000  17.2780000  12.2640000  22.5830000  19.5010000
  13.6740000  22.9690000  21.4920000  15.4680000  23.8440000  21.0340000
  16.2850000  24.8870000  16.2040000  14.0640000  23.8250000  16.4690000
  12.2870000  22.9420000  16.8780000  11.4500000  22.2660000  19.1280000
  12.4430000  22.4810000  20.8880000  13.8300000  22.8500000  22.8840000
  16.0870000  24.9840000  14.8690000  17.0950000  25.2110000  16.5800000
  13.9000000  23.9510000  15.0460000  11.4510000  21.9100000  21.7200000
  12.8540000  22.2850000  23.6940000  14.6320000  23.1680000  23.2850000
  14.8790000  24.5020000  14.2840000  16.7550000  25.3760000  14.3190000
  13.1010000  23.6440000  14.6340000  10.6460000  21.5890000  21.3310000
  11.6300000  21.8090000  23.0950000  13.0180000  22.1590000  25.1160000
  14.7580000  24.5670000  13.3440000  10.6340000  21.2230000  23.9580000
  12.0390000  21.6080000  25.8780000  13.8180000  22.4660000  25.5280000
  10.8320000  21.1260000  25.2930000   9.8240000  20.8990000  23.5830000
  12.1600000  21.5430000  26.8190000  10.1630000  20.7340000  25.8430000
  13.4460000  29.0350000  49.0020000  12.4540000  28.4630000  49.8340000
  14.6760000  29.5230000  49.6060000  13.2660000  29.1370000  47.6140000
  12.6320000  28.3620000  51.2090000  11.6480000  28.1420000  49.4440000
  14.8330000  29.4040000  50.9980000  15.6570000  30.0800000  48.7750000
  14.2470000  29.6940000  46.7830000  12.4530000  28.8200000  47.2420000
  11.6360000  27.7770000  52.0720000  13.8570000  28.8380000  51.8070000
  15.6340000  29.7210000  51.3980000  16.4710000  30.3970000  49.1480000
  15.4780000  30.1820000  47.3880000  14.0910000  29.8140000  45.3920000
  11.8340000  27.6790000  53.4070000  10.8260000  27.4530000  51.6960000
  14.0210000  28.7130000  53.2300000  16.4700000  30.7540000  46.5560000
  15.0670000  30.3790000  44.5820000  13.2890000  29.4960000  44.9910000
  13.0420000  28.1620000  53.9920000  11.1660000  27.2880000  53.9570000
  14.8200000  29.0190000  53.6420000  17.2750000  31.0750000  46.9450000
  16.2910000  30.8550000  45.1810000  14.9030000  30.5040000  43.1600000
  13.1630000  28.0970000  54.9320000  17.2870000  31.4410000  44.3180000
  15.8820000  31.0550000  42.3980000  14.1030000  30.1980000  42.7480000
  17.0890000  31.5380000  42.9830000  18.0970000  31.7650000  44.6930000
  15.7610000  31.1200000  41.4570000  17.7580000  31.9300000  42.4330000
  15.9790000  33.4590000  61.4450000  16.9710000  34.0310000  60.6130000
  14.7490000  32.9710000  60.8400000  16.1590000  33.3570000  62.8320000
  16.7930000  34.1320000  59.2380000  17.7770000  34.3520000  61.0020000
  14.5920000  33.0910000  59.4490000  13.7670000  32.4140000  61.6710000
  15.1780000  32.8000000  63.6630000  16.9720000  33.6740000  63.2050000
  17.7890000  34.7180000  58.3750000  15.5680000  33.6560000  58.6390000
  13.7910000  32.7730000  59.0480000  12.9540000  32.0970000  61.2990000
  13.9470000  32.3120000  63.0580000  15.3340000  32.6800000  65.0550000
  17.5910000  34.8150000  57.0390000  18.5980000  35.0420000  58.7500000
  15.4040000  33.7810000  57.2160000  12.9550000  31.7400000  63.8910000
  14.3580000  32.1150000  65.8640000  16.1350000  32.9980000  65.4550000
  16.3830000  34.3320000  56.4550000  18.2590000  35.2070000  56.4900000
  14.6040000  33.4750000  56.8050000  12.1500000  31.4190000  63.5010000
  13.1340000  31.6390000  65.2650000  14.5220000  31.9900000  67.2870000
  16.2620000  34.3970000  55.5140000  12.1380000  31.0530000  66.1280000
  13.5430000  31.4390000  68.0490000  15.3220000  32.2960000  67.6990000
  12.3350000  30.9560000  67.4640000  11.3280000  30.7290000  65.7530000
  13.6640000  31.3740000  68.9890000  11.6670000  30.5640000  68.0130000
  15.7130000  34.5840000  33.3310000  16.7050000  35.1560000  32.4990000
  14.4820000  34.0960000  32.7270000  15.8920000  34.4820000  34.7190000
  16.5260000  35.2570000  31.1240000  17.5100000  35.4770000  32.8880000
  14.3260000  34.2150000  31.3350000  13.5010000  33.5390000  33.5570000
  14.9110000  33.9250000  35.5490000  16.7060000  34.7990000  35.0910000
  17.5220000  35.8430000  30.2610000  15.3020000  34.7810000  30.5250000
  13.5240000  33.8980000  30.9340000  12.6870000  33.2220000  33.1850000
  13.6800000  33.4370000  34.9450000  15.0680000  33.8050000  36.9410000
  17.3240000  35.9400000  28.9260000  18.3320000  36.1670000  30.6360000
  15.1380000  34.9060000  29.1030000  12.6880000  32.8650000  35.7770000
  14.0920000  33.2400000  37.7510000  15.8690000  34.1230000  37.3420000
  16.1170000  35.4570000  28.3410000  17.9930000  36.3310000  28.3760000
  14.3380000  34.6000000  28.6910000  11.8830000  32.5440000  35.3880000
  12.8670000  32.7640000  37.1520000  14.2560000  33.1150000  39.1730000
  15.9960000  35.5220000  27.4010000  11.8710000  32.1780000  38.0150000
  13.2770000  32.5640000  39.9350000  15.0550000  33.4210000  39.5850000
  12.0690000  32.0810000  39.3500000  11.0610000  31.8540000  37.6400000
  13.3980000  32.4990000  40.8750000  11.4010000  31.6890000  39.9000000
  16.2140000  37.8610000  47.3880000  17.2060000  38.4320000  46.5560000
  14.9830000  37.3730000  46.7830000  16.3940000  37.7590000  48.7750000
  17.0270000  38.5340000  45.1810000  18.0110000  38.7540000  46.9450000
  14.8270000  37.4920000  45.3920000  14.0020000  36.8160000  47.6140000
  15.4120000  37.2020000  49.6060000  17.2070000  38.0760000  49.1480000
  18.0230000  39.1190000  44.3180000  15.8030000  38.0580000  44.5820000
  14.0260000  37.1750000  44.9910000  13.1890000  36.4980000  47.2420000
  14.1820000  36.7140000  49.0020000  15.5690000  37.0820000  50.9980000
  17.8260000  39.2170000  42.9830000  18.8330000  39.4430000  44.6930000
  15.6390000  38.1830000  43.1600000  13.1900000  36.1420000  49.8340000
  14.5930000  36.5170000  51.8070000  16.3700000  37.4000000  51.3980000
  16.6180000  38.7340000  42.3980000  18.4940000  39.6080000  42.4330000
  14.8390000  37.8760000  42.7480000  12.3840000  35.8210000  49.4440000
  13.3680000  36.0410000  51.2090000  14.7570000  36.3920000  53.2300000
  16.4970000  38.7990000  41.4570000  12.3720000  35.4550000  52.0720000
  13.7780000  35.8410000  53.9920000  15.5570000  36.6980000  53.6420000
  12.5700000  35.3580000  53.4070000  11.5630000  35.1310000  51.6960000
  13.8990000  35.7760000  54.9320000  11.9020000  34.9660000  53.9570000
  15.2120000  31.3070000  19.2740000  16.2040000  31.8790000  18.4420000
  13.9810000  30.8190000  18.6700000  15.3910000  31.2050000  20.6620000
  16.0250000  31.9800000  17.0670000  17.0090000  32.2000000  18.8320000
  13.8240000  30.9390000  17.2780000  13.0000000  30.2620000  19.5010000
  14.4100000  30.6480000  21.4920000  16.2050000  31.5220000  21.0340000
  17.0210000  32.5660000  16.2040000  14.8000000  31.5040000  16.4690000
  13.0230000  30.6210000  16.8780000  12.1860000  29.9450000  19.1280000
  13.1790000  30.1600000  20.8880000  14.5660000  30.5290000  22.8840000
  16.8230000  32.6630000  14.8690000  17.8310000  32.8900000  16.5800000
  14.6370000  31.6290000  15.0460000  12.1870000  29.5880000  21.7200000
  13.5900000  29.9630000  23.6940000  15.3680000  30.8460000  23.2850000
  15.6160000  32.1800000  14.2840000  17.4910000  33.0550000  14.3190000
  13.8370000  31.3230000  14.6340000  11.3820000  29.2670000  21.3310000
  12.3660000  29.4870000  23.0950000  13.7540000  29.8380000  25.1160000
  15.4940000  32.2450000  13.3440000  11.3700000  28.9010000  23.9580000
  12.7750000  29.2870000  25.8780000  14.5540000  30.1440000  25.5280000
  11.5680000  28.8040000  25.2930000  10.5600000  28.5770000  23.5830000
  12.8960000  29.2220000  26.8190000  10.8990000  28.4130000  25.8430000
  17.4200000  54.3430000  19.2740000  18.4120000  54.9150000  18.4420000
  16.1890000  53.8550000  18.6700000  17.5990000  54.2410000  20.6620000
  18.2330000  55.0160000  17.0670000  19.2170000  55.2360000  18.8320000
  16.0330000  53.9740000  17.2780000  15.2080000  53.2980000  19.5010000
  16.6180000  53.6840000  21.4920000  18.4130000  54.5580000  21.0340000
  19.2290000  55.6010000  16.2040000  17.0090000  54.5400000  16.4690000
  15.2310000  53.6570000  16.8780000  14.3950000  52.9810000  19.1280000
  15.3870000  53.1960000  20.8880000  16.7750000  53.5640000  22.8840000
  19.0310000  55.6990000  14.8690000  20.0390000  55.9250000  16.5800000
  16.8450000  54.6650000  15.0460000  14.3960000  52.6240000  21.7200000
  15.7990000  52.9990000  23.6940000  17.5760000  53.8820000  23.2850000
  17.8240000  55.2160000  14.2840000  19.7000000  56.0900000  14.3190000
  16.0450000  54.3590000  14.6340000  13.5900000  52.3030000  21.3310000
  14.5740000  52.5230000  23.0950000  15.9630000  52.8740000  25.1160000
  17.7030000  55.2810000  13.3440000  13.5780000  51.9370000  23.9580000
  14.9840000  52.3230000  25.8780000  16.7620000  53.1800000  25.5280000
  13.7760000  51.8400000  25.2930000  12.7680000  51.6130000  23.5830000
  15.1050000  52.2580000  26.8190000  13.1080000  51.4480000  25.8430000
  18.4230000  60.8970000  47.3880000  19.4140000  61.4680000  46.5560000
  17.1920000  60.4090000  46.7830000  18.6020000  60.7950000  48.7750000
  19.2360000  61.5690000  45.1810000  20.2200000  61.7890000  46.9450000
  17.0350000  60.5280000  45.3920000  16.2110000  59.8510000  47.6140000
  17.6210000  60.2370000  49.6060000  19.4150000  61.1120000  49.1480000
  20.2320000  62.1550000  44.3180000  18.0110000  61.0930000  44.5820000
  16.2340000  60.2100000  44.9910000  15.3970000  59.5340000  47.2420000
  16.3900000  59.7490000  49.0020000  17.7770000  60.1180000  50.9980000
  20.0340000  62.2520000  42.9830000  21.0420000  62.4790000  44.6930000
  17.8470000  61.2190000  43.1600000  15.3980000  59.1780000  49.8340000
  16.8010000  59.5530000  51.8070000  18.5790000  60.4360000  51.3980000
  18.8260000  61.7700000  42.3980000  20.7020000  62.6440000  42.4330000
  17.0480000  60.9120000  42.7480000  14.5930000  58.8570000  49.4440000
  15.5770000  59.0770000  51.2090000  16.9650000  59.4270000  53.2300000
  18.7050000  61.8350000  41.4570000  14.5810000  58.4910000  52.0720000
  15.9860000  58.8760000  53.9920000  17.7650000  59.7340000  53.6420000
  14.7790000  58.3940000  53.4070000  13.7710000  58.1670000  51.6960000
  16.1070000  58.8110000  54.9320000  14.1100000  58.0020000  53.9570000
  16.8910000  63.0260000  63.0580000  15.8990000  62.4550000  63.8910000
  18.1220000  63.5140000  63.6630000  16.7120000  63.1280000  61.6710000
  16.0780000  62.3540000  65.2650000  15.0940000  62.1340000  63.5010000
  18.2790000  63.3950000  65.0550000  19.1030000  64.0720000  62.8320000
  17.6930000  63.6860000  60.8400000  15.8980000  62.8110000  61.2990000
  15.0820000  61.7680000  66.1280000  17.3030000  62.8290000  65.8640000
  19.0800000  63.7120000  65.4550000  19.9170000  64.3890000  63.2050000
  18.9240000  64.1730000  61.4450000  17.5370000  63.8050000  59.4490000
  15.2800000  61.6710000  67.4640000  14.2720000  61.4440000  65.7530000
  17.4660000  62.7040000  67.2870000  19.9160000  64.7450000  60.6130000
  18.5130000  64.3700000  58.6390000  16.7350000  63.4870000  59.0480000
  16.4870000  62.1530000  68.0490000  14.6120000  61.2790000  68.0130000
  18.2660000  63.0110000  67.6990000  20.7210000  65.0660000  61.0020000
  19.7370000  64.8460000  59.2380000  18.3490000  64.4950000  57.2160000
  16.6090000  62.0880000  68.9890000  20.7330000  65.4320000  58.3750000
  19.3280000  65.0470000  56.4550000  17.5490000  64.1890000  56.8050000
  20.5350000  65.5290000  57.0390000  21.5430000  65.7560000  58.7500000
  19.2070000  65.1110000  55.5140000  21.2040000  65.9210000  56.4900000
  11.9730000  13.6780000  49.0020000  10.9810000  13.1060000  49.8340000
  13.2040000  14.1660000  49.6060000  11.7940000  13.7800000  47.6140000
  11.1600000  13.0050000  51.2090000  10.1760000  12.7850000  49.4440000
  13.3610000  14.0460000  50.9980000  14.1850000  14.7230000  48.7750000
  12.7750000  14.3370000  46.7830000  10.9800000  13.4630000  47.2420000
  10.1640000  12.4190000  52.0720000  12.3850000  13.4810000  51.8070000
  14.1620000  14.3640000  51.3980000  14.9990000  15.0400000  49.1480000
  14.0060000  14.8250000  47.3880000  12.6190000  14.4570000  45.3920000
  10.3620000  12.3220000  53.4070000   9.3540000  12.0950000  51.6960000
  12.5480000  13.3560000  53.2300000  14.9980000  15.3970000  46.5560000
  13.5950000  15.0220000  44.5820000  11.8170000  14.1390000  44.9910000
  11.5690000  12.8050000  53.9920000   9.6940000  11.9300000  53.9570000
  13.3480000  13.6620000  53.6420000  15.8030000  15.7180000  46.9450000
  14.8190000  15.4980000  45.1810000  13.4310000  15.1470000  43.1600000
  11.6910000  12.7400000  54.9320000  15.8150000  16.0840000  44.3180000
  14.4100000  15.6980000  42.3980000  12.6310000  14.8410000  42.7480000
  15.6170000  16.1810000  42.9830000  16.6250000  16.4080000  44.6930000
  14.2890000  15.7630000  41.4570000  16.2860000  16.5720000  42.4330000
  12.4750000  16.9550000  63.0580000  11.4830000  16.3830000  63.8910000
  13.7050000  17.4430000  63.6630000  12.2950000  17.0570000  61.6710000
  11.6610000  16.2820000  65.2650000  10.6770000  16.0620000  63.5010000
  13.8620000  17.3230000  65.0550000  14.6870000  18.0000000  62.8320000
  13.2760000  17.6140000  60.8400000  11.4820000  16.7390000  61.2990000
  10.6650000  15.6960000  66.1280000  12.8860000  16.7580000  65.8640000
  14.6630000  17.6410000  65.4550000  15.5000000  18.3170000  63.2050000
  14.5070000  18.1020000  61.4450000  13.1200000  17.7330000  59.4490000
  10.8630000  15.5990000  67.4640000   9.8550000  15.3720000  65.7530000
  13.0500000  16.6330000  67.2870000  15.4990000  18.6730000  60.6130000
  14.0960000  18.2990000  58.6390000  12.3190000  17.4160000  59.0480000
  12.0710000  16.0820000  68.0490000  10.1950000  15.2070000  68.0130000
  13.8490000  16.9390000  67.6990000  16.3040000  18.9950000  61.0020000
  15.3200000  18.7750000  59.2380000  13.9320000  18.4240000  57.2160000
  12.1920000  16.0170000  68.9890000  16.3160000  19.3600000  58.3750000
  14.9110000  18.9750000  56.4550000  13.1320000  18.1170000  56.8050000
  16.1180000  19.4580000  57.0390000  17.1260000  19.6840000  58.7500000
  14.7900000  19.0400000  55.5140000  16.7870000  19.8490000  56.4900000
  13.5050000  11.5480000  33.3310000  14.4970000  12.1200000  32.4990000
  12.2740000  11.0600000  32.7270000  13.6840000  11.4460000  34.7190000
  14.3180000  12.2210000  31.1240000  15.3020000  12.4410000  32.8880000
  12.1170000  11.1800000  31.3350000  11.2930000  10.5030000  33.5570000
  12.7030000  10.8890000  35.5490000  14.4970000  11.7630000  35.0910000
  15.3140000  12.8070000  30.2610000  13.0930000  11.7450000  30.5250000
  11.3160000  10.8620000  30.9340000  10.4790000  10.1860000  33.1850000
  11.4720000  10.4010000  34.9450000  12.8590000  10.7700000  36.9410000
  15.1160000  12.9040000  28.9260000  16.1240000  13.1310000  30.6360000
  12.9290000  11.8700000  29.1030000  10.4800000   9.8290000  35.7770000
  11.8830000  10.2040000  37.7510000  13.6610000  11.0870000  37.3420000
  13.9080000  12.4210000  28.3410000  15.7840000  13.2960000  28.3760000
  12.1300000  11.5640000  28.6910000   9.6750000   9.5080000  35.3880000
  10.6590000   9.7280000  37.1520000  12.0470000  10.0790000  39.1730000
  13.7870000  12.4860000  27.4010000   9.6630000   9.1420000  38.0150000
  11.0680000   9.5280000  39.9350000  12.8470000  10.3850000  39.5850000
   9.8610000   9.0450000  39.3500000   8.8530000   8.8180000  37.6400000
  11.1890000   9.4630000  40.8750000   9.1920000   8.6540000  39.9000000
  10.9710000   7.1240000  20.8880000   9.9790000   6.5530000  21.7200000
  12.2020000   7.6120000  21.4920000  10.7910000   7.2260000  19.5010000
  10.1580000   6.4520000  23.0950000   9.1740000   6.2310000  21.3310000
  12.3580000   7.4930000  22.8840000  13.1830000   8.1690000  20.6620000
  11.7730000   7.7830000  18.6700000   9.9780000   6.9090000  19.1280000
   9.1620000   5.8660000  23.9580000  11.3820000   6.9270000  23.6940000
  13.1590000   7.8100000  23.2850000  13.9960000   8.4870000  21.0340000
  13.0030000   8.2710000  19.2740000  11.6160000   7.9030000  17.2780000
   9.3590000   5.7680000  25.2930000   8.3520000   5.5420000  23.5830000
  11.5460000   6.8020000  25.1160000  13.9950000   8.8430000  18.4420000
  12.5920000   8.4680000  16.4690000  10.8150000   7.5850000  16.8780000
  10.5670000   6.2510000  25.8780000   8.6910000   5.3770000  25.8430000
  12.3460000   7.1090000  25.5280000  14.8010000   9.1640000  18.8320000
  13.8170000   8.9440000  17.0670000  12.4280000   8.5930000  15.0460000
  10.6880000   6.1860000  26.8190000  14.8130000   9.5300000  16.2040000
  13.4070000   9.1440000  14.2840000  11.6280000   8.2870000  14.6340000
  14.6150000   9.6270000  14.8690000  15.6220000   9.8540000  16.5800000
  13.2860000   9.2090000  13.3440000  15.2830000  10.0190000  14.3190000
  12.5020000   4.9950000   5.2170000  13.4940000   5.5660000   4.3850000
  11.2710000   4.5070000   4.6130000  12.6810000   4.8930000   6.6050000
  13.3150000   5.6670000   3.0110000  14.2990000   5.8870000   4.7750000
  11.1150000   4.6260000   3.2210000  10.2900000   3.9490000   5.4440000
  11.7000000   4.3350000   7.4360000  13.4950000   5.2100000   6.9770000
  14.3110000   6.2530000   2.1470000  12.0910000   5.1910000   2.4120000
  10.3130000   4.3080000   2.8210000   9.4770000   3.6320000   5.0710000
  10.4690000   3.8470000   6.8310000  11.8570000   4.2160000   8.8270000
  14.1130000   6.3500000   0.8120000  15.1210000   6.5770000   2.5230000
  11.9270000   5.3170000   0.9890000   9.4780000   3.2760000   7.6630000
  10.8810000   3.6510000   9.6370000  12.6580000   4.5330000   9.2280000
  12.9060000   5.8680000   0.2270000  14.7820000   6.7420000   0.2620000
  11.1270000   5.0100000   0.5770000   8.6720000   2.9550000   7.2740000
   9.6560000   3.1750000   9.0380000  11.0450000   3.5250000  11.0590000
  12.7850000   5.9330000  -0.7130000   8.6600000   2.5890000   9.9010000
  10.0660000   2.9740000  11.8210000  11.8440000   3.8320000  11.4710000
   8.8580000   2.4920000  11.2370000   7.8500000   2.2650000   9.5260000
  10.1870000   2.9090000  12.7620000   8.1900000   2.1000000  11.7860000
  15.2430000  25.7810000  61.4450000  16.2350000  26.3520000  60.6130000
  14.0120000  25.2930000  60.8400000  15.4230000  25.6790000  62.8320000
  16.0560000  26.4530000  59.2380000  17.0400000  26.6730000  61.0020000
  13.8560000  25.4120000  59.4490000  13.0310000  24.7350000  61.6710000
  14.4410000  25.1210000  63.6630000  16.2360000  25.9960000  63.2050000
  17.0530000  27.0390000  58.3750000  14.8320000  25.9770000  58.6390000
  13.0550000  25.0940000  59.0480000  12.2180000  24.4180000  61.2990000
  13.2110000  24.6330000  63.0580000  14.5980000  25.0020000  65.0550000
  16.8550000  27.1360000  57.0390000  17.8620000  27.3630000  58.7500000
  14.6680000  26.1020000  57.2160000  12.2190000  24.0620000  63.8910000
  13.6220000  24.4370000  65.8640000  15.3990000  25.3190000  65.4550000
  15.6470000  26.6540000  56.4550000  17.5230000  27.5280000  56.4900000
  13.8680000  25.7960000  56.8050000  11.4130000  23.7410000  63.5010000
  12.3970000  23.9610000  65.2650000  13.7860000  24.3110000  67.2870000
  15.5260000  26.7180000  55.5140000  11.4010000  23.3750000  66.1280000
  12.8070000  23.7600000  68.0490000  14.5860000  24.6180000  67.6990000
  11.5990000  23.2780000  67.4640000  10.5920000  23.0510000  65.7530000
  12.9280000  23.6950000  68.9890000  10.9310000  22.8860000  68.0130000
  11.2060000  11.5260000   6.8310000  10.2140000  10.9540000   7.6630000
  12.4360000  12.0140000   7.4360000  11.0260000  11.6280000   5.4440000
  10.3920000  10.8530000   9.0380000   9.4080000  10.6330000   7.2740000
  12.5930000  11.8940000   8.8270000  13.4180000  12.5710000   6.6050000
  12.0070000  12.1850000   4.6130000  10.2130000  11.3110000   5.0710000
   9.3960000  10.2670000   9.9010000  11.6170000  11.3290000   9.6370000
  13.3940000  12.2120000   9.2280000  14.2310000  12.8880000   6.9770000
  13.2380000  12.6730000   5.2170000  11.8510000  12.3050000   3.2210000
   9.5940000  10.1700000  11.2370000   8.5870000   9.9430000   9.5260000
  11.7810000  11.2040000  11.0590000  14.2300000  13.2450000   4.3850000
  12.8270000  12.8700000   2.4120000  11.0500000  11.9870000   2.8210000
  10.8020000  10.6530000  11.8210000   8.9260000   9.7780000  11.7860000
  12.5810000  11.5100000  11.4710000  15.0350000  13.5660000   4.7750000
  14.0510000  13.3460000   3.0110000  12.6630000  12.9950000   0.9890000
  10.9230000  10.5880000  12.7620000  15.0470000  13.9320000   2.1470000
  13.6420000  13.5460000   0.2270000  11.8630000  12.6890000   0.5770000
  14.8490000  14.0290000   0.8120000  15.8570000  14.2560000   2.5230000
  13.5210000  13.6110000  -0.7130000  15.5180000  14.4210000   0.2620000
  12.7090000  21.3560000  49.0020000  11.7170000  20.7850000  49.8340000
  13.9400000  21.8440000  49.6060000  12.5300000  21.4580000  47.6140000
  11.8960000  20.6840000  51.2090000  10.9120000  20.4640000  49.4440000
  14.0970000  21.7250000  50.9980000  14.9210000  22.4020000  48.7750000
  13.5110000  22.0160000  46.7830000  11.7170000  21.1410000  47.2420000
  10.9000000  20.0980000  52.0720000  13.1210000  21.1600000  51.8070000
  14.8980000  22.0430000  51.3980000  15.7350000  22.7190000  49.1480000
  14.7420000  22.5040000  47.3880000  13.3550000  22.1350000  45.3920000
  11.0980000  20.0010000  53.4070000  10.0900000  19.7740000  51.6960000
  13.2850000  21.0340000  53.2300000  15.7340000  23.0750000  46.5560000
  14.3310000  22.7000000  44.5820000  12.5530000  21.8180000  44.9910000
  12.3060000  20.4830000  53.9920000  10.4300000  19.6090000  53.9570000
  14.0840000  21.3410000  53.6420000  16.5390000  23.3960000  46.9450000
  15.5550000  23.1760000  45.1810000  14.1670000  22.8260000  43.1600000
  12.4270000  20.4180000  54.9320000  16.5510000  23.7620000  44.3180000
  15.1460000  23.3770000  42.3980000  13.3670000  22.5190000  42.7480000
  16.3530000  23.8590000  42.9830000  17.3610000  24.0860000  44.6930000
  15.0250000  23.4420000  41.4570000  17.0220000  24.2510000  42.4330000
  14.2410000  19.2270000  33.3310000  15.2330000  19.7980000  32.4990000
  13.0100000  18.7390000  32.7270000  14.4200000  19.1250000  34.7190000
  15.0540000  19.8990000  31.1240000  16.0380000  20.1200000  32.8880000
  12.8530000  18.8580000  31.3350000  12.0290000  18.1820000  33.5570000
  13.4390000  18.5680000  35.5490000  15.2340000  19.4420000  35.0910000
  16.0500000  20.4850000  30.2610000  13.8290000  19.4240000  30.5250000
  12.0520000  18.5410000  30.9340000  11.2150000  17.8640000  33.1850000
  12.2080000  18.0800000  34.9450000  13.5950000  18.4480000  36.9410000
  15.8520000  20.5830000  28.9260000  16.8600000  20.8090000  30.6360000
  13.6660000  19.5490000  29.1030000  11.2160000  17.5080000  35.7770000
  12.6190000  17.8830000  37.7510000  14.3970000  18.7660000  37.3420000
  14.6450000  20.1000000  28.3410000  16.5200000  20.9740000  28.3760000
  12.8660000  19.2420000  28.6910000  10.4110000  17.1870000  35.3880000
  11.3950000  17.4070000  37.1520000  12.7830000  17.7580000  39.1730000
  14.5230000  20.1650000  27.4010000  10.3990000  16.8210000  38.0150000
  11.8040000  17.2060000  39.9350000  13.5830000  18.0640000  39.5850000
  10.5970000  16.7240000  39.3500000   9.5890000  16.4970000  37.6400000
  11.9250000  17.1420000  40.8750000   9.9280000  16.3320000  39.9000000
  11.9420000  19.2050000   6.8310000  10.9500000  18.6330000   7.6630000
  13.1730000  19.6920000   7.4360000  11.7620000  19.3060000   5.4440000
  11.1280000  18.5320000   9.0380000  10.1440000  18.3120000   7.2740000
  13.3290000  19.5730000   8.8270000  14.1540000  20.2500000   6.6050000
  12.7440000  19.8640000   4.6130000  10.9490000  18.9890000   5.0710000
  10.1320000  17.9460000   9.9010000  12.3530000  19.0080000   9.6370000
  14.1300000  19.8910000   9.2280000  14.9670000  20.5670000   6.9770000
  13.9740000  20.3520000   5.2170000  12.5870000  19.9830000   3.2210000
  10.3300000  17.8490000  11.2370000   9.3230000  17.6220000   9.5260000
  12.5170000  18.8830000  11.0590000  14.9660000  20.9230000   4.3850000
  13.5630000  20.5480000   2.4120000  11.7860000  19.6660000   2.8210000
  11.5380000  18.3310000  11.8210000   9.6620000  17.4570000  11.7860000
  13.3170000  19.1890000  11.4710000  15.7720000  21.2440000   4.7750000
  14.7880000  21.0240000   3.0110000  13.3990000  20.6740000   0.9890000
  11.6590000  18.2670000  12.7620000  15.7840000  21.6100000   2.1470000
  14.3780000  21.2250000   0.2270000  12.5990000  20.3670000   0.5770000
  15.5860000  21.7070000   0.8120000  16.5930000  21.9340000   2.5230000
  14.2570000  21.2900000  -0.7130000  16.2540000  22.0990000   0.2620000
  14.9770000  26.9050000  33.3310000  15.9690000  27.4770000  32.4990000
  13.7460000  26.4170000  32.7270000  15.1560000  26.8030000  34.7190000
  15.7900000  27.5780000  31.1240000  16.7740000  27.7980000  32.8880000
  13.5900000  26.5370000  31.3350000  12.7650000  25.8600000  33.5570000
  14.1750000  26.2460000  35.5490000  15.9700000  27.1210000  35.0910000
  16.7860000  28.1640000  30.2610000  14.5660000  27.1020000  30.5250000
  12.7880000  26.2190000  30.9340000  11.9510000  25.5430000  33.1850000
  12.9440000  25.7580000  34.9450000  14.3320000  26.1270000  36.9410000
  16.5880000  28.2610000  28.9260000  17.5960000  28.4880000  30.6360000
  14.4020000  27.2270000  29.1030000  11.9520000  25.1870000  35.7770000
  13.3560000  25.5610000  37.7510000  15.1330000  26.4440000  37.3420000
  15.3810000  27.7790000  28.3410000  17.2570000  28.6530000  28.3760000
  13.6020000  26.9210000  28.6910000  11.1470000  24.8650000  35.3880000
  12.1310000  25.0860000  37.1520000  13.5190000  25.4360000  39.1730000
  15.2600000  27.8430000  27.4010000  11.1350000  24.5000000  38.0150000
  12.5400000  24.8850000  39.9350000  14.3190000  25.7430000  39.5850000
  11.3330000  24.4020000  39.3500000  10.3250000  24.1760000  37.6400000
  12.6620000  24.8200000  40.8750000  10.6650000  24.0110000  39.9000000
  16.7150000  41.1380000  61.4450000  17.7070000  41.7090000  60.6130000
  15.4850000  40.6500000  60.8400000  16.8950000  41.0360000  62.8320000
  17.5290000  41.8100000  59.2380000  18.5130000  42.0300000  61.0020000
  15.3280000  40.7690000  59.4490000  14.5040000  40.0920000  61.6710000
  15.9140000  40.4780000  63.6630000  17.7080000  41.3530000  63.2050000
  18.5250000  42.3960000  58.3750000  16.3040000  41.3340000  58.6390000
  14.5270000  40.4520000  59.0480000  13.6900000  39.7750000  61.2990000
  14.6830000  39.9900000  63.0580000  16.0700000  40.3590000  65.0550000
  18.3270000  42.4930000  57.0390000  19.3350000  42.7200000  58.7500000
  16.1400000  41.4600000  57.2160000  13.6910000  39.4190000  63.8910000
  15.0940000  39.7940000  65.8640000  16.8720000  40.6770000  65.4550000
  17.1190000  42.0110000  56.4550000  18.9950000  42.8850000  56.4900000
  15.3410000  41.1530000  56.8050000  12.8860000  39.0980000  63.5010000
  13.8700000  39.3180000  65.2650000  15.2580000  39.6680000  67.2870000
  16.9980000  42.0760000  55.5140000  12.8740000  38.7320000  66.1280000
  14.2790000  39.1170000  68.0490000  16.0580000  39.9750000  67.6990000
  13.0720000  38.6350000  67.4640000  12.0640000  38.4080000  65.7530000
  14.4000000  39.0520000  68.9890000  12.4030000  38.2430000  68.0130000
  15.9480000  38.9860000  19.2740000  16.9400000  39.5570000  18.4420000
  14.7170000  38.4980000  18.6700000  16.1270000  38.8840000  20.6620000
  16.7610000  39.6580000  17.0670000  17.7450000  39.8780000  18.8320000
  14.5610000  38.6170000  17.2780000  13.7360000  37.9410000  19.5010000
  15.1460000  38.3270000  21.4920000  16.9410000  39.2010000  21.0340000
  17.7570000  40.2440000  16.2040000  15.5360000  39.1830000  16.4690000
  13.7590000  38.3000000  16.8780000  12.9220000  37.6230000  19.1280000
  13.9150000  37.8390000  20.8880000  15.3020000  38.2070000  22.8840000
  17.5590000  40.3420000  14.8690000  18.5670000  40.5680000  16.5800000
  15.3730000  39.3080000  15.0460000  12.9230000  37.2670000  21.7200000
  14.3270000  37.6420000  23.6940000  16.1040000  38.5250000  23.2850000
  16.3520000  39.8590000  14.2840000  18.2280000  40.7330000  14.3190000
  14.5730000  39.0010000  14.6340000  12.1180000  36.9460000  21.3310000
  13.1020000  37.1660000  23.0950000  14.4900000  37.5170000  25.1160000
  16.2310000  39.9240000  13.3440000  12.1060000  36.5800000  23.9580000
  13.5110000  36.9650000  25.8780000  15.2900000  37.8230000  25.5280000
  12.3040000  36.4830000  25.2930000  11.2960000  36.2560000  23.5830000
  13.6330000  36.9010000  26.8190000  11.6360000  36.0910000  25.8430000
  14.9180000  44.3920000  49.0020000  13.9260000  43.8210000  49.8340000
  16.1490000  44.8800000  49.6060000  14.7380000  44.4940000  47.6140000
  14.1050000  43.7200000  51.2090000  13.1210000  43.5000000  49.4440000
  16.3050000  44.7610000  50.9980000  17.1300000  45.4370000  48.7750000
  15.7200000  45.0510000  46.7830000  13.9250000  44.1770000  47.2420000
  13.1090000  43.1340000  52.0720000  15.3290000  44.1950000  51.8070000
  17.1060000  45.0780000  51.3980000  17.9430000  45.7550000  49.1480000
  16.9500000  45.5390000  47.3880000  15.5630000  45.1710000  45.3920000
  13.3060000  43.0360000  53.4070000  12.2990000  42.8100000  51.6960000
  15.4930000  44.0700000  53.2300000  17.9420000  46.1110000  46.5560000
  16.5390000  45.7360000  44.5820000  14.7620000  44.8530000  44.9910000
  14.5140000  43.5190000  53.9920000  12.6380000  42.6450000  53.9570000
  16.2930000  44.3770000  53.6420000  18.7480000  46.4320000  46.9450000
  17.7640000  46.2120000  45.1810000  16.3750000  45.8610000  43.1600000
  14.6350000  43.4540000  54.9320000  18.7600000  46.7980000  44.3180000
  17.3540000  46.4130000  42.3980000  15.5750000  45.5550000  42.7480000
  18.5620000  46.8950000  42.9830000  19.5690000  47.1220000  44.6930000
  17.2330000  46.4770000  41.4570000  19.2300000  47.2870000  42.4330000
  15.4190000  47.6690000  63.0580000  14.4270000  47.0970000  63.8910000
  16.6500000  48.1570000  63.6630000  15.2400000  47.7710000  61.6710000
  14.6060000  46.9960000  65.2650000  13.6220000  46.7760000  63.5010000
  16.8060000  48.0380000  65.0550000  17.6310000  48.7140000  62.8320000
  16.2210000  48.3280000  60.8400000  14.4260000  47.4540000  61.2990000
  13.6100000  46.4110000  66.1280000  15.8300000  47.4720000  65.8640000
  17.6080000  48.3550000  65.4550000  18.4440000  49.0320000  63.2050000
  17.4520000  48.8160000  61.4450000  16.0640000  48.4480000  59.4490000
  13.8080000  46.3130000  67.4640000  12.8000000  46.0870000  65.7530000
  15.9940000  47.3470000  67.2870000  18.4440000  49.3880000  60.6130000
  17.0400000  49.0130000  58.6390000  15.2630000  48.1300000  59.0480000
  15.0150000  46.7960000  68.0490000  13.1390000  45.9220000  68.0130000
  16.7940000  47.6530000  67.6990000  19.2490000  49.7090000  61.0020000
  18.2650000  49.4890000  59.2380000  16.8760000  49.1380000  57.2160000
  15.1360000  46.7310000  68.9890000  19.2610000  50.0750000  58.3750000
  17.8550000  49.6890000  56.4550000  16.0770000  48.8320000  56.8050000
  19.0630000  50.1720000  57.0390000  20.0710000  50.3990000  58.7500000
  17.7340000  49.7540000  55.5140000  19.7310000  50.5640000  56.4900000
  16.4490000  42.2630000  33.3310000  17.4410000  42.8340000  32.4990000
  15.2180000  41.7750000  32.7270000  16.6280000  42.1610000  34.7190000
  17.2620000  42.9350000  31.1240000  18.2460000  43.1550000  32.8880000
  15.0620000  41.8940000  31.3350000  14.2370000  41.2170000  33.5570000
  15.6470000  41.6030000  35.5490000  17.4420000  42.4780000  35.0910000
  18.2580000  43.5210000  30.2610000  16.0380000  42.4590000  30.5250000
  14.2600000  41.5760000  30.9340000  13.4240000  40.9000000  33.1850000
  14.4160000  41.1150000  34.9450000  15.8040000  41.4840000  36.9410000
  18.0600000  43.6180000  28.9260000  19.0680000  43.8450000  30.6360000
  15.8740000  42.5850000  29.1030000  13.4250000  40.5440000  35.7770000
  14.8280000  40.9190000  37.7510000  16.6050000  41.8020000  37.3420000
  16.8530000  43.1360000  28.3410000  18.7290000  44.0100000  28.3760000
  15.0740000  42.2780000  28.6910000  12.6190000  40.2230000  35.3880000
  13.6030000  40.4430000  37.1520000  14.9920000  40.7930000  39.1730000
  16.7320000  43.2010000  27.4010000  12.6070000  39.8570000  38.0150000
  14.0130000  40.2420000  39.9350000  15.7910000  41.1000000  39.5850000
  12.8050000  39.7600000  39.3500000  11.7970000  39.5330000  37.6400000
  14.1340000  40.1770000  40.8750000  12.1370000  39.3680000  39.9000000
  13.4140000  34.5620000   6.8310000  12.4220000  33.9900000   7.6630000
  14.6450000  35.0500000   7.4360000  13.2350000  34.6640000   5.4440000
  12.6010000  33.8890000   9.0380000  11.6170000  33.6690000   7.2740000
  14.8010000  34.9300000   8.8270000  15.6260000  35.6070000   6.6050000
  14.2160000  35.2210000   4.6130000  12.4210000  34.3460000   5.0710000
  11.6050000  33.3030000   9.9010000  13.8250000  34.3650000   9.6370000
  15.6030000  35.2480000   9.2280000  16.4390000  35.9240000   6.9770000
  15.4470000  35.7090000   5.2170000  14.0590000  35.3400000   3.2210000
  11.8030000  33.2060000  11.2370000  10.7950000  32.9790000   9.5260000
  13.9890000  34.2400000  11.0590000  16.4380000  36.2810000   4.3850000
  15.0350000  35.9060000   2.4120000  13.2580000  35.0230000   2.8210000
  13.0100000  33.6890000  11.8210000  11.1340000  32.8140000  11.7860000
  14.7890000  34.5460000  11.4710000  17.2440000  36.6020000   4.7750000
  16.2600000  36.3820000   3.0110000  14.8710000  36.0310000   0.9890000
  13.1310000  33.6240000  12.7620000  17.2560000  36.9670000   2.1470000
  15.8500000  36.5820000   0.2270000  14.0720000  35.7250000   0.5770000
  17.0580000  37.0650000   0.8120000  18.0660000  37.2910000   2.5230000
  15.7290000  36.6470000  -0.7130000  17.7260000  37.4560000   0.2620000
  14.1500000  42.2400000   6.8310000  13.1580000  41.6690000   7.6630000
  15.3810000  42.7280000   7.4360000  13.9710000  42.3420000   5.4440000
  13.3370000  41.5680000   9.0380000  12.3530000  41.3480000   7.2740000
  15.5370000  42.6090000   8.8270000  16.3620000  43.2860000   6.6050000
  14.9520000  42.9000000   4.6130000  13.1570000  42.0250000   5.0710000
  12.3410000  40.9820000   9.9010000  14.5610000  42.0440000   9.6370000
  16.3390000  42.9260000   9.2280000  17.1760000  43.6030000   6.9770000
  16.1830000  43.3880000   5.2170000  14.7950000  43.0190000   3.2210000
  12.5390000  40.8850000  11.2370000  11.5310000  40.6580000   9.5260000
  14.7250000  41.9180000  11.0590000  17.1750000  43.9590000   4.3850000
  15.7710000  43.5840000   2.4120000  13.9940000  42.7010000   2.8210000
  13.7460000  41.3670000  11.8210000  11.8700000  40.4930000  11.7860000
  15.5250000  42.2250000  11.4710000  17.9800000  44.2800000   4.7750000
  16.9960000  44.0600000   3.0110000  15.6080000  43.7100000   0.9890000
  13.8670000  41.3020000  12.7620000  17.9920000  44.6460000   2.1470000
  16.5870000  44.2610000   0.2270000  14.8080000  43.4030000   0.5770000
  17.7940000  44.7430000   0.8120000  18.8020000  44.9700000   2.5230000
  16.4650000  44.3260000  -0.7130000  18.4620000  45.1350000   0.2620000
  16.6840000  46.6640000  19.2740000  17.6760000  47.2360000  18.4420000
  15.4530000  46.1760000  18.6700000  16.8630000  46.5620000  20.6620000
  17.4970000  47.3370000  17.0670000  18.4810000  47.5570000  18.8320000
  15.2970000  46.2960000  17.2780000  14.4720000  45.6190000  19.5010000
  15.8820000  46.0050000  21.4920000  17.6770000  46.8800000  21.0340000
  18.4930000  47.9230000  16.2040000  16.2730000  46.8610000  16.4690000
  14.4950000  45.9780000  16.8780000  13.6580000  45.3020000  19.1280000
  14.6510000  45.5170000  20.8880000  16.0390000  45.8860000  22.8840000
  18.2950000  48.0200000  14.8690000  19.3030000  48.2470000  16.5800000
  16.1090000  46.9860000  15.0460000  13.6590000  44.9460000  21.7200000
  15.0630000  45.3200000  23.6940000  16.8400000  46.2030000  23.2850000
  17.0880000  47.5370000  14.2840000  18.9640000  48.4120000  14.3190000
  15.3090000  46.6800000  14.6340000  12.8540000  44.6240000  21.3310000
  13.8380000  44.8440000  23.0950000  15.2260000  45.1950000  25.1160000
  16.9670000  47.6020000  13.3440000  12.8420000  44.2590000  23.9580000
  14.2480000  44.6440000  25.8780000  16.0260000  45.5020000  25.5280000
  13.0400000  44.1610000  25.2930000  12.0320000  43.9350000  23.5830000
  14.3690000  44.5790000  26.8190000  12.3720000  43.7700000  25.8430000
  15.8890000  56.4730000  34.9450000  14.8970000  55.9010000  35.7770000
  17.1200000  56.9610000  35.5490000  15.7090000  56.5750000  33.5570000
  15.0750000  55.8000000  37.1520000  14.0910000  55.5800000  35.3880000
  17.2760000  56.8410000  36.9410000  18.1010000  57.5180000  34.7190000
  16.6910000  57.1320000  32.7270000  14.8960000  56.2570000  33.1850000
  14.0790000  55.2140000  38.0150000  16.3000000  56.2760000  37.7510000
  18.0770000  57.1590000  37.3420000  18.9140000  57.8350000  35.0910000
  17.9210000  57.6200000  33.3310000  16.5340000  57.2510000  31.3350000
  14.2770000  55.1170000  39.3500000  13.2700000  54.8900000  37.6400000
  16.4640000  56.1510000  39.1730000  18.9130000  58.1910000  32.4990000
  17.5100000  57.8170000  30.5250000  15.7330000  56.9340000  30.9340000
  15.4850000  55.5990000  39.9350000  13.6090000  54.7250000  39.9000000
  17.2640000  56.4570000  39.5850000  19.7190000  58.5130000  32.8880000
  18.7350000  58.2920000  31.1240000  17.3460000  57.9420000  29.1030000
  15.6060000  55.5350000  40.8750000  19.7310000  58.8780000  30.2610000
  18.3250000  58.4930000  28.3410000  16.5460000  57.6350000  28.6910000
  19.5330000  58.9760000  28.9260000  20.5400000  59.2020000  30.6360000
  18.2040000  58.5580000  27.4010000  20.2010000  59.3670000  28.3760000
  11.7070000  14.8030000  20.8880000  10.7150000  14.2310000  21.7200000
  12.9380000  15.2910000  21.4920000  11.5270000  14.9050000  19.5010000
  10.8940000  14.1300000  23.0950000   9.9100000  13.9100000  21.3310000
  13.0940000  15.1710000  22.8840000  13.9190000  15.8480000  20.6620000
  12.5090000  15.4620000  18.6700000  10.7140000  14.5880000  19.1280000
   9.8980000  13.5440000  23.9580000  12.1180000  14.6060000  23.6940000
  13.8950000  15.4890000  23.2850000  14.7320000  16.1650000  21.0340000
  13.7390000  15.9500000  19.2740000  12.3520000  15.5810000  17.2780000
  10.0960000  13.4470000  25.2930000   9.0880000  13.2200000  23.5830000
  12.2820000  14.4810000  25.1160000  14.7310000  16.5220000  18.4420000
  13.3280000  16.1470000  16.4690000  11.5510000  15.2640000  16.8780000
  11.3030000  13.9300000  25.8780000   9.4270000  13.0550000  25.8430000
  13.0820000  14.7870000  25.5280000  15.5370000  16.8430000  18.8320000
  14.5530000  16.6230000  17.0670000  13.1640000  16.2720000  15.0460000
  11.4240000  13.8650000  26.8190000  15.5490000  17.2090000  16.2040000
  14.1430000  16.8230000  14.2840000  12.3650000  15.9660000  14.6340000
  15.3510000  17.3060000  14.8690000  16.3590000  17.5330000  16.5800000
  14.0220000  16.8880000  13.3440000  16.0190000  17.6970000  14.3190000
  12.6780000  26.8830000   6.8310000  11.6860000  26.3120000   7.6630000
  13.9090000  27.3710000   7.4360000  12.4980000  26.9850000   5.4440000
  11.8650000  26.2100000   9.0380000  10.8810000  25.9900000   7.2740000
  14.0650000  27.2520000   8.8270000  14.8900000  27.9280000   6.6050000
  13.4800000  27.5420000   4.6130000  11.6850000  26.6680000   5.0710000
  10.8690000  25.6250000   9.9010000  13.0890000  26.6860000   9.6370000
  14.8660000  27.5690000   9.2280000  15.7030000  28.2460000   6.9770000
  14.7100000  28.0300000   5.2170000  13.3230000  27.6620000   3.2210000
  11.0670000  25.5270000  11.2370000  10.0590000  25.3010000   9.5260000
  13.2530000  26.5610000  11.0590000  15.7020000  28.6020000   4.3850000
  14.2990000  28.2270000   2.4120000  12.5220000  27.3440000   2.8210000
  12.2740000  26.0100000  11.8210000  10.3980000  25.1360000  11.7860000
  14.0530000  26.8680000  11.4710000  16.5080000  28.9230000   4.7750000
  15.5240000  28.7030000   3.0110000  14.1350000  28.3520000   0.9890000
  12.3950000  25.9450000  12.7620000  16.5200000  29.2890000   2.1470000
  15.1140000  28.9030000   0.2270000  13.3350000  28.0460000   0.5770000
  16.3220000  29.3860000   0.8120000  17.3290000  29.6130000   2.5230000
  14.9930000  28.9680000  -0.7130000  16.9900000  29.7780000   0.2620000
  15.1530000  48.7940000  34.9450000  14.1610000  48.2220000  35.7770000
  16.3830000  49.2820000  35.5490000  14.9730000  48.8960000  33.5570000
  14.3390000  48.1210000  37.1520000  13.3550000  47.9010000  35.3880000
  16.5400000  49.1630000  36.9410000  17.3650000  49.8390000  34.7190000
  15.9540000  49.4530000  32.7270000  14.1600000  48.5790000  33.1850000
  13.3430000  47.5350000  38.0150000  15.5640000  48.5970000  37.7510000
  17.3410000  49.4800000  37.3420000  18.1780000  50.1560000  35.0910000
  17.1850000  49.9410000  33.3310000  15.7980000  49.5730000  31.3350000
  13.5410000  47.4380000  39.3500000  12.5340000  47.2110000  37.6400000
  15.7280000  48.4720000  39.1730000  18.1770000  50.5130000  32.4990000
  16.7740000  50.1380000  30.5250000  14.9970000  49.2550000  30.9340000
  14.7490000  47.9210000  39.9350000  12.8730000  47.0470000  39.9000000
  16.5280000  48.7780000  39.5850000  18.9820000  50.8340000  32.8880000
  17.9980000  50.6140000  31.1240000  16.6100000  50.2630000  29.1030000
  14.8700000  47.8560000  40.8750000  18.9940000  51.2000000  30.2610000
  17.5890000  50.8140000  28.3410000  15.8100000  49.9570000  28.6910000
  18.7960000  51.2970000  28.9260000  19.8040000  51.5240000  30.6360000
  17.4680000  50.8790000  27.4010000  19.4650000  51.6890000  28.3760000
  15.6540000  52.0710000  49.0020000  14.6620000  51.4990000  49.8340000
  16.8850000  52.5590000  49.6060000  15.4740000  52.1730000  47.6140000
  14.8410000  51.3980000  51.2090000  13.8570000  51.1780000  49.4440000
  17.0410000  52.4390000  50.9980000  17.8660000  53.1160000  48.7750000
  16.4560000  52.7300000  46.7830000  14.6610000  51.8560000  47.2420000
  13.8450000  50.8120000  52.0720000  16.0650000  51.8740000  51.8070000
  17.8420000  52.7570000  51.3980000  18.6790000  53.4330000  49.1480000
  17.6860000  53.2180000  47.3880000  16.2990000  52.8490000  45.3920000
  14.0430000  50.7150000  53.4070000  13.0350000  50.4880000  51.6960000
  16.2290000  51.7490000  53.2300000  18.6780000  53.7900000  46.5560000
  17.2750000  53.4150000  44.5820000  15.4980000  52.5320000  44.9910000
  15.2500000  51.1980000  53.9920000  13.3740000  50.3230000  53.9570000
  17.0290000  52.0550000  53.6420000  19.4840000  54.1110000  46.9450000
  18.5000000  53.8910000  45.1810000  17.1110000  53.5400000  43.1600000
  15.3710000  51.1330000  54.9320000  19.4960000  54.4770000  44.3180000
  18.0900000  54.0910000  42.3980000  16.3120000  53.2340000  42.7480000
  19.2980000  54.5740000  42.9830000  20.3060000  54.8010000  44.6930000
  17.9690000  54.1560000  41.4570000  19.9660000  54.9650000  42.4330000
  18.1880000  56.4950000  61.4450000  19.1800000  57.0660000  60.6130000
  16.9570000  56.0070000  60.8400000  18.3670000  56.3930000  62.8320000
  19.0010000  57.1680000  59.2380000  19.9850000  57.3880000  61.0020000
  16.8000000  56.1260000  59.4490000  15.9760000  55.4500000  61.6710000
  17.3860000  55.8360000  63.6630000  19.1810000  56.7100000  63.2050000
  19.9970000  57.7530000  58.3750000  17.7760000  56.6920000  58.6390000
  15.9990000  55.8090000  59.0480000  15.1620000  55.1320000  61.2990000
  16.1550000  55.3480000  63.0580000  17.5420000  55.7160000  65.0550000
  19.7990000  57.8510000  57.0390000  20.8070000  58.0770000  58.7500000
  17.6130000  56.8170000  57.2160000  15.1630000  54.7760000  63.8910000
  16.5660000  55.1510000  65.8640000  18.3440000  56.0340000  65.4550000
  18.5920000  57.3680000  56.4550000  20.4670000  58.2420000  56.4900000
  16.8130000  56.5100000  56.8050000  14.3580000  54.4550000  63.5010000
  15.3420000  54.6750000  65.2650000  16.7300000  55.0260000  67.2870000
  18.4700000  57.4330000  55.5140000  14.3460000  54.0890000  66.1280000
  15.7510000  54.4750000  68.0490000  17.5300000  55.3320000  67.6990000
  14.5440000  53.9920000  67.4640000  13.5360000  53.7650000  65.7530000
  15.8720000  54.4100000  68.9890000  13.8750000  53.6000000  68.0130000
  14.8860000  49.9190000   6.8310000  13.8940000  49.3470000   7.6630000
  16.1170000  50.4070000   7.4360000  14.7070000  50.0210000   5.4440000
  14.0730000  49.2460000   9.0380000  13.0890000  49.0260000   7.2740000
  16.2730000  50.2870000   8.8270000  17.0980000  50.9640000   6.6050000
  15.6880000  50.5780000   4.6130000  13.8930000  49.7040000   5.0710000
  13.0770000  48.6600000   9.9010000  15.2980000  49.7220000   9.6370000
  17.0750000  50.6050000   9.2280000  17.9120000  51.2810000   6.9770000
  16.9190000  51.0660000   5.2170000  15.5320000  50.6980000   3.2210000
  13.2750000  48.5630000  11.2370000  12.2670000  48.3360000   9.5260000
  15.4610000  49.5970000  11.0590000  17.9110000  51.6380000   4.3850000
  16.5070000  51.2630000   2.4120000  14.7300000  50.3800000   2.8210000
  14.4820000  49.0460000  11.8210000  12.6060000  48.1710000  11.7860000
  16.2610000  49.9030000  11.4710000  18.7160000  51.9590000   4.7750000
  17.7320000  51.7390000   3.0110000  16.3440000  51.3880000   0.9890000
  14.6040000  48.9810000  12.7620000  18.7280000  52.3250000   2.1470000
  17.3230000  51.9390000   0.2270000  15.5440000  51.0820000   0.5770000
  18.5300000  52.4220000   0.8120000  19.5380000  52.6490000   2.5230000
  17.2010000  52.0040000  -0.7130000  19.1990000  52.8140000   0.2620000
  16.1750000  31.3230000   7.0170000  15.1910000  31.3280000   8.0360000
  17.4190000  30.5940000   7.2490000  16.0050000  32.0030000   5.8040000
  15.3860000  30.6690000   9.2360000  14.3770000  31.7960000   7.8910000
  17.5900000  29.9170000   8.4730000  18.3950000  30.5890000   6.2450000
  16.9800000  31.9980000   4.8000000  15.1910000  32.4760000   5.6730000
  14.4020000  30.6860000  10.2740000  16.6170000  29.9440000   9.4630000
  18.3910000  29.4300000   8.6250000  19.2090000  30.1160000   6.3760000
  18.2240000  31.2690000   5.0320000  16.8100000  32.6750000   3.5760000
  14.6130000  30.0420000  11.4460000  13.5880000  31.1540000  10.1370000
  16.7890000  29.2850000  10.7170000  19.2090000  31.2640000   4.0130000
  17.7830000  32.6480000   2.5860000  16.0090000  33.1620000   3.4240000
  15.8310000  29.3280000  11.6750000  13.9470000  30.0650000  12.1220000
  17.5920000  28.8030000  10.8820000  20.0230000  30.7960000   4.1580000
  19.0130000  31.9230000   2.8120000  17.6110000  33.3070000   1.3320000
  15.9700000  28.8830000  12.5030000  19.9970000  31.9060000   1.7750000
  18.5680000  33.2640000   0.3740000  16.8080000  33.7890000   1.1660000
  19.7860000  32.5500000   0.6030000  20.8120000  31.4380000   1.9110000
  18.4300000  33.7100000  -0.4540000  20.4530000  32.5270000  -0.0730000
  16.0160000   8.2330000   5.0320000  17.0000000   8.2280000   4.0130000
  14.7720000   8.9620000   4.8000000  16.1870000   7.5530000   6.2450000
  16.8050000   8.8870000   2.8120000  17.8150000   7.7610000   4.1580000
  14.6020000   9.6390000   3.5760000  13.7960000   8.9670000   5.8040000
  15.2110000   7.5580000   7.2490000  17.0000000   7.0810000   6.3760000
  17.7890000   8.8710000   1.7750000  15.5740000   9.6120000   2.5860000
  13.8000000  10.1270000   3.4240000  12.9830000   9.4400000   5.6730000
  13.9670000   8.2870000   7.0170000  15.3810000   6.8810000   8.4730000
  17.5780000   9.5140000   0.6030000  18.6040000   8.4020000   1.9110000
  15.4020000  10.2720000   1.3320000  12.9830000   8.2920000   8.0360000
  14.4090000   6.9090000   9.4630000  16.1830000   6.3940000   8.6250000
  16.3600000  10.2290000   0.3740000  18.2440000   9.4910000  -0.0730000
  14.6000000  10.7530000   1.1660000  12.1680000   8.7600000   7.8910000
  13.1780000   7.6330000   9.2360000  14.5810000   6.2490000  10.7170000
  16.2220000  10.6740000  -0.4540000  12.1940000   7.6500000  10.2740000
  13.6230000   6.2920000  11.6750000  15.3830000   5.7680000  10.8820000
  12.4050000   7.0060000  11.4460000  11.3790000   8.1190000  10.1370000
  13.7610000   5.8470000  12.5030000  11.7390000   7.0300000  12.1220000
  16.7080000  29.0730000  63.2440000  15.7240000  29.0780000  64.2630000
  17.9520000  28.3440000  63.4760000  16.5370000  29.7530000  62.0310000
  15.9190000  28.4190000  65.4640000  14.9090000  29.5460000  64.1180000
  18.1230000  27.6670000  64.7000000  18.9280000  28.3390000  62.4720000
  17.5130000  29.7480000  61.0270000  15.7240000  30.2260000  61.9000000
  14.9350000  28.4360000  66.5010000  17.1500000  27.6950000  65.6900000
  18.9240000  27.1800000  64.8520000  19.7420000  27.8670000  62.6030000
  18.7570000  29.0190000  61.2590000  17.3430000  30.4250000  59.8030000
  15.1460000  27.7920000  67.6730000  14.1200000  28.9050000  66.3650000
  17.3220000  27.0350000  66.9440000  19.7420000  29.0140000  60.2400000
  18.3150000  30.3980000  58.8130000  16.5420000  30.9120000  59.6510000
  16.3640000  27.0780000  67.9020000  14.4800000  27.8150000  68.3490000
  18.1240000  26.5540000  67.1100000  20.5560000  28.5470000  60.3850000
  19.5460000  29.6730000  59.0400000  18.1440000  31.0580000  57.5590000
  16.5030000  26.6330000  68.7300000  20.5300000  29.6570000  58.0020000
  19.1010000  31.0150000  56.6010000  17.3410000  31.5390000  57.3940000
  20.3190000  30.3000000  56.8300000  21.3450000  29.1880000  58.1390000
  18.9630000  31.4600000  55.7730000  20.9860000  30.2770000  56.1540000
  17.4880000  23.5900000   5.0320000  18.4730000  23.5850000   4.0130000
  16.2440000  24.3190000   4.8000000  17.6590000  22.9100000   6.2450000
  18.2770000  24.2450000   2.8120000  19.2870000  23.1180000   4.1580000
  16.0740000  24.9960000   3.5760000  15.2690000  24.3250000   5.8040000
  16.6830000  22.9150000   7.2490000  18.4730000  22.4380000   6.3760000
  19.2610000  24.2280000   1.7750000  17.0460000  24.9690000   2.5860000
  15.2730000  25.4840000   3.4240000  14.4550000  24.7970000   5.6730000
  15.4390000  23.6450000   7.0170000  16.8540000  22.2390000   8.4730000
  19.0500000  24.8710000   0.6030000  20.0760000  23.7590000   1.9110000
  16.8750000  25.6290000   1.3320000  14.4550000  23.6490000   8.0360000
  15.8810000  22.2660000   9.4630000  17.6550000  21.7510000   8.6250000
  17.8320000  25.5860000   0.3740000  19.7170000  24.8480000  -0.0730000
  16.0720000  26.1100000   1.1660000  13.6400000  24.1170000   7.8910000
  14.6500000  22.9900000   9.2360000  16.0530000  21.6060000  10.7170000
  17.6940000  26.0310000  -0.4540000  13.6660000  23.0070000  10.2740000
  15.0950000  21.6490000  11.6750000  16.8550000  21.1250000  10.8820000
  13.8770000  22.3640000  11.4460000  12.8510000  23.4760000  10.1370000
  15.2340000  21.2040000  12.5030000  13.2110000  22.3870000  12.1220000
  17.4440000  36.7520000  63.2440000  16.4600000  36.7570000  64.2630000
  18.6880000  36.0230000  63.4760000  17.2740000  37.4320000  62.0310000
  16.6550000  36.0980000  65.4640000  15.6450000  37.2240000  64.1180000
  18.8590000  35.3460000  64.7000000  19.6640000  36.0180000  62.4720000
  18.2490000  37.4270000  61.0270000  16.4600000  37.9040000  61.9000000
  15.6710000  36.1140000  66.5010000  17.8860000  35.3730000  65.6900000
  19.6600000  34.8580000  64.8520000  20.4780000  35.5450000  62.6030000
  19.4930000  36.6980000  61.2590000  18.0790000  38.1040000  59.8030000
  15.8820000  35.4710000  67.6730000  14.8560000  36.5830000  66.3650000
  18.0580000  34.7130000  66.9440000  20.4780000  36.6930000  60.2400000
  19.0510000  38.0760000  58.8130000  17.2780000  38.5910000  59.6510000
  17.1000000  34.7560000  67.9020000  15.2160000  35.4940000  68.3490000
  18.8610000  34.2320000  67.1100000  21.2920000  36.2250000  60.3850000
  20.2820000  37.3520000  59.0400000  18.8800000  38.7360000  57.5590000
  17.2390000  34.3110000  68.7300000  21.2660000  37.3350000  58.0020000
  19.8370000  38.6930000  56.6010000  18.0770000  39.2170000  57.3940000
  21.0550000  37.9790000  56.8300000  22.0810000  36.8660000  58.1390000
  19.6990000  39.1380000  55.7730000  21.7220000  37.9550000  56.1540000
  16.9430000  33.4750000  49.1870000  15.9590000  33.4800000  50.2060000
  18.1870000  32.7460000  49.4190000  16.7720000  34.1550000  47.9740000
  16.1540000  32.8210000  51.4070000  15.1440000  33.9480000  50.0620000
  18.3570000  32.0690000  50.6430000  19.1630000  32.7410000  48.4150000
  17.7480000  34.1500000  46.9700000  15.9590000  34.6280000  47.8430000
  15.1700000  32.8380000  52.4440000  17.3850000  32.0960000  51.6330000
  19.1590000  31.5820000  50.7950000  19.9760000  32.2680000  48.5460000
  18.9920000  33.4210000  47.2020000  17.5780000  34.8270000  45.7460000
  15.3810000  32.1940000  53.6170000  14.3550000  33.3060000  52.3080000
  17.5570000  31.4370000  52.8870000  19.9770000  33.4160000  46.1830000
  18.5500000  34.8000000  44.7560000  16.7760000  35.3140000  45.5940000
  16.5990000  31.4800000  53.8460000  14.7150000  32.2170000  54.2930000
  18.3590000  30.9550000  53.0530000  20.7910000  32.9480000  46.3280000
  19.7810000  34.0750000  44.9830000  18.3780000  35.4590000  43.5030000
  16.7370000  31.0340000  54.6740000  20.7650000  34.0580000  43.9450000
  19.3360000  35.4160000  42.5440000  17.5760000  35.9410000  43.3370000
  20.5540000  34.7020000  42.7730000  21.5800000  33.5890000  44.0820000
  19.1980000  35.8610000  41.7160000  21.2200000  34.6790000  42.0970000
  17.6790000  41.1540000  49.1870000  16.6950000  41.1590000  50.2060000
  18.9230000  40.4240000  49.4190000  17.5080000  41.8340000  47.9740000
  16.8900000  40.4990000  51.4070000  15.8800000  41.6260000  50.0620000
  19.0940000  39.7480000  50.6430000  19.8990000  40.4190000  48.4150000
  18.4840000  41.8290000  46.9700000  16.6950000  42.3060000  47.8430000
  15.9060000  40.5160000  52.4440000  18.1210000  39.7750000  51.6330000
  19.8950000  39.2600000  50.7950000  20.7130000  39.9470000  48.5460000
  19.7280000  41.0990000  47.2020000  18.3140000  42.5050000  45.7460000
  16.1170000  39.8730000  53.6170000  15.0910000  40.9850000  52.3080000
  18.2930000  39.1150000  52.8870000  20.7130000  41.0950000  46.1830000
  19.2860000  42.4780000  44.7560000  17.5130000  42.9930000  45.5940000
  17.3350000  39.1580000  53.8460000  15.4510000  39.8960000  54.2930000
  19.0950000  38.6340000  53.0530000  21.5270000  40.6270000  46.3280000
  20.5170000  41.7540000  44.9830000  19.1150000  43.1380000  43.5030000
  17.4740000  38.7130000  54.6740000  21.5010000  41.7370000  43.9450000
  20.0720000  43.0950000  42.5440000  18.3120000  43.6190000  43.3370000
  21.2900000  42.3800000  42.7730000  22.3160000  41.2680000  44.0820000
  19.9340000  43.5400000  41.7160000  21.9570000  42.3570000  42.0970000
  18.1800000  44.4300000  63.2440000  17.1960000  44.4350000  64.2630000
  19.4240000  43.7010000  63.4760000  18.0100000  45.1110000  62.0310000
  17.3920000  43.7760000  65.4640000  16.3820000  44.9030000  64.1180000
  19.5950000  43.0250000  64.7000000  20.4000000  43.6960000  62.4720000
  18.9850000  45.1050000  61.0270000  17.1960000  45.5830000  61.9000000
  16.4070000  43.7930000  66.5010000  18.6220000  43.0520000  65.6900000
  20.3960000  42.5370000  64.8520000  21.2140000  43.2240000  62.6030000
  20.2300000  44.3760000  61.2590000  18.8150000  45.7820000  59.8030000
  16.6190000  43.1490000  67.6730000  15.5930000  44.2620000  66.3650000
  18.7940000  42.3920000  66.9440000  21.2140000  44.3710000  60.2400000
  19.7880000  45.7550000  58.8130000  18.0140000  46.2700000  59.6510000
  17.8360000  42.4350000  67.9020000  15.9520000  43.1730000  68.3490000
  19.5970000  41.9110000  67.1100000  22.0280000  43.9040000  60.3850000
  21.0180000  45.0310000  59.0400000  19.6160000  46.4150000  57.5590000
  17.9750000  41.9900000  68.7300000  22.0020000  45.0140000  58.0020000
  20.5730000  46.3720000  56.6010000  18.8130000  46.8960000  57.3940000
  21.7910000  45.6570000  56.8300000  22.8170000  44.5450000  58.1390000
  20.4350000  46.8170000  55.7730000  22.4580000  45.6340000  56.1540000
  18.9160000  52.1090000  63.2440000  17.9320000  52.1140000  64.2630000
  20.1600000  51.3800000  63.4760000  18.7460000  52.7890000  62.0310000
  18.1280000  51.4550000  65.4640000  17.1180000  52.5820000  64.1180000
  20.3310000  50.7030000  64.7000000  21.1360000  51.3750000  62.4720000
  19.7220000  52.7840000  61.0270000  17.9320000  53.2620000  61.9000000
  17.1430000  51.4720000  66.5010000  19.3580000  50.7300000  65.6900000
  21.1320000  50.2160000  64.8520000  21.9500000  50.9020000  62.6030000
  20.9660000  52.0550000  61.2590000  19.5510000  53.4610000  59.8030000
  17.3550000  50.8280000  67.6730000  16.3290000  51.9400000  66.3650000
  19.5300000  50.0710000  66.9440000  21.9500000  52.0500000  60.2400000
  20.5240000  53.4340000  58.8130000  18.7500000  53.9480000  59.6510000
  18.5720000  50.1140000  67.9020000  16.6880000  50.8510000  68.3490000
  20.3330000  49.5890000  67.1100000  22.7640000  51.5820000  60.3850000
  21.7540000  52.7090000  59.0400000  20.3520000  54.0930000  57.5590000
  18.7110000  49.6680000  68.7300000  22.7390000  52.6920000  58.0020000
  21.3100000  54.0500000  56.6010000  19.5490000  54.5750000  57.3940000
  22.5270000  53.3360000  56.8300000  23.5530000  52.2240000  58.1390000
  21.1710000  54.4950000  55.7730000  23.1940000  53.3130000  56.1540000
  19.6530000  59.7880000  63.2440000  18.6680000  59.7930000  64.2630000
  20.8970000  59.0590000  63.4760000  19.4820000  60.4680000  62.0310000
  18.8640000  59.1330000  65.4640000  17.8540000  60.2600000  64.1180000
  21.0670000  58.3820000  64.7000000  21.8720000  59.0530000  62.4720000
  20.4580000  60.4630000  61.0270000  18.6680000  60.9400000  61.9000000
  17.8800000  59.1500000  66.5010000  20.0940000  58.4090000  65.6900000
  21.8680000  57.8940000  64.8520000  22.6860000  58.5810000  62.6030000
  21.7020000  59.7330000  61.2590000  20.2870000  61.1390000  59.8030000
  18.0910000  58.5070000  67.6730000  17.0650000  59.6190000  66.3650000
  20.2660000  57.7490000  66.9440000  22.6860000  59.7290000  60.2400000
  21.2600000  61.1120000  58.8130000  19.4860000  61.6270000  59.6510000
  19.3090000  57.7920000  67.9020000  17.4240000  58.5300000  68.3490000
  21.0690000  57.2680000  67.1100000  23.5000000  59.2610000  60.3850000
  22.4910000  60.3880000  59.0400000  21.0880000  61.7720000  57.5590000
  19.4470000  57.3470000  68.7300000  23.4750000  60.3710000  58.0020000
  22.0460000  61.7290000  56.6010000  20.2850000  62.2530000  57.3940000
  23.2640000  61.0140000  56.8300000  24.2890000  59.9020000  58.1390000
  21.9070000  62.1740000  55.7730000  23.9300000  60.9910000  56.1540000
  15.4710000  18.1180000  49.1870000  14.4860000  18.1230000  50.2060000
  16.7150000  17.3890000  49.4190000  15.3000000  18.7980000  47.9740000
  14.6820000  17.4630000  51.4070000  13.6720000  18.5900000  50.0620000
  16.8850000  16.7120000  50.6430000  17.6910000  17.3840000  48.4150000
  16.2760000  18.7930000  46.9700000  14.4860000  19.2700000  47.8430000
  13.6980000  17.4800000  52.4440000  15.9130000  16.7390000  51.6330000
  17.6860000  16.2240000  50.7950000  18.5040000  16.9110000  48.5460000
  17.5200000  18.0640000  47.2020000  16.1050000  19.4700000  45.7460000
  13.9090000  16.8370000  53.6170000  12.8830000  17.9490000  52.3080000
  16.0840000  16.0790000  52.8870000  18.5040000  18.0590000  46.1830000
  17.0780000  19.4420000  44.7560000  15.3040000  19.9570000  45.5940000
  15.1270000  16.1220000  53.8460000  13.2420000  16.8600000  54.2930000
  16.8870000  15.5980000  53.0530000  19.3190000  17.5910000  46.3280000
  18.3090000  18.7180000  44.9830000  16.9060000  20.1020000  43.5030000
  15.2650000  15.6770000  54.6740000  19.2930000  18.7010000  43.9450000
  17.8640000  20.0590000  42.5440000  16.1040000  20.5830000  43.3370000
  19.0820000  19.3450000  42.7730000  20.1080000  18.2320000  44.0820000
  17.7250000  20.5040000  41.7160000  19.7480000  19.3210000  42.0970000
  16.5170000  11.5100000  19.0890000  17.5020000  11.5050000  18.0700000
  15.2730000  12.2390000  18.8570000  16.6880000  10.8300000  20.3020000
  17.3060000  12.1640000  16.8690000  18.3160000  11.0370000  18.2140000
  15.1030000  12.9160000  17.6320000  14.2980000  12.2440000  19.8600000
  15.7120000  10.8350000  21.3060000  17.5020000  10.3570000  20.4330000
  18.2900000  12.1470000  15.8320000  16.0750000  12.8890000  16.6430000
  14.3020000  13.4030000  17.4810000  13.4840000  12.7170000  19.7300000
  14.4680000  11.5640000  21.0740000  15.8830000  10.1580000  22.5300000
  18.0790000  12.7910000  14.6590000  19.1050000  11.6790000  15.9680000
  15.9040000  13.5480000  15.3890000  13.4840000  11.5690000  22.0930000
  14.9100000  10.1860000  23.5190000  16.6840000   9.6710000  22.6820000
  16.8610000  13.5050000  14.4300000  18.7460000  12.7680000  13.9830000
  15.1010000  14.0300000  15.2230000  12.6690000  12.0370000  21.9480000
  13.6790000  10.9100000  23.2930000  15.0820000   9.5260000  24.7730000
  16.7230000  13.9510000  13.6020000  12.6950000  10.9270000  24.3310000
  14.1240000   9.5690000  25.7320000  15.8850000   9.0440000  24.9390000
  12.9060000  10.2830000  25.5030000  11.8800000  11.3960000  24.1940000
  14.2630000   9.1240000  26.5600000  12.2400000  10.3060000  26.1790000
  14.9690000  14.8410000  35.1300000  13.9850000  14.8460000  36.1500000
  16.2130000  14.1120000  35.3620000  14.7990000  15.5210000  33.9170000
  14.1810000  14.1870000  37.3500000  13.1710000  15.3140000  36.0050000
  16.3840000  13.4350000  36.5870000  17.1890000  14.1070000  34.3590000
  15.7750000  15.5160000  32.9140000  13.9850000  15.9940000  33.7870000
  13.1960000  14.2040000  38.3870000  15.4110000  13.4620000  37.5760000
  17.1850000  12.9480000  36.7380000  18.0030000  13.6340000  34.4890000
  17.0190000  14.7870000  33.1460000  15.6040000  16.1930000  31.6890000
  13.4080000  13.5600000  39.5600000  12.3820000  14.6720000  38.2510000
  15.5830000  12.8020000  38.8300000  18.0030000  14.7820000  32.1260000
  16.5770000  16.1650000  30.7000000  14.8030000  16.6800000  31.5370000
  14.6250000  12.8460000  39.7890000  12.7410000  13.5830000  40.2360000
  16.3860000  12.3210000  38.9960000  18.8170000  14.3140000  32.2710000
  17.8070000  15.4410000  30.9260000  16.4050000  16.8250000  29.4460000
  14.7640000  12.4000000  40.6170000  18.7920000  15.4240000  29.8890000
  17.3630000  16.7820000  28.4870000  15.6020000  17.3070000  29.2800000
  18.5800000  16.0680000  28.7160000  19.6060000  14.9550000  30.0250000
  17.2240000  17.2270000  27.6590000  19.2470000  16.0450000  28.0400000
  17.2540000  19.1890000  19.0890000  18.2380000  19.1840000  18.0700000
  16.0090000  19.9180000  18.8570000  17.4240000  18.5080000  20.3020000
  18.0420000  19.8430000  16.8690000  19.0520000  18.7160000  18.2140000
  15.8390000  20.5940000  17.6320000  15.0340000  19.9230000  19.8600000
  16.4480000  18.5140000  21.3060000  18.2380000  18.0360000  20.4330000
  19.0260000  19.8260000  15.8320000  16.8120000  20.5670000  16.6430000
  15.0380000  21.0820000  17.4810000  14.2200000  20.3950000  19.7300000
  15.2040000  19.2430000  21.0740000  16.6190000  17.8370000  22.5300000
  18.8150000  20.4700000  14.6590000  19.8410000  19.3570000  15.9680000
  16.6400000  21.2270000  15.3890000  14.2200000  19.2480000  22.0930000
  15.6460000  17.8640000  23.5190000  17.4200000  17.3490000  22.6820000
  17.5970000  21.1840000  14.4300000  19.4820000  20.4460000  13.9830000
  15.8370000  21.7080000  15.2230000  13.4060000  19.7150000  21.9480000
  14.4160000  18.5880000  23.2930000  15.8180000  17.2040000  24.7730000
  17.4590000  21.6290000  13.6020000  13.4310000  18.6050000  24.3310000
  14.8600000  17.2470000  25.7320000  16.6210000  16.7230000  24.9390000
  13.6420000  17.9620000  25.5030000  12.6170000  19.0740000  24.1940000
  14.9990000  16.8020000  26.5600000  12.9760000  17.9850000  26.1790000
  16.2070000  25.7960000  49.1870000  15.2220000  25.8010000  50.2060000
  17.4510000  25.0670000  49.4190000  16.0360000  26.4770000  47.9740000
  15.4180000  25.1420000  51.4070000  14.4080000  26.2690000  50.0620000
  17.6210000  24.3910000  50.6430000  18.4270000  25.0620000  48.4150000
  17.0120000  26.4710000  46.9700000  15.2230000  26.9490000  47.8430000
  14.4340000  25.1590000  52.4440000  16.6490000  24.4180000  51.6330000
  18.4220000  23.9030000  50.7950000  19.2400000  24.5900000  48.5460000
  18.2560000  25.7420000  47.2020000  16.8420000  27.1480000  45.7460000
  14.6450000  24.5150000  53.6170000  13.6190000  25.6280000  52.3080000
  16.8210000  23.7580000  52.8870000  19.2400000  25.7370000  46.1830000
  17.8140000  27.1210000  44.7560000  16.0400000  27.6360000  45.5940000
  15.8630000  23.8010000  53.8460000  13.9790000  24.5390000  54.2930000
  17.6230000  23.2770000  53.0530000  20.0550000  25.2700000  46.3280000
  19.0450000  26.3970000  44.9830000  17.6420000  27.7810000  43.5030000
  16.0010000  23.3560000  54.6740000  20.0290000  26.3800000  43.9450000
  18.6000000  27.7380000  42.5440000  16.8400000  28.2620000  43.3370000
  19.8180000  27.0230000  42.7730000  20.8440000  25.9110000  44.0820000
  18.4620000  28.1830000  41.7160000  20.4840000  27.0000000  42.0970000
  17.9900000  26.8670000  19.0890000  18.9740000  26.8620000  18.0700000
  16.7460000  27.5960000  18.8570000  18.1600000  26.1870000  20.3020000
  18.7780000  27.5220000  16.8690000  19.7880000  26.3950000  18.2140000
  16.5750000  28.2730000  17.6320000  15.7700000  27.6010000  19.8600000
  17.1840000  26.1920000  21.3060000  18.9740000  25.7150000  20.4330000
  19.7630000  27.5050000  15.8320000  17.5480000  28.2460000  16.6430000
  15.7740000  28.7610000  17.4810000  14.9560000  28.0740000  19.7300000
  15.9400000  26.9210000  21.0740000  17.3550000  25.5160000  22.5300000
  19.5510000  28.1480000  14.6590000  20.5770000  27.0360000  15.9680000
  17.3760000  28.9060000  15.3890000  14.9560000  26.9260000  22.0930000
  16.3820000  25.5430000  23.5190000  18.1560000  25.0280000  22.6820000
  18.3340000  28.8630000  14.4300000  20.2180000  28.1250000  13.9830000
  16.5730000  29.3870000  15.2230000  14.1420000  27.3940000  21.9480000
  15.1520000  26.2670000  23.2930000  16.5540000  24.8830000  24.7730000
  18.1950000  29.3080000  13.6020000  14.1670000  26.2840000  24.3310000
  15.5960000  24.9260000  25.7320000  17.3570000  24.4020000  24.9390000
  14.3790000  25.6400000  25.5030000  13.3530000  26.7530000  24.1940000
  15.7350000  24.4810000  26.5600000  13.7120000  25.6640000  26.1790000
  16.4420000  30.1980000  35.1300000  15.4570000  30.2030000  36.1500000
  17.6860000  29.4690000  35.3620000  16.2710000  30.8780000  33.9170000
  15.6530000  29.5440000  37.3500000  14.6430000  30.6710000  36.0050000
  17.8560000  28.7920000  36.5870000  18.6610000  29.4640000  34.3590000
  17.2470000  30.8730000  32.9140000  15.4570000  31.3510000  33.7870000
  14.6690000  29.5610000  38.3870000  16.8840000  28.8200000  37.5760000
  18.6570000  28.3050000  36.7380000  19.4750000  28.9910000  34.4890000
  18.4910000  30.1440000  33.1460000  17.0760000  31.5500000  31.6890000
  14.8800000  28.9170000  39.5600000  13.8540000  30.0300000  38.2510000
  17.0550000  28.1600000  38.8300000  19.4750000  30.1390000  32.1260000
  18.0490000  31.5230000  30.7000000  16.2750000  32.0370000  31.5370000
  16.0980000  28.2030000  39.7890000  14.2130000  28.9400000  40.2360000
  17.8580000  27.6790000  38.9960000  20.2900000  29.6710000  32.2710000
  19.2800000  30.7980000  30.9260000  17.8770000  32.1830000  29.4460000
  16.2360000  27.7580000  40.6170000  20.2640000  30.7820000  29.8890000
  18.8350000  32.1390000  28.4870000  17.0750000  32.6640000  29.2800000
  20.0530000  31.4250000  28.7160000  21.0790000  30.3130000  30.0250000
  18.6960000  32.5850000  27.6590000  20.7190000  31.4020000  28.0400000
  16.6760000  34.6000000  21.0740000  15.6920000  34.6050000  22.0930000
  17.9210000  33.8710000  21.3060000  16.5060000  35.2800000  19.8600000
  15.8880000  33.9460000  23.2930000  14.8780000  35.0730000  21.9480000
  18.0910000  33.1940000  22.5300000  18.8960000  33.8660000  20.3020000
  17.4820000  35.2750000  18.8570000  15.6920000  35.7530000  19.7300000
  14.9040000  33.9620000  24.3310000  17.1180000  33.2210000  23.5190000
  18.8920000  32.7070000  22.6820000  19.7100000  33.3930000  20.4330000
  18.7260000  34.5460000  19.0890000  17.3110000  35.9520000  17.6320000
  15.1150000  33.3190000  25.5030000  14.0890000  34.4310000  24.1940000
  17.2900000  32.5610000  24.7730000  19.7100000  34.5410000  18.0700000
  18.2840000  35.9240000  16.6430000  16.5100000  36.4390000  17.4810000
  16.3330000  32.6040000  25.7320000  14.4480000  33.3420000  26.1790000
  18.0930000  32.0800000  24.9390000  20.5240000  34.0730000  18.2140000
  19.5140000  35.2000000  16.8690000  18.1120000  36.5840000  15.3890000
  16.4710000  32.1590000  26.5600000  20.4990000  35.1830000  15.8320000
  19.0700000  36.5410000  14.4300000  17.3090000  37.0650000  15.2230000
  20.2880000  35.8270000  14.6590000  21.3130000  34.7140000  15.9680000
  18.9310000  36.9860000  13.6020000  20.9540000  35.8040000  13.9830000
  17.1780000  37.8770000  35.1300000  16.1930000  37.8820000  36.1500000
  18.4220000  37.1480000  35.3620000  17.0070000  38.5570000  33.9170000
  16.3890000  37.2220000  37.3500000  15.3790000  38.3490000  36.0050000
  18.5920000  36.4710000  36.5870000  19.3980000  37.1430000  34.3590000
  17.9830000  38.5520000  32.9140000  16.1940000  39.0290000  33.7870000
  15.4050000  37.2390000  38.3870000  17.6200000  36.4980000  37.5760000
  19.3930000  35.9830000  36.7380000  20.2110000  36.6700000  34.4890000
  19.2270000  37.8230000  33.1460000  17.8120000  39.2280000  31.6890000
  15.6160000  36.5960000  39.5600000  14.5900000  37.7080000  38.2510000
  17.7920000  35.8380000  38.8300000  20.2110000  37.8180000  32.1260000
  18.7850000  39.2010000  30.7000000  17.0110000  39.7160000  31.5370000
  16.8340000  35.8810000  39.7890000  14.9490000  36.6190000  40.2360000
  18.5940000  35.3570000  38.9960000  21.0260000  37.3500000  32.2710000
  20.0160000  38.4770000  30.9260000  18.6130000  39.8610000  29.4460000
  16.9720000  35.4360000  40.6170000  21.0000000  38.4600000  29.8890000
  19.5710000  39.8180000  28.4870000  17.8110000  40.3420000  29.2800000
  20.7890000  39.1040000  28.7160000  21.8150000  37.9910000  30.0250000
  19.4330000  40.2630000  27.6590000  21.4550000  39.0800000  28.0400000
  19.4620000  42.2240000  19.0890000  20.4460000  42.2190000  18.0700000
  18.2180000  42.9540000  18.8570000  19.6320000  41.5440000  20.3020000
  20.2510000  42.8790000  16.8690000  21.2610000  41.7520000  18.2140000
  18.0470000  43.6300000  17.6320000  17.2420000  42.9590000  19.8600000
  18.6570000  41.5490000  21.3060000  20.4460000  41.0720000  20.4330000
  21.2350000  42.8620000  15.8320000  19.0200000  43.6030000  16.6430000
  17.2460000  44.1180000  17.4810000  16.4280000  43.4310000  19.7300000
  17.4130000  42.2790000  21.0740000  18.8270000  40.8730000  22.5300000
  21.0240000  43.5050000  14.6590000  22.0500000  42.3930000  15.9680000
  18.8480000  44.2630000  15.3890000  16.4280000  42.2830000  22.0930000
  17.8550000  40.9000000  23.5190000  19.6280000  40.3850000  22.6820000
  19.8060000  44.2200000  14.4300000  21.6900000  43.4820000  13.9830000
  18.0450000  44.7440000  15.2230000  15.6140000  42.7510000  21.9480000
  16.6240000  41.6240000  23.2930000  18.0260000  40.2400000  24.7730000
  19.6670000  44.6650000  13.6020000  15.6400000  41.6410000  24.3310000
  17.0690000  40.2830000  25.7320000  18.8290000  39.7590000  24.9390000
  15.8510000  40.9980000  25.5030000  14.8250000  42.1100000  24.1940000
  17.2070000  39.8380000  26.5600000  15.1840000  41.0210000  26.1790000
  17.6470000  46.6800000   7.0170000  16.6630000  46.6850000   8.0360000
  18.8920000  45.9510000   7.2490000  17.4770000  47.3600000   5.8040000
  16.8590000  46.0260000   9.2360000  15.8490000  47.1530000   7.8910000
  19.0620000  45.2740000   8.4730000  19.8670000  45.9460000   6.2450000
  18.4530000  47.3550000   4.8000000  16.6630000  47.8330000   5.6730000
  15.8740000  46.0430000  10.2740000  18.0890000  45.3020000   9.4630000
  19.8630000  44.7870000   8.6250000  20.6810000  45.4740000   6.3760000
  19.6970000  46.6260000   5.0320000  18.2820000  48.0320000   3.5760000
  16.0860000  45.3990000  11.4460000  15.0600000  46.5120000  10.1370000
  18.2610000  44.6420000  10.7170000  20.6810000  46.6210000   4.0130000
  19.2550000  48.0050000   2.5860000  17.4810000  48.5200000   3.4240000
  17.3040000  44.6850000  11.6750000  15.4190000  45.4230000  12.1220000
  19.0640000  44.1610000  10.8820000  21.4950000  46.1540000   4.1580000
  20.4850000  47.2800000   2.8120000  19.0830000  48.6650000   1.3320000
  17.4420000  44.2400000  12.5030000  21.4700000  47.2640000   1.7750000
  20.0410000  48.6220000   0.3740000  18.2800000  49.1460000   1.1660000
  21.2580000  47.9070000   0.6030000  22.2840000  46.7950000   1.9110000
  19.9020000  49.0670000  -0.4540000  21.9250000  47.8840000  -0.0730000
  20.1980000  49.9030000  19.0890000  21.1820000  49.8980000  18.0700000
  18.9540000  50.6320000  18.8570000  20.3690000  49.2230000  20.3020000
  20.9870000  50.5570000  16.8690000  21.9970000  49.4300000  18.2140000
  18.7830000  51.3090000  17.6320000  17.9780000  50.6370000  19.8600000
  19.3930000  49.2280000  21.3060000  21.1820000  48.7500000  20.4330000
  21.9710000  50.5400000  15.8320000  19.7560000  51.2820000  16.6430000
  17.9820000  51.7960000  17.4810000  17.1640000  51.1100000  19.7300000
  18.1490000  49.9570000  21.0740000  19.5630000  48.5510000  22.5300000
  21.7600000  51.1840000  14.6590000  22.7860000  50.0720000  15.9680000
  19.5840000  51.9410000  15.3890000  17.1640000  49.9620000  22.0930000
  18.5910000  48.5780000  23.5190000  20.3640000  48.0640000  22.6820000
  20.5420000  51.8980000  14.4300000  22.4260000  51.1610000  13.9830000
  18.7820000  52.4230000  15.2230000  16.3500000  50.4300000  21.9480000
  17.3600000  49.3030000  23.2930000  18.7620000  47.9190000  24.7730000
  20.4030000  52.3440000  13.6020000  16.3760000  49.3200000  24.3310000
  17.8050000  47.9620000  25.7320000  19.5650000  47.4370000  24.9390000
  16.5870000  48.6760000  25.5030000  15.5610000  49.7890000  24.1940000
  17.9430000  47.5170000  26.5600000  15.9200000  48.6990000  26.1790000
  19.1510000  56.5110000  49.1870000  18.1670000  56.5160000  50.2060000
  20.3950000  55.7820000  49.4190000  18.9810000  57.1910000  47.9740000
  18.3630000  55.8560000  51.4070000  17.3530000  56.9830000  50.0620000
  20.5660000  55.1050000  50.6430000  21.3710000  55.7770000  48.4150000
  19.9560000  57.1860000  46.9700000  18.1670000  57.6630000  47.8430000
  17.3780000  55.8730000  52.4440000  19.5930000  55.1320000  51.6330000
  21.3670000  54.6170000  50.7950000  22.1850000  55.3040000  48.5460000
  21.2010000  56.4570000  47.2020000  19.7860000  57.8620000  45.7460000
  17.5890000  55.2300000  53.6170000  16.5640000  56.3420000  52.3080000
  19.7650000  54.4720000  52.8870000  22.1850000  56.4520000  46.1830000
  20.7590000  57.8350000  44.7560000  18.9850000  58.3500000  45.5940000
  18.8070000  54.5150000  53.8460000  16.9230000  55.2530000  54.2930000
  20.5680000  53.9910000  53.0530000  22.9990000  55.9840000  46.3280000
  21.9890000  57.1110000  44.9830000  20.5870000  58.4950000  43.5030000
  18.9460000  54.0700000  54.6740000  22.9730000  57.0940000  43.9450000
  21.5440000  58.4520000  42.5440000  19.7840000  58.9760000  43.3370000
  22.7620000  57.7380000  42.7730000  23.7880000  56.6250000  44.0820000
  21.4060000  58.8970000  41.7160000  23.4290000  57.7140000  42.0970000
  15.9720000  21.3950000  63.2440000  14.9880000  21.4000000  64.2630000
  17.2160000  20.6660000  63.4760000  15.8010000  22.0750000  62.0310000
  15.1830000  20.7400000  65.4640000  14.1730000  21.8670000  64.1180000
  17.3860000  19.9890000  64.7000000  18.1920000  20.6600000  62.4720000
  16.7770000  22.0700000  61.0270000  14.9880000  22.5470000  61.9000000
  14.1990000  20.7570000  66.5010000  16.4140000  20.0160000  65.6900000
  18.1880000  19.5010000  64.8520000  19.0050000  20.1880000  62.6030000
  18.0210000  21.3400000  61.2590000  16.6070000  22.7460000  59.8030000
  14.4100000  20.1140000  67.6730000  13.3840000  21.2260000  66.3650000
  16.5860000  19.3560000  66.9440000  19.0060000  21.3360000  60.2400000
  17.5790000  22.7190000  58.8130000  15.8050000  23.2340000  59.6510000
  15.6280000  19.3990000  67.9020000  13.7440000  20.1370000  68.3490000
  17.3880000  18.8750000  67.1100000  19.8200000  20.8680000  60.3850000
  18.8100000  21.9950000  59.0400000  17.4070000  23.3790000  57.5590000
  15.7660000  18.9540000  68.7300000  19.7940000  21.9780000  58.0020000
  18.3650000  23.3360000  56.6010000  16.6050000  23.8600000  57.3940000
  19.5830000  22.6220000  56.8300000  20.6090000  21.5090000  58.1390000
  18.2270000  23.7810000  55.7730000  20.2490000  22.5980000  56.1540000
  14.7030000  15.9660000   7.0170000  13.7190000  15.9710000   8.0360000
  15.9470000  15.2370000   7.2490000  14.5320000  16.6460000   5.8040000
  13.9140000  15.3120000   9.2360000  12.9040000  16.4390000   7.8910000
  16.1180000  14.5600000   8.4730000  16.9230000  15.2320000   6.2450000
  15.5080000  16.6410000   4.8000000  13.7190000  17.1190000   5.6730000
  12.9300000  15.3280000  10.2740000  15.1450000  14.5870000   9.4630000
  16.9190000  14.0730000   8.6250000  17.7360000  14.7590000   6.3760000
  16.7520000  15.9120000   5.0320000  15.3380000  17.3180000   3.5760000
  13.1410000  14.6850000  11.4460000  12.1150000  15.7970000  10.1370000
  15.3170000  13.9270000  10.7170000  17.7370000  15.9070000   4.0130000
  16.3100000  17.2900000   2.5860000  14.5370000  17.8050000   3.4240000
  14.3590000  13.9700000  11.6750000  12.4750000  14.7080000  12.1220000
  16.1190000  13.4460000  10.8820000  18.5510000  15.4390000   4.1580000
  17.5410000  16.5660000   2.8120000  16.1380000  17.9500000   1.3320000
  14.4970000  13.5250000  12.5030000  18.5250000  16.5490000   1.7750000
  17.0960000  17.9070000   0.3740000  15.3360000  18.4310000   1.1660000
  18.3140000  17.1930000   0.6030000  19.3400000  16.0800000   1.9110000
  16.9580000  18.3520000  -0.4540000  18.9810000  17.1700000  -0.0730000
  19.8870000  64.1890000  49.1870000  18.9030000  64.1940000  50.2060000
  21.1310000  63.4600000  49.4190000  19.7170000  64.8700000  47.9740000
  19.0990000  63.5350000  51.4070000  18.0890000  64.6620000  50.0620000
  21.3020000  62.7840000  50.6430000  22.1070000  63.4550000  48.4150000
  20.6930000  64.8640000  46.9700000  18.9030000  65.3420000  47.8430000
  18.1140000  63.5520000  52.4440000  20.3290000  62.8110000  51.6330000
  22.1030000  62.2960000  50.7950000  22.9210000  62.9830000  48.5460000
  21.9370000  64.1350000  47.2020000  20.5220000  65.5410000  45.7460000
  18.3260000  62.9080000  53.6170000  17.3000000  64.0210000  52.3080000
  20.5010000  62.1510000  52.8870000  22.9210000  64.1300000  46.1830000
  21.4950000  65.5140000  44.7560000  19.7210000  66.0290000  45.5940000
  19.5430000  62.1940000  53.8460000  17.6590000  62.9320000  54.2930000
  21.3040000  61.6700000  53.0530000  23.7350000  63.6630000  46.3280000
  22.7250000  64.7900000  44.9830000  21.3230000  66.1740000  43.5030000
  19.6820000  61.7490000  54.6740000  23.7100000  64.7730000  43.9450000
  22.2810000  66.1310000  42.5440000  20.5200000  66.6550000  43.3370000
  23.4980000  65.4160000  42.7730000  24.5240000  64.3040000  44.0820000
  22.1420000  66.5760000  41.7160000  24.1650000  65.3930000  42.0970000
  18.4150000  48.8320000  49.1870000  17.4310000  48.8370000  50.2060000
  19.6590000  48.1030000  49.4190000  18.2450000  49.5120000  47.9740000
  17.6260000  48.1780000  51.4070000  16.6160000  49.3050000  50.0620000
  19.8300000  47.4260000  50.6430000  20.6350000  48.0980000  48.4150000
  19.2200000  49.5070000  46.9700000  17.4310000  49.9850000  47.8430000
  16.6420000  48.1950000  52.4440000  18.8570000  47.4540000  51.6330000
  20.6310000  46.9390000  50.7950000  21.4490000  47.6250000  48.5460000
  20.4640000  48.7780000  47.2020000  19.0500000  50.1840000  45.7460000
  16.8530000  47.5510000  53.6170000  15.8270000  48.6640000  52.3080000
  19.0290000  46.7940000  52.8870000  21.4490000  48.7730000  46.1830000
  20.0220000  50.1570000  44.7560000  18.2490000  50.6710000  45.5940000
  18.0710000  46.8370000  53.8460000  16.1870000  47.5740000  54.2930000
  19.8320000  46.3130000  53.0530000  22.2630000  48.3050000  46.3280000
  21.2530000  49.4320000  44.9830000  19.8510000  50.8170000  43.5030000
  18.2100000  46.3920000  54.6740000  22.2370000  49.4160000  43.9450000
  20.8080000  50.7740000  42.5440000  19.0480000  51.2980000  43.3370000
  22.0260000  50.0590000  42.7730000  23.0520000  48.9470000  44.0820000
  20.6700000  51.2190000  41.7160000  22.6930000  50.0360000  42.0970000
  16.9110000  39.0020000   7.0170000  15.9270000  39.0070000   8.0360000
  18.1550000  38.2730000   7.2490000  16.7410000  39.6820000   5.8040000
  16.1230000  38.3470000   9.2360000  15.1130000  39.4740000   7.8910000
  18.3260000  37.5960000   8.4730000  19.1310000  38.2670000   6.2450000
  17.7170000  39.6770000   4.8000000  15.9270000  40.1540000   5.6730000
  15.1380000  38.3640000  10.2740000  17.3530000  37.6230000   9.4630000
  19.1270000  37.1080000   8.6250000  19.9450000  37.7950000   6.3760000
  18.9610000  38.9480000   5.0320000  17.5460000  40.3530000   3.5760000
  15.3500000  37.7210000  11.4460000  14.3240000  38.8330000  10.1370000
  17.5250000  36.9630000  10.7170000  19.9450000  38.9430000   4.0130000
  18.5190000  40.3260000   2.5860000  16.7450000  40.8410000   3.4240000
  16.5670000  37.0060000  11.6750000  14.6830000  37.7440000  12.1220000
  18.3280000  36.4820000  10.8820000  20.7590000  38.4750000   4.1580000
  19.7490000  39.6020000   2.8120000  18.3470000  40.9860000   1.3320000
  16.7060000  36.5610000  12.5030000  20.7340000  39.5850000   1.7750000
  19.3050000  40.9430000   0.3740000  17.5440000  41.4670000   1.1660000
  20.5220000  40.2290000   0.6030000  21.5480000  39.1160000   1.9110000
  19.1660000  41.3880000  -0.4540000  21.1890000  40.2050000  -0.0730000
  15.7060000  22.5200000  35.1300000  14.7210000  22.5250000  36.1500000
  16.9500000  21.7900000  35.3620000  15.5350000  23.2000000  33.9170000
  14.9170000  21.8650000  37.3500000  13.9070000  22.9920000  36.0050000
  17.1200000  21.1140000  36.5870000  17.9250000  21.7850000  34.3590000
  16.5110000  23.1950000  32.9140000  14.7210000  23.6720000  33.7870000
  13.9330000  21.8820000  38.3870000  16.1470000  21.1410000  37.5760000
  17.9210000  20.6260000  36.7380000  18.7390000  21.3130000  34.4890000
  17.7550000  22.4650000  33.1460000  16.3400000  23.8710000  31.6890000
  14.1440000  21.2390000  39.5600000  13.1180000  22.3510000  38.2510000
  16.3190000  20.4810000  38.8300000  18.7390000  22.4610000  32.1260000
  17.3130000  23.8440000  30.7000000  15.5390000  24.3590000  31.5370000
  15.3620000  20.5240000  39.7890000  13.4770000  21.2620000  40.2360000
  17.1220000  20.0000000  38.9960000  19.5530000  21.9930000  32.2710000
  18.5440000  23.1200000  30.9260000  17.1410000  24.5040000  29.4460000
  15.5000000  20.0790000  40.6170000  19.5280000  23.1030000  29.8890000
  18.0990000  24.4610000  28.4870000  16.3380000  24.9850000  29.2800000
  19.3170000  23.7460000  28.7160000  20.3420000  22.6340000  30.0250000
  17.9600000  24.9060000  27.6590000  19.9830000  23.7230000  28.0400000
  18.8850000  57.6360000  21.0740000  17.9000000  57.6410000  22.0930000
  20.1290000  56.9070000  21.3060000  18.7140000  58.3160000  19.8600000
  18.0960000  56.9810000  23.2930000  17.0860000  58.1080000  21.9480000
  20.2990000  56.2300000  22.5300000  21.1050000  56.9010000  20.3020000
  19.6900000  58.3110000  18.8570000  17.9010000  58.7880000  19.7300000
  17.1120000  56.9980000  24.3310000  19.3270000  56.2570000  23.5190000
  21.1010000  55.7420000  22.6820000  21.9180000  56.4290000  20.4330000
  20.9340000  57.5820000  19.0890000  19.5200000  58.9870000  17.6320000
  17.3230000  56.3550000  25.5030000  16.2970000  57.4670000  24.1940000
  19.4990000  55.5970000  24.7730000  21.9180000  57.5770000  18.0700000
  20.4920000  58.9600000  16.6430000  18.7180000  59.4750000  17.4810000
  18.5410000  55.6400000  25.7320000  16.6570000  56.3780000  26.1790000
  20.3010000  55.1160000  24.9390000  22.7330000  57.1090000  18.2140000
  21.7230000  58.2360000  16.8690000  20.3200000  59.6200000  15.3890000
  18.6790000  55.1950000  26.5600000  22.7070000  58.2190000  15.8320000
  21.2780000  59.5770000  14.4300000  19.5180000  60.1010000  15.2230000
  22.4960000  58.8630000  14.6590000  23.5220000  57.7500000  15.9680000
  21.1400000  60.0220000  13.6020000  23.1620000  58.8390000  13.9830000
  19.3860000  60.9130000  35.1300000  18.4020000  60.9170000  36.1500000
  20.6300000  60.1830000  35.3620000  19.2160000  61.5930000  33.9170000
  18.5970000  60.2580000  37.3500000  17.5870000  61.3850000  36.0050000
  20.8010000  59.5070000  36.5870000  21.6060000  60.1780000  34.3590000
  20.1910000  61.5880000  32.9140000  18.4020000  62.0650000  33.7870000
  17.6130000  60.2750000  38.3870000  19.8280000  59.5340000  37.5760000
  21.6020000  59.0190000  36.7380000  22.4200000  59.7060000  34.4890000
  21.4350000  60.8580000  33.1460000  20.0210000  62.2640000  31.6890000
  17.8240000  59.6320000  39.5600000  16.7980000  60.7440000  38.2510000
  20.0000000  58.8740000  38.8300000  22.4200000  60.8530000  32.1260000
  20.9930000  62.2370000  30.7000000  19.2200000  62.7520000  31.5370000
  19.0420000  58.9170000  39.7890000  17.1580000  59.6550000  40.2360000
  20.8020000  58.3930000  38.9960000  23.2340000  60.3860000  32.2710000
  22.2240000  61.5130000  30.9260000  20.8220000  62.8970000  29.4460000
  19.1810000  58.4720000  40.6170000  23.2080000  61.4960000  29.8890000
  21.7790000  62.8540000  28.4870000  20.0190000  63.3780000  29.2800000
  22.9970000  62.1390000  28.7160000  24.0230000  61.0270000  30.0250000
  21.6410000  63.2990000  27.6590000  23.6640000  62.1160000  28.0400000
  20.4330000  54.3050000   5.0320000  21.4170000  54.3000000   4.0130000
  19.1890000  55.0340000   4.8000000  20.6030000  53.6250000   6.2450000
  21.2220000  54.9590000   2.8120000  22.2320000  53.8320000   4.1580000
  19.0180000  55.7110000   3.5760000  18.2130000  55.0390000   5.8040000
  19.6280000  53.6300000   7.2490000  21.4170000  53.1520000   6.3760000
  22.2060000  54.9420000   1.7750000  19.9910000  55.6830000   2.5860000
  18.2170000  56.1980000   3.4240000  17.3990000  55.5110000   5.6730000
  18.3840000  54.3590000   7.0170000  19.7980000  52.9530000   8.4730000
  21.9950000  55.5860000   0.6030000  23.0210000  54.4730000   1.9110000
  19.8190000  56.3430000   1.3320000  17.3990000  54.3640000   8.0360000
  18.8260000  52.9800000   9.4630000  20.5990000  52.4660000   8.6250000
  20.7770000  56.3000000   0.3740000  22.6610000  55.5630000  -0.0730000
  19.0160000  56.8240000   1.1660000  16.5850000  54.8310000   7.8910000
  17.5950000  53.7050000   9.2360000  18.9970000  52.3200000  10.7170000
  20.6380000  56.7450000  -0.4540000  16.6110000  53.7210000  10.2740000
  18.0400000  52.3630000  11.6750000  19.8000000  51.8390000  10.8820000
  16.8220000  53.0780000  11.4460000  15.7960000  54.1900000  10.1370000
  18.1780000  51.9180000  12.5030000  16.1550000  53.1010000  12.1220000
  20.3890000  67.4660000  63.2440000  19.4040000  67.4710000  64.2630000
  21.6330000  66.7370000  63.4760000  20.2180000  68.1460000  62.0310000
  19.6000000  66.8120000  65.4640000  18.5900000  67.9390000  64.1180000
  21.8030000  66.0600000  64.7000000  22.6080000  66.7320000  62.4720000
  21.1940000  68.1410000  61.0270000  19.4040000  68.6190000  61.9000000
  18.6160000  66.8290000  66.5010000  20.8310000  66.0880000  65.6900000
  22.6040000  65.5730000  64.8520000  23.4220000  66.2590000  62.6030000
  22.4380000  67.4120000  61.2590000  21.0230000  68.8180000  59.8030000
  18.8270000  66.1850000  67.6730000  17.8010000  67.2980000  66.3650000
  21.0020000  65.4280000  66.9440000  23.4220000  67.4070000  60.2400000
  21.9960000  68.7910000  58.8130000  20.2220000  69.3050000  59.6510000
  20.0450000  65.4710000  67.9020000  18.1600000  66.2080000  68.3490000
  21.8050000  64.9470000  67.1100000  24.2370000  66.9390000  60.3850000
  23.2270000  68.0660000  59.0400000  21.8240000  69.4510000  57.5590000
  20.1830000  65.0260000  68.7300000  24.2110000  68.0500000  58.0020000
  22.7820000  69.4080000  56.6010000  21.0220000  69.9320000  57.3940000
  24.0000000  68.6930000  56.8300000  25.0260000  67.5810000  58.1390000
  22.6430000  69.8530000  55.7730000  24.6660000  68.6700000  56.1540000
  17.9140000  45.5550000  35.1300000  16.9290000  45.5600000  36.1500000
  19.1580000  44.8260000  35.3620000  17.7430000  46.2350000  33.9170000
  17.1250000  44.9010000  37.3500000  16.1150000  46.0280000  36.0050000
  19.3280000  44.1500000  36.5870000  20.1340000  44.8210000  34.3590000
  18.7190000  46.2300000  32.9140000  16.9300000  46.7080000  33.7870000
  16.1410000  44.9180000  38.3870000  18.3560000  44.1770000  37.5760000
  20.1300000  43.6620000  36.7380000  20.9470000  44.3490000  34.4890000
  19.9630000  45.5010000  33.1460000  18.5490000  46.9070000  31.6890000
  16.3520000  44.2740000  39.5600000  15.3260000  45.3870000  38.2510000
  18.5280000  43.5170000  38.8300000  20.9470000  45.4960000  32.1260000
  19.5210000  46.8800000  30.7000000  17.7470000  47.3950000  31.5370000
  17.5700000  43.5600000  39.7890000  15.6860000  44.2980000  40.2360000
  19.3300000  43.0360000  38.9960000  21.7620000  45.0290000  32.2710000
  20.7520000  46.1560000  30.9260000  19.3490000  47.5400000  29.4460000
  17.7080000  43.1150000  40.6170000  21.7360000  46.1390000  29.8890000
  20.3070000  47.4970000  28.4870000  18.5470000  48.0210000  29.2800000
  21.5250000  46.7820000  28.7160000  22.5510000  45.6700000  30.0250000
  20.1690000  47.9420000  27.6590000  22.1910000  46.7590000  28.0400000
  18.6500000  53.2340000  35.1300000  17.6660000  53.2390000  36.1500000
  19.8940000  52.5050000  35.3620000  18.4790000  53.9140000  33.9170000
  17.8610000  52.5800000  37.3500000  16.8510000  53.7070000  36.0050000
  20.0650000  51.8280000  36.5870000  20.8700000  52.5000000  34.3590000
  19.4550000  53.9090000  32.9140000  17.6660000  54.3870000  33.7870000
  16.8770000  52.5960000  38.3870000  19.0920000  51.8550000  37.5760000
  20.8660000  51.3410000  36.7380000  21.6830000  52.0270000  34.4890000
  20.6990000  53.1800000  33.1460000  19.2850000  54.5860000  31.6890000
  17.0880000  51.9530000  39.5600000  16.0620000  53.0650000  38.2510000
  19.2640000  51.1950000  38.8300000  21.6840000  53.1750000  32.1260000
  20.2570000  54.5580000  30.7000000  18.4840000  55.0730000  31.5370000
  18.3060000  51.2390000  39.7890000  16.4220000  51.9760000  40.2360000
  20.0660000  50.7140000  38.9960000  22.4980000  52.7070000  32.2710000
  21.4880000  53.8340000  30.9260000  20.0850000  55.2180000  29.4460000
  18.4440000  50.7930000  40.6170000  22.4720000  53.8170000  29.8890000
  21.0430000  55.1750000  28.4870000  19.2830000  55.6990000  29.2800000
  22.2610000  54.4610000  28.7160000  23.2870000  53.3480000  30.0250000
  20.9050000  55.6200000  27.6590000  22.9280000  54.4380000  28.0400000
  21.5190000  25.7810000  61.4450000  22.5100000  26.3520000  60.6130000
  20.2880000  25.2930000  60.8400000  21.6980000  25.6790000  62.8320000
  22.3320000  26.4530000  59.2380000  23.3160000  26.6730000  61.0020000
  20.1310000  25.4120000  59.4490000  19.3070000  24.7350000  61.6710000
  20.7170000  25.1210000  63.6630000  22.5110000  25.9960000  63.2050000
  23.3280000  27.0390000  58.3750000  21.1070000  25.9770000  58.6390000
  19.3300000  25.0940000  59.0480000  18.4930000  24.4180000  61.2990000
  19.4860000  24.6330000  63.0580000  20.8730000  25.0020000  65.0550000
  23.1300000  27.1360000  57.0390000  24.1380000  27.3630000  58.7500000
  20.9430000  26.1020000  57.2160000  18.4940000  24.0620000  63.8910000
  19.8970000  24.4370000  65.8640000  21.6750000  25.3190000  65.4550000
  21.9220000  26.6540000  56.4550000  23.7980000  27.5280000  56.4900000
  20.1440000  25.7960000  56.8050000  17.6890000  23.7410000  63.5010000
  18.6730000  23.9610000  65.2650000  20.0610000  24.3110000  67.2870000
  21.8010000  26.7180000  55.5140000  17.6770000  23.3750000  66.1280000
  19.0820000  23.7600000  68.0490000  20.8610000  24.6180000  67.6990000
  17.8750000  23.2780000  67.4640000  16.8670000  23.0510000  65.7530000
  19.2030000  23.6950000  68.9890000  17.2060000  22.8860000  68.0130000
  17.9820000  14.8030000  20.8880000  16.9900000  14.2310000  21.7200000
  19.2130000  15.2910000  21.4920000  17.8030000  14.9050000  19.5010000
  17.1690000  14.1300000  23.0950000  16.1850000  13.9100000  21.3310000
  19.3690000  15.1710000  22.8840000  20.1940000  15.8480000  20.6620000
  18.7840000  15.4620000  18.6700000  16.9890000  14.5880000  19.1280000
  16.1730000  13.5440000  23.9580000  18.3930000  14.6060000  23.6940000
  20.1710000  15.4890000  23.2850000  21.0080000  16.1650000  21.0340000
  20.0150000  15.9500000  19.2740000  18.6280000  15.5810000  17.2780000
  16.3710000  13.4470000  25.2930000  15.3630000  13.2200000  23.5830000
  18.5570000  14.4810000  25.1160000  21.0070000  16.5220000  18.4420000
  19.6030000  16.1470000  16.4690000  17.8260000  15.2640000  16.8780000
  17.5780000  13.9300000  25.8780000  15.7020000  13.0550000  25.8430000
  19.3570000  14.7870000  25.5280000  21.8120000  16.8430000  18.8320000
  20.8280000  16.6230000  17.0670000  19.4400000  16.2720000  15.0460000
  17.6990000  13.8650000  26.8190000  21.8240000  17.2090000  16.2040000
  20.4190000  16.8230000  14.2840000  18.6400000  15.9660000  14.6340000
  21.6260000  17.3060000  14.8690000  22.6340000  17.5330000  16.5800000
  20.2970000  16.8880000  13.3440000  22.2940000  17.6970000  14.3190000
  20.2220000  32.3120000  63.0580000  19.2300000  31.7400000  63.8910000
  21.4530000  32.8000000  63.6630000  20.0430000  32.4140000  61.6710000
  19.4090000  31.6390000  65.2650000  18.4250000  31.4190000  63.5010000
  21.6090000  32.6800000  65.0550000  22.4340000  33.3570000  62.8320000
  21.0240000  32.9710000  60.8400000  19.2290000  32.0970000  61.2990000
  18.4130000  31.0530000  66.1280000  20.6330000  32.1150000  65.8640000
  22.4110000  32.9980000  65.4550000  23.2480000  33.6740000  63.2050000
  22.2550000  33.4590000  61.4450000  20.8670000  33.0910000  59.4490000
  18.6110000  30.9560000  67.4640000  17.6030000  30.7290000  65.7530000
  20.7970000  31.9900000  67.2870000  23.2470000  34.0310000  60.6130000
  21.8430000  33.6560000  58.6390000  20.0660000  32.7730000  59.0480000
  19.8180000  31.4390000  68.0490000  17.9420000  30.5640000  68.0130000
  21.5970000  32.2960000  67.6990000  24.0520000  34.3520000  61.0020000
  23.0680000  34.1320000  59.2380000  21.6800000  33.7810000  57.2160000
  19.9390000  31.3740000  68.9890000  24.0640000  34.7180000  58.3750000
  22.6580000  34.3320000  56.4550000  20.8800000  33.4750000  56.8050000
  23.8660000  34.8150000  57.0390000  24.8740000  35.0420000  58.7500000
  22.5370000  34.3970000  55.5140000  24.5340000  35.2070000  56.4900000
  19.4540000  30.1600000  20.8880000  18.4620000  29.5880000  21.7200000
  20.6850000  30.6480000  21.4920000  19.2750000  30.2620000  19.5010000
  18.6410000  29.4870000  23.0950000  17.6570000  29.2670000  21.3310000
  20.8420000  30.5290000  22.8840000  21.6660000  31.2050000  20.6620000
  20.2560000  30.8190000  18.6700000  18.4620000  29.9450000  19.1280000
  17.6450000  28.9010000  23.9580000  19.8660000  29.9630000  23.6940000
  21.6430000  30.8460000  23.2850000  22.4800000  31.5220000  21.0340000
  21.4870000  31.3070000  19.2740000  20.1000000  30.9390000  17.2780000
  17.8430000  28.8040000  25.2930000  16.8350000  28.5770000  23.5830000
  20.0300000  29.8380000  25.1160000  22.4790000  31.8790000  18.4420000
  21.0760000  31.5040000  16.4690000  19.2980000  30.6210000  16.8780000
  19.0510000  29.2870000  25.8780000  17.1750000  28.4130000  25.8430000
  20.8290000  30.1440000  25.5280000  23.2840000  32.2000000  18.8320000
  22.3000000  31.9800000  17.0670000  20.9120000  31.6290000  15.0460000
  19.1720000  29.2220000  26.8190000  23.2960000  32.5660000  16.2040000
  21.8910000  32.1800000  14.2840000  20.1120000  31.3230000  14.6340000
  23.0980000  32.6630000  14.8690000  24.1060000  32.8900000  16.5800000
  21.7700000  32.2450000  13.3440000  23.7670000  33.0550000  14.3190000
  20.9580000  39.9900000  63.0580000  19.9660000  39.4190000  63.8910000
  22.1890000  40.4780000  63.6630000  20.7790000  40.0920000  61.6710000
  20.1450000  39.3180000  65.2650000  19.1610000  39.0980000  63.5010000
  22.3450000  40.3590000  65.0550000  23.1700000  41.0360000  62.8320000
  21.7600000  40.6500000  60.8400000  19.9650000  39.7750000  61.2990000
  19.1490000  38.7320000  66.1280000  21.3700000  39.7940000  65.8640000
  23.1470000  40.6770000  65.4550000  23.9840000  41.3530000  63.2050000
  22.9910000  41.1380000  61.4450000  21.6040000  40.7690000  59.4490000
  19.3470000  38.6350000  67.4640000  18.3390000  38.4080000  65.7530000
  21.5330000  39.6680000  67.2870000  23.9830000  41.7090000  60.6130000
  22.5790000  41.3340000  58.6390000  20.8020000  40.4520000  59.0480000
  20.5540000  39.1170000  68.0490000  18.6780000  38.2430000  68.0130000
  22.3330000  39.9750000  67.6990000  24.7880000  42.0300000  61.0020000
  23.8040000  41.8100000  59.2380000  22.4160000  41.4600000  57.2160000
  20.6760000  39.0520000  68.9890000  24.8000000  42.3960000  58.3750000
  23.3950000  42.0110000  56.4550000  21.6160000  41.1530000  56.8050000
  24.6020000  42.4930000  57.0390000  25.6100000  42.7200000  58.7500000
  23.2730000  42.0760000  55.5140000  25.2710000  42.8850000  56.4900000
  22.2230000  38.9860000  19.2740000  23.2150000  39.5570000  18.4420000
  20.9920000  38.4980000  18.6700000  22.4030000  38.8840000  20.6620000
  23.0360000  39.6580000  17.0670000  24.0200000  39.8780000  18.8320000
  20.8360000  38.6170000  17.2780000  20.0110000  37.9410000  19.5010000
  21.4210000  38.3270000  21.4920000  23.2160000  39.2010000  21.0340000
  24.0320000  40.2440000  16.2040000  21.8120000  39.1830000  16.4690000
  20.0350000  38.3000000  16.8780000  19.1980000  37.6230000  19.1280000
  20.1910000  37.8390000  20.8880000  21.5780000  38.2070000  22.8840000
  23.8340000  40.3420000  14.8690000  24.8420000  40.5680000  16.5800000
  21.6480000  39.3080000  15.0460000  19.1990000  37.2670000  21.7200000
  20.6020000  37.6420000  23.6940000  22.3790000  38.5250000  23.2850000
  22.6270000  39.8590000  14.2840000  24.5030000  40.7330000  14.3190000
  20.8480000  39.0010000  14.6340000  18.3930000  36.9460000  21.3310000
  19.3770000  37.1660000  23.0950000  20.7660000  37.5170000  25.1160000
  22.5060000  39.9240000  13.3440000  18.3810000  36.5800000  23.9580000
  19.7870000  36.9650000  25.8780000  21.5650000  37.8230000  25.5280000
  18.5790000  36.4830000  25.2930000  17.5710000  36.2560000  23.5830000
  19.9080000  36.9010000  26.8190000  17.9110000  36.0910000  25.8430000
  21.4280000  48.7940000  34.9450000  20.4360000  48.2220000  35.7770000
  22.6590000  49.2820000  35.5490000  21.2490000  48.8960000  33.5570000
  20.6150000  48.1210000  37.1520000  19.6310000  47.9010000  35.3880000
  22.8150000  49.1630000  36.9410000  23.6400000  49.8390000  34.7190000
  22.2300000  49.4530000  32.7270000  20.4350000  48.5790000  33.1850000
  19.6190000  47.5350000  38.0150000  21.8390000  48.5970000  37.7510000
  23.6170000  49.4800000  37.3420000  24.4530000  50.1560000  35.0910000
  23.4610000  49.9410000  33.3310000  22.0730000  49.5730000  31.3350000
  19.8170000  47.4380000  39.3500000  18.8090000  47.2110000  37.6400000
  22.0030000  48.4720000  39.1730000  24.4520000  50.5130000  32.4990000
  23.0490000  50.1380000  30.5250000  21.2720000  49.2550000  30.9340000
  21.0240000  47.9210000  39.9350000  19.1480000  47.0470000  39.9000000
  22.8030000  48.7780000  39.5850000  25.2580000  50.8340000  32.8880000
  24.2740000  50.6140000  31.1240000  22.8850000  50.2630000  29.1030000
  21.1450000  47.8560000  40.8750000  25.2700000  51.2000000  30.2610000
  23.8640000  50.8140000  28.3410000  22.0860000  49.9570000  28.6910000
  25.0720000  51.2970000  28.9260000  26.0800000  51.5240000  30.6360000
  23.7430000  50.8790000  27.4010000  25.7400000  51.6890000  28.3760000
  22.6650000  59.7490000  49.0020000  21.6730000  59.1780000  49.8340000
  23.8960000  60.2370000  49.6060000  22.4860000  59.8510000  47.6140000
  21.8520000  59.0770000  51.2090000  20.8680000  58.8570000  49.4440000
  24.0530000  60.1180000  50.9980000  24.8770000  60.7950000  48.7750000
  23.4670000  60.4090000  46.7830000  21.6720000  59.5340000  47.2420000
  20.8560000  58.4910000  52.0720000  23.0770000  59.5530000  51.8070000
  24.8540000  60.4360000  51.3980000  25.6910000  61.1120000  49.1480000
  24.6980000  60.8970000  47.3880000  23.3110000  60.5280000  45.3920000
  21.0540000  58.3940000  53.4070000  20.0460000  58.1670000  51.6960000
  23.2400000  59.4270000  53.2300000  25.6900000  61.4680000  46.5560000
  24.2870000  61.0930000  44.5820000  22.5090000  60.2100000  44.9910000
  22.2610000  58.8760000  53.9920000  20.3860000  58.0020000  53.9570000
  24.0400000  59.7340000  53.6420000  26.4950000  61.7890000  46.9450000
  25.5110000  61.5690000  45.1810000  24.1230000  61.2190000  43.1600000
  22.3830000  58.8110000  54.9320000  26.5070000  62.1550000  44.3180000
  25.1020000  61.7700000  42.3980000  23.3230000  60.9120000  42.7480000
  26.3090000  62.2520000  42.9830000  27.3170000  62.4790000  44.6930000
  24.9810000  61.8350000  41.4570000  26.9780000  62.6440000  42.4330000
  21.1620000  49.9190000   6.8310000  20.1700000  49.3470000   7.6630000
  22.3920000  50.4070000   7.4360000  20.9820000  50.0210000   5.4440000
  20.3480000  49.2460000   9.0380000  19.3640000  49.0260000   7.2740000
  22.5490000  50.2870000   8.8270000  23.3730000  50.9640000   6.6050000
  21.9630000  50.5780000   4.6130000  20.1690000  49.7040000   5.0710000
  19.3520000  48.6600000   9.9010000  21.5730000  49.7220000   9.6370000
  23.3500000  50.6050000   9.2280000  24.1870000  51.2810000   6.9770000
  23.1940000  51.0660000   5.2170000  21.8070000  50.6980000   3.2210000
  19.5500000  48.5630000  11.2370000  18.5420000  48.3360000   9.5260000
  21.7370000  49.5970000  11.0590000  24.1860000  51.6380000   4.3850000
  22.7830000  51.2630000   2.4120000  21.0050000  50.3800000   2.8210000
  20.7580000  49.0460000  11.8210000  18.8820000  48.1710000  11.7860000
  22.5360000  49.9030000  11.4710000  24.9910000  51.9590000   4.7750000
  24.0070000  51.7390000   3.0110000  22.6190000  51.3880000   0.9890000
  20.8790000  48.9810000  12.7620000  25.0030000  52.3250000   2.1470000
  23.5980000  51.9390000   0.2270000  21.8190000  51.0820000   0.5770000
  24.8050000  52.4220000   0.8120000  25.8130000  52.6490000   2.5230000
  23.4770000  52.0040000  -0.7130000  25.4740000  52.8140000   0.2620000
  18.2490000  13.6780000  49.0020000  17.2570000  13.1060000  49.8340000
  19.4790000  14.1660000  49.6060000  18.0690000  13.7800000  47.6140000
  17.4350000  13.0050000  51.2090000  16.4510000  12.7850000  49.4440000
  19.6360000  14.0460000  50.9980000  20.4610000  14.7230000  48.7750000
  19.0500000  14.3370000  46.7830000  17.2560000  13.4630000  47.2420000
  16.4390000  12.4190000  52.0720000  18.6600000  13.4810000  51.8070000
  20.4370000  14.3640000  51.3980000  21.2740000  15.0400000  49.1480000
  20.2810000  14.8250000  47.3880000  18.8940000  14.4570000  45.3920000
  16.6370000  12.3220000  53.4070000  15.6300000  12.0950000  51.6960000
  18.8240000  13.3560000  53.2300000  21.2730000  15.3970000  46.5560000
  19.8700000  15.0220000  44.5820000  18.0930000  14.1390000  44.9910000
  17.8450000  12.8050000  53.9920000  15.9690000  11.9300000  53.9570000
  19.6240000  13.6620000  53.6420000  22.0780000  15.7180000  46.9450000
  21.0940000  15.4980000  45.1810000  19.7060000  15.1470000  43.1600000
  17.9660000  12.7400000  54.9320000  22.0900000  16.0840000  44.3180000
  20.6850000  15.6980000  42.3980000  18.9060000  14.8410000  42.7480000
  21.8920000  16.1810000  42.9830000  22.9000000  16.4080000  44.6930000
  20.5640000  15.7630000  41.4570000  22.5610000  16.5720000  42.4330000
  18.7500000  16.9550000  63.0580000  17.7580000  16.3830000  63.8910000
  19.9810000  17.4430000  63.6630000  18.5700000  17.0570000  61.6710000
  17.9370000  16.2820000  65.2650000  16.9530000  16.0620000  63.5010000
  20.1370000  17.3230000  65.0550000  20.9620000  18.0000000  62.8320000
  19.5520000  17.6140000  60.8400000  17.7570000  16.7390000  61.2990000
  16.9410000  15.6960000  66.1280000  19.1610000  16.7580000  65.8640000
  20.9380000  17.6410000  65.4550000  21.7750000  18.3170000  63.2050000
  20.7820000  18.1020000  61.4450000  19.3950000  17.7330000  59.4490000
  17.1390000  15.5990000  67.4640000  16.1310000  15.3720000  65.7530000
  19.3250000  16.6330000  67.2870000  21.7740000  18.6730000  60.6130000
  20.3710000  18.2990000  58.6390000  18.5940000  17.4160000  59.0480000
  18.3460000  16.0820000  68.0490000  16.4700000  15.2070000  68.0130000
  20.1250000  16.9390000  67.6990000  22.5800000  18.9950000  61.0020000
  21.5960000  18.7750000  59.2380000  20.2070000  18.4240000  57.2160000
  18.4670000  16.0170000  68.9890000  22.5920000  19.3600000  58.3750000
  21.1860000  18.9750000  56.4550000  19.4070000  18.1170000  56.8050000
  22.3940000  19.4580000  57.0390000  23.4010000  19.6840000  58.7500000
  21.0650000  19.0400000  55.5140000  23.0620000  19.8490000  56.4900000
  17.7470000  10.4010000  34.9450000  16.7550000   9.8290000  35.7770000
  18.9780000  10.8890000  35.5490000  17.5680000  10.5030000  33.5570000
  16.9340000   9.7280000  37.1520000  15.9500000   9.5080000  35.3880000
  19.1350000  10.7700000  36.9410000  19.9590000  11.4460000  34.7190000
  18.5490000  11.0600000  32.7270000  16.7540000  10.1860000  33.1850000
  15.9380000   9.1420000  38.0150000  18.1590000  10.2040000  37.7510000
  19.9360000  11.0870000  37.3420000  20.7730000  11.7630000  35.0910000
  19.7800000  11.5480000  33.3310000  18.3930000  11.1800000  31.3350000
  16.1360000   9.0450000  39.3500000  15.1280000   8.8180000  37.6400000
  18.3220000  10.0790000  39.1730000  20.7720000  12.1200000  32.4990000
  19.3690000  11.7450000  30.5250000  17.5910000  10.8620000  30.9340000
  17.3430000   9.5280000  39.9350000  15.4680000   8.6540000  39.9000000
  19.1220000  10.3850000  39.5850000  21.5770000  12.4410000  32.8880000
  20.5930000  12.2210000  31.1240000  19.2050000  11.8700000  29.1030000
  17.4650000   9.4630000  40.8750000  21.5890000  12.8070000  30.2610000
  20.1840000  12.4210000  28.3410000  18.4050000  11.5640000  28.6910000
  21.3910000  12.9040000  28.9260000  22.3990000  13.1310000  30.6360000
  20.0630000  12.4860000  27.4010000  22.0600000  13.2960000  28.3760000
  19.2790000   8.2710000  19.2740000  20.2710000   8.8430000  18.4420000
  18.0480000   7.7830000  18.6700000  19.4580000   8.1690000  20.6620000
  20.0920000   8.9440000  17.0670000  21.0760000   9.1640000  18.8320000
  17.8910000   7.9030000  17.2780000  17.0670000   7.2260000  19.5010000
  18.4770000   7.6120000  21.4920000  20.2720000   8.4870000  21.0340000
  21.0880000   9.5300000  16.2040000  18.8670000   8.4680000  16.4690000
  17.0900000   7.5850000  16.8780000  16.2530000   6.9090000  19.1280000
  17.2460000   7.1240000  20.8880000  18.6330000   7.4930000  22.8840000
  20.8900000   9.6270000  14.8690000  21.8980000   9.8540000  16.5800000
  18.7040000   8.5930000  15.0460000  16.2540000   6.5530000  21.7200000
  17.6570000   6.9270000  23.6940000  19.4350000   7.8100000  23.2850000
  19.6820000   9.1440000  14.2840000  21.5580000  10.0190000  14.3190000
  17.9040000   8.2870000  14.6340000  15.4490000   6.2310000  21.3310000
  16.4330000   6.4520000  23.0950000  17.8210000   6.8020000  25.1160000
  19.5610000   9.2090000  13.3440000  15.4370000   5.8660000  23.9580000
  16.8420000   6.2510000  25.8780000  18.6210000   7.1090000  25.5280000
  15.6350000   5.7680000  25.2930000  14.6270000   5.5420000  23.5830000
  16.9630000   6.1860000  26.8190000  14.9660000   5.3770000  25.8430000
  18.7770000   4.9950000   5.2170000  19.7690000   5.5660000   4.3850000
  17.5470000   4.5070000   4.6130000  18.9570000   4.8930000   6.6050000
  19.5910000   5.6670000   3.0110000  20.5750000   5.8870000   4.7750000
  17.3900000   4.6260000   3.2210000  16.5650000   3.9490000   5.4440000
  17.9760000   4.3350000   7.4360000  19.7700000   5.2100000   6.9770000
  20.5870000   6.2530000   2.1470000  18.3660000   5.1910000   2.4120000
  16.5890000   4.3080000   2.8210000  15.7520000   3.6320000   5.0710000
  16.7450000   3.8470000   6.8310000  18.1320000   4.2160000   8.8270000
  20.3890000   6.3500000   0.8120000  21.3960000   6.5770000   2.5230000
  18.2020000   5.3170000   0.9890000  15.7530000   3.2760000   7.6630000
  17.1560000   3.6510000   9.6370000  18.9330000   4.5330000   9.2280000
  19.1810000   5.8680000   0.2270000  21.0570000   6.7420000   0.2620000
  17.4020000   5.0100000   0.5770000  14.9480000   2.9550000   7.2740000
  15.9320000   3.1750000   9.0380000  17.3200000   3.5250000  11.0590000
  19.0600000   5.9330000  -0.7130000  14.9360000   2.5890000   9.9010000
  16.3410000   2.9740000  11.8210000  18.1200000   3.8320000  11.4710000
  15.1340000   2.4920000  11.2370000  14.1260000   2.2650000   9.5260000
  16.4620000   2.9090000  12.7620000  14.4650000   2.1000000  11.7860000
  19.5140000  12.6730000   5.2170000  20.5050000  13.2450000   4.3850000
  18.2830000  12.1850000   4.6130000  19.6930000  12.5710000   6.6050000
  20.3270000  13.3460000   3.0110000  21.3110000  13.5660000   4.7750000
  18.1260000  12.3050000   3.2210000  17.3020000  11.6280000   5.4440000
  18.7120000  12.0140000   7.4360000  20.5060000  12.8880000   6.9770000
  21.3230000  13.9320000   2.1470000  19.1020000  12.8700000   2.4120000
  17.3250000  11.9870000   2.8210000  16.4880000  11.3110000   5.0710000
  17.4810000  11.5260000   6.8310000  18.8680000  11.8940000   8.8270000
  21.1250000  14.0290000   0.8120000  22.1330000  14.2560000   2.5230000
  18.9380000  12.9950000   0.9890000  16.4890000  10.9540000   7.6630000
  17.8920000  11.3290000   9.6370000  19.6700000  12.2120000   9.2280000
  19.9170000  13.5460000   0.2270000  21.7930000  14.4210000   0.2620000
  18.1390000  12.6890000   0.5770000  15.6840000  10.6330000   7.2740000
  16.6680000  10.8530000   9.0380000  18.0560000  11.2040000  11.0590000
  19.7960000  13.6110000  -0.7130000  15.6720000  10.2670000   9.9010000
  17.0770000  10.6530000  11.8210000  18.8560000  11.5100000  11.4710000
  15.8700000  10.1700000  11.2370000  14.8620000   9.9430000   9.5260000
  17.1980000  10.5880000  12.7620000  15.2010000   9.7780000  11.7860000
  18.9850000  21.3560000  49.0020000  17.9930000  20.7850000  49.8340000
  20.2160000  21.8440000  49.6060000  18.8050000  21.4580000  47.6140000
  18.1710000  20.6840000  51.2090000  17.1870000  20.4640000  49.4440000
  20.3720000  21.7250000  50.9980000  21.1970000  22.4020000  48.7750000
  19.7860000  22.0160000  46.7830000  17.9920000  21.1410000  47.2420000
  17.1750000  20.0980000  52.0720000  19.3960000  21.1600000  51.8070000
  21.1730000  22.0430000  51.3980000  22.0100000  22.7190000  49.1480000
  21.0170000  22.5040000  47.3880000  19.6300000  22.1350000  45.3920000
  17.3730000  20.0010000  53.4070000  16.3660000  19.7740000  51.6960000
  19.5600000  21.0340000  53.2300000  22.0090000  23.0750000  46.5560000
  20.6060000  22.7000000  44.5820000  18.8290000  21.8180000  44.9910000
  18.5810000  20.4830000  53.9920000  16.7050000  19.6090000  53.9570000
  20.3600000  21.3410000  53.6420000  22.8150000  23.3960000  46.9450000
  21.8310000  23.1760000  45.1810000  20.4420000  22.8260000  43.1600000
  18.7020000  20.4180000  54.9320000  22.8270000  23.7620000  44.3180000
  21.4210000  23.3770000  42.3980000  19.6420000  22.5190000  42.7480000
  22.6290000  23.8590000  42.9830000  23.6360000  24.0860000  44.6930000
  21.3000000  23.4420000  41.4570000  23.2970000  24.2510000  42.4330000
  20.5160000  19.2270000  33.3310000  21.5080000  19.7980000  32.4990000
  19.2850000  18.7390000  32.7270000  20.6950000  19.1250000  34.7190000
  21.3290000  19.8990000  31.1240000  22.3130000  20.1200000  32.8880000
  19.1290000  18.8580000  31.3350000  18.3040000  18.1820000  33.5570000
  19.7140000  18.5680000  35.5490000  21.5090000  19.4420000  35.0910000
  22.3250000  20.4850000  30.2610000  20.1050000  19.4240000  30.5250000
  18.3270000  18.5410000  30.9340000  17.4910000  17.8640000  33.1850000
  18.4830000  18.0800000  34.9450000  19.8710000  18.4480000  36.9410000
  22.1270000  20.5830000  28.9260000  23.1350000  20.8090000  30.6360000
  19.9410000  19.5490000  29.1030000  17.4920000  17.5080000  35.7770000
  18.8950000  17.8830000  37.7510000  20.6720000  18.7660000  37.3420000
  20.9200000  20.1000000  28.3410000  22.7960000  20.9740000  28.3760000
  19.1410000  19.2420000  28.6910000  16.6860000  17.1870000  35.3880000
  17.6700000  17.4070000  37.1520000  19.0590000  17.7580000  39.1730000
  20.7990000  20.1650000  27.4010000  16.6740000  16.8210000  38.0150000
  18.0800000  17.2060000  39.9350000  19.8580000  18.0640000  39.5850000
  16.8720000  16.7240000  39.3500000  15.8640000  16.4970000  37.6400000
  18.2010000  17.1420000  40.8750000  16.2040000  16.3320000  39.9000000
  19.2200000  25.7580000  34.9450000  18.2280000  25.1870000  35.7770000
  20.4500000  26.2460000  35.5490000  19.0400000  25.8600000  33.5570000
  18.4060000  25.0860000  37.1520000  17.4220000  24.8650000  35.3880000
  20.6070000  26.1270000  36.9410000  21.4320000  26.8030000  34.7190000
  20.0210000  26.4170000  32.7270000  18.2270000  25.5430000  33.1850000
  17.4100000  24.5000000  38.0150000  19.6310000  25.5610000  37.7510000
  21.4080000  26.4440000  37.3420000  22.2450000  27.1210000  35.0910000
  21.2520000  26.9050000  33.3310000  19.8650000  26.5370000  31.3350000
  17.6080000  24.4020000  39.3500000  16.6010000  24.1760000  37.6400000
  19.7950000  25.4360000  39.1730000  22.2440000  27.4770000  32.4990000
  20.8410000  27.1020000  30.5250000  19.0640000  26.2190000  30.9340000
  18.8160000  24.8850000  39.9350000  16.9400000  24.0110000  39.9000000
  20.5950000  25.7430000  39.5850000  23.0490000  27.7980000  32.8880000
  22.0650000  27.5780000  31.1240000  20.6770000  27.2270000  29.1030000
  18.9370000  24.8200000  40.8750000  23.0610000  28.1640000  30.2610000
  21.6560000  27.7790000  28.3410000  19.8770000  26.9210000  28.6910000
  22.8630000  28.2610000  28.9260000  23.8710000  28.4880000  30.6360000
  21.5350000  27.8430000  27.4010000  23.5320000  28.6530000  28.3760000
  19.7210000  29.0350000  49.0020000  18.7290000  28.4630000  49.8340000
  20.9520000  29.5230000  49.6060000  19.5410000  29.1370000  47.6140000
  18.9080000  28.3620000  51.2090000  17.9240000  28.1420000  49.4440000
  21.1080000  29.4040000  50.9980000  21.9330000  30.0800000  48.7750000
  20.5230000  29.6940000  46.7830000  18.7280000  28.8200000  47.2420000
  17.9120000  27.7770000  52.0720000  20.1320000  28.8380000  51.8070000
  21.9090000  29.7210000  51.3980000  22.7460000  30.3970000  49.1480000
  21.7530000  30.1820000  47.3880000  20.3660000  29.8140000  45.3920000
  18.1100000  27.6790000  53.4070000  17.1020000  27.4530000  51.6960000
  20.2960000  28.7130000  53.2300000  22.7450000  30.7540000  46.5560000
  21.3420000  30.3790000  44.5820000  19.5650000  29.4960000  44.9910000
  19.3170000  28.1620000  53.9920000  17.4410000  27.2880000  53.9570000
  21.0960000  29.0190000  53.6420000  23.5510000  31.0750000  46.9450000
  22.5670000  30.8550000  45.1810000  21.1780000  30.5040000  43.1600000
  19.4380000  28.0970000  54.9320000  23.5630000  31.4410000  44.3180000
  22.1570000  31.0550000  42.3980000  20.3780000  30.1980000  42.7480000
  23.3650000  31.5380000  42.9830000  24.3720000  31.7650000  44.6930000
  22.0360000  31.1200000  41.4570000  24.0330000  31.9300000  42.4330000
  18.9530000  26.8830000   6.8310000  17.9610000  26.3120000   7.6630000
  20.1840000  27.3710000   7.4360000  18.7740000  26.9850000   5.4440000
  18.1400000  26.2100000   9.0380000  17.1560000  25.9900000   7.2740000
  20.3400000  27.2520000   8.8270000  21.1650000  27.9280000   6.6050000
  19.7550000  27.5420000   4.6130000  17.9600000  26.6680000   5.0710000
  17.1440000  25.6250000   9.9010000  19.3640000  26.6860000   9.6370000
  21.1420000  27.5690000   9.2280000  21.9790000  28.2460000   6.9770000
  20.9860000  28.0300000   5.2170000  19.5980000  27.6620000   3.2210000
  17.3420000  25.5270000  11.2370000  16.3340000  25.3010000   9.5260000
  19.5280000  26.5610000  11.0590000  21.9780000  28.6020000   4.3850000
  20.5740000  28.2270000   2.4120000  18.7970000  27.3440000   2.8210000
  18.5490000  26.0100000  11.8210000  16.6730000  25.1360000  11.7860000
  20.3280000  26.8680000  11.4710000  22.7830000  28.9230000   4.7750000
  21.7990000  28.7030000   3.0110000  20.4110000  28.3520000   0.9890000
  18.6700000  25.9450000  12.7620000  22.7950000  29.2890000   2.1470000
  21.3900000  28.9030000   0.2270000  19.6110000  28.0460000   0.5770000
  22.5970000  29.3860000   0.8120000  23.6050000  29.6130000   2.5230000
  21.2680000  28.9680000  -0.7130000  23.2650000  29.7780000   0.2620000
  19.9560000  33.4370000  34.9450000  18.9640000  32.8650000  35.7770000
  21.1860000  33.9250000  35.5490000  19.7760000  33.5390000  33.5570000
  19.1420000  32.7640000  37.1520000  18.1580000  32.5440000  35.3880000
  21.3430000  33.8050000  36.9410000  22.1680000  34.4820000  34.7190000
  20.7570000  34.0960000  32.7270000  18.9630000  33.2220000  33.1850000
  18.1460000  32.1780000  38.0150000  20.3670000  33.2400000  37.7510000
  22.1440000  34.1230000  37.3420000  22.9810000  34.7990000  35.0910000
  21.9880000  34.5840000  33.3310000  20.6010000  34.2150000  31.3350000
  18.3440000  32.0810000  39.3500000  17.3370000  31.8540000  37.6400000
  20.5310000  33.1150000  39.1730000  22.9800000  35.1560000  32.4990000
  21.5770000  34.7810000  30.5250000  19.8000000  33.8980000  30.9340000
  19.5520000  32.5640000  39.9350000  17.6760000  31.6890000  39.9000000
  21.3310000  33.4210000  39.5850000  23.7850000  35.4770000  32.8880000
  22.8020000  35.2570000  31.1240000  21.4130000  34.9060000  29.1030000
  19.6730000  32.4990000  40.8750000  23.7980000  35.8430000  30.2610000
  22.3920000  35.4570000  28.3410000  20.6130000  34.6000000  28.6910000
  23.6000000  35.9400000  28.9260000  24.6070000  36.1670000  30.6360000
  22.2710000  35.5220000  27.4010000  24.2680000  36.3310000  28.3760000
  20.4570000  36.7140000  49.0020000  19.4650000  36.1420000  49.8340000
  21.6880000  37.2020000  49.6060000  20.2780000  36.8160000  47.6140000
  19.6440000  36.0410000  51.2090000  18.6600000  35.8210000  49.4440000
  21.8440000  37.0820000  50.9980000  22.6690000  37.7590000  48.7750000
  21.2590000  37.3730000  46.7830000  19.4640000  36.4980000  47.2420000
  18.6480000  35.4550000  52.0720000  20.8680000  36.5170000  51.8070000
  22.6460000  37.4000000  51.3980000  23.4820000  38.0760000  49.1480000
  22.4900000  37.8610000  47.3880000  21.1020000  37.4920000  45.3920000
  18.8460000  35.3580000  53.4070000  17.8380000  35.1310000  51.6960000
  21.0320000  36.3920000  53.2300000  23.4810000  38.4320000  46.5560000
  22.0780000  38.0580000  44.5820000  20.3010000  37.1750000  44.9910000
  20.0530000  35.8410000  53.9920000  18.1770000  34.9660000  53.9570000
  21.8320000  36.6980000  53.6420000  24.2870000  38.7540000  46.9450000
  23.3030000  38.5340000  45.1810000  21.9140000  38.1830000  43.1600000
  20.1740000  35.7760000  54.9320000  24.2990000  39.1190000  44.3180000
  22.8930000  38.7340000  42.3980000  21.1150000  37.8760000  42.7480000
  24.1010000  39.2170000  42.9830000  25.1090000  39.4430000  44.6930000
  22.7720000  38.7990000  41.4570000  24.7690000  39.6080000  42.4330000
  21.1930000  44.3920000  49.0020000  20.2010000  43.8210000  49.8340000
  22.4240000  44.8800000  49.6060000  21.0140000  44.4940000  47.6140000
  20.3800000  43.7200000  51.2090000  19.3960000  43.5000000  49.4440000
  22.5800000  44.7610000  50.9980000  23.4050000  45.4370000  48.7750000
  21.9950000  45.0510000  46.7830000  20.2000000  44.1770000  47.2420000
  19.3840000  43.1340000  52.0720000  21.6040000  44.1950000  51.8070000
  23.3820000  45.0780000  51.3980000  24.2190000  45.7550000  49.1480000
  23.2260000  45.5390000  47.3880000  21.8380000  45.1710000  45.3920000
  19.5820000  43.0360000  53.4070000  18.5740000  42.8100000  51.6960000
  21.7680000  44.0700000  53.2300000  24.2180000  46.1110000  46.5560000
  22.8140000  45.7360000  44.5820000  21.0370000  44.8530000  44.9910000
  20.7890000  43.5190000  53.9920000  18.9130000  42.6450000  53.9570000
  22.5680000  44.3770000  53.6420000  25.0230000  46.4320000  46.9450000
  24.0390000  46.2120000  45.1810000  22.6510000  45.8610000  43.1600000
  20.9100000  43.4540000  54.9320000  25.0350000  46.7980000  44.3180000
  23.6290000  46.4130000  42.3980000  21.8510000  45.5550000  42.7480000
  24.8370000  46.8950000  42.9830000  25.8450000  47.1220000  44.6930000
  23.5080000  46.4770000  41.4570000  25.5050000  47.2870000  42.4330000
  21.6940000  47.6690000  63.0580000  20.7020000  47.0970000  63.8910000
  22.9250000  48.1570000  63.6630000  21.5150000  47.7710000  61.6710000
  20.8810000  46.9960000  65.2650000  19.8970000  46.7760000  63.5010000
  23.0820000  48.0380000  65.0550000  23.9060000  48.7140000  62.8320000
  22.4960000  48.3280000  60.8400000  20.7010000  47.4540000  61.2990000
  19.8850000  46.4110000  66.1280000  22.1060000  47.4720000  65.8640000
  23.8830000  48.3550000  65.4550000  24.7200000  49.0320000  63.2050000
  23.7270000  48.8160000  61.4450000  22.3400000  48.4480000  59.4490000
  20.0830000  46.3130000  67.4640000  19.0750000  46.0870000  65.7530000
  22.2690000  47.3470000  67.2870000  24.7190000  49.3880000  60.6130000
  23.3160000  49.0130000  58.6390000  21.5380000  48.1300000  59.0480000
  21.2900000  46.7960000  68.0490000  19.4150000  45.9220000  68.0130000
  23.0690000  47.6530000  67.6990000  25.5240000  49.7090000  61.0020000
  24.5400000  49.4890000  59.2380000  23.1520000  49.1380000  57.2160000
  21.4120000  46.7310000  68.9890000  25.5360000  50.0750000  58.3750000
  24.1310000  49.6890000  56.4550000  22.3520000  48.8320000  56.8050000
  25.3380000  50.1720000  57.0390000  26.3460000  50.3990000  58.7500000
  24.0100000  49.7540000  55.5140000  26.0070000  50.5640000  56.4900000
  20.6920000  41.1150000  34.9450000  19.7000000  40.5440000  35.7770000
  21.9230000  41.6030000  35.5490000  20.5120000  41.2170000  33.5570000
  19.8790000  40.4430000  37.1520000  18.8950000  40.2230000  35.3880000
  22.0790000  41.4840000  36.9410000  22.9040000  42.1610000  34.7190000
  21.4940000  41.7750000  32.7270000  19.6990000  40.9000000  33.1850000
  18.8830000  39.8570000  38.0150000  21.1030000  40.9190000  37.7510000
  22.8800000  41.8020000  37.3420000  23.7170000  42.4780000  35.0910000
  22.7240000  42.2630000  33.3310000  21.3370000  41.8940000  31.3350000
  19.0810000  39.7600000  39.3500000  18.0730000  39.5330000  37.6400000
  21.2670000  40.7930000  39.1730000  23.7160000  42.8340000  32.4990000
  22.3130000  42.4590000  30.5250000  20.5360000  41.5760000  30.9340000
  20.2880000  40.2420000  39.9350000  18.4120000  39.3680000  39.9000000
  22.0670000  41.1000000  39.5850000  24.5220000  43.1550000  32.8880000
  23.5380000  42.9350000  31.1240000  22.1490000  42.5850000  29.1030000
  20.4090000  40.1770000  40.8750000  24.5340000  43.5210000  30.2610000
  23.1280000  43.1360000  28.3410000  21.3490000  42.2780000  28.6910000
  24.3360000  43.6180000  28.9260000  25.3430000  43.8450000  30.6360000
  23.0070000  43.2010000  27.4010000  25.0040000  44.0100000  28.3760000
  19.6890000  34.5620000   6.8310000  18.6970000  33.9900000   7.6630000
  20.9200000  35.0500000   7.4360000  19.5100000  34.6640000   5.4440000
  18.8760000  33.8890000   9.0380000  17.8920000  33.6690000   7.2740000
  21.0770000  34.9300000   8.8270000  21.9010000  35.6070000   6.6050000
  20.4910000  35.2210000   4.6130000  18.6960000  34.3460000   5.0710000
  17.8800000  33.3030000   9.9010000  20.1010000  34.3650000   9.6370000
  21.8780000  35.2480000   9.2280000  22.7150000  35.9240000   6.9770000
  21.7220000  35.7090000   5.2170000  20.3350000  35.3400000   3.2210000
  18.0780000  33.2060000  11.2370000  17.0700000  32.9790000   9.5260000
  20.2640000  34.2400000  11.0590000  22.7140000  36.2810000   4.3850000
  21.3110000  35.9060000   2.4120000  19.5330000  35.0230000   2.8210000
  19.2850000  33.6890000  11.8210000  17.4100000  32.8140000  11.7860000
  21.0640000  34.5460000  11.4710000  23.5190000  36.6020000   4.7750000
  22.5350000  36.3820000   3.0110000  21.1470000  36.0310000   0.9890000
  19.4070000  33.6240000  12.7620000  23.5310000  36.9670000   2.1470000
  22.1260000  36.5820000   0.2270000  20.3470000  35.7250000   0.5770000
  23.3330000  37.0650000   0.8120000  24.3410000  37.2910000   2.5230000
  22.0050000  36.6470000  -0.7130000  24.0020000  37.4560000   0.2620000
  23.9620000  53.2180000  47.3880000  24.9540000  53.7900000  46.5560000
  22.7310000  52.7300000  46.7830000  24.1410000  53.1160000  48.7750000
  24.7750000  53.8910000  45.1810000  25.7590000  54.1110000  46.9450000
  22.5750000  52.8490000  45.3920000  21.7500000  52.1730000  47.6140000
  23.1600000  52.5590000  49.6060000  24.9550000  53.4330000  49.1480000
  25.7710000  54.4770000  44.3180000  23.5500000  53.4150000  44.5820000
  21.7730000  52.5320000  44.9910000  20.9360000  51.8560000  47.2420000
  21.9290000  52.0710000  49.0020000  23.3160000  52.4390000  50.9980000
  25.5730000  54.5740000  42.9830000  26.5810000  54.8010000  44.6930000
  23.3870000  53.5400000  43.1600000  20.9370000  51.4990000  49.8340000
  22.3400000  51.8740000  51.8070000  24.1180000  52.7570000  51.3980000
  24.3660000  54.0910000  42.3980000  26.2410000  54.9650000  42.4330000
  22.5870000  53.2340000  42.7480000  20.1320000  51.1780000  49.4440000
  21.1160000  51.3980000  51.2090000  22.5040000  51.7490000  53.2300000
  24.2440000  54.1560000  41.4570000  20.1200000  50.8120000  52.0720000
  21.5250000  51.1980000  53.9920000  23.3040000  52.0550000  53.6420000
  20.3180000  50.7150000  53.4070000  19.3100000  50.4880000  51.6960000
  21.6460000  51.1330000  54.9320000  19.6490000  50.3230000  53.9570000
  20.9270000  45.5170000  20.8880000  19.9350000  44.9460000  21.7200000
  22.1570000  46.0050000  21.4920000  20.7470000  45.6190000  19.5010000
  20.1130000  44.8440000  23.0950000  19.1290000  44.6240000  21.3310000
  22.3140000  45.8860000  22.8840000  23.1390000  46.5620000  20.6620000
  21.7280000  46.1760000  18.6700000  19.9340000  45.3020000  19.1280000
  19.1170000  44.2590000  23.9580000  21.3380000  45.3200000  23.6940000
  23.1150000  46.2030000  23.2850000  23.9520000  46.8800000  21.0340000
  22.9590000  46.6640000  19.2740000  21.5720000  46.2960000  17.2780000
  19.3150000  44.1610000  25.2930000  18.3080000  43.9350000  23.5830000
  21.5020000  45.1950000  25.1160000  23.9510000  47.2360000  18.4420000
  22.5480000  46.8610000  16.4690000  20.7710000  45.9780000  16.8780000
  20.5230000  44.6440000  25.8780000  18.6470000  43.7700000  25.8430000
  22.3020000  45.5020000  25.5280000  24.7560000  47.5570000  18.8320000
  23.7720000  47.3370000  17.0670000  22.3840000  46.9860000  15.0460000
  20.6440000  44.5790000  26.8190000  24.7680000  47.9230000  16.2040000
  23.3630000  47.5370000  14.2840000  21.5840000  46.6800000  14.6340000
  24.5710000  48.0200000  14.8690000  25.5780000  48.2470000  16.5800000
  23.2420000  47.6020000  13.3440000  25.2390000  48.4120000  14.3190000
  24.4630000  56.4950000  61.4450000  25.4550000  57.0660000  60.6130000
  23.2320000  56.0070000  60.8400000  24.6420000  56.3930000  62.8320000
  25.2760000  57.1680000  59.2380000  26.2600000  57.3880000  61.0020000
  23.0760000  56.1260000  59.4490000  22.2510000  55.4500000  61.6710000
  23.6610000  55.8360000  63.6630000  25.4560000  56.7100000  63.2050000
  26.2720000  57.7530000  58.3750000  24.0520000  56.6920000  58.6390000
  22.2740000  55.8090000  59.0480000  21.4380000  55.1320000  61.2990000
  22.4300000  55.3480000  63.0580000  23.8180000  55.7160000  65.0550000
  26.0740000  57.8510000  57.0390000  27.0820000  58.0770000  58.7500000
  23.8880000  56.8170000  57.2160000  21.4390000  54.7760000  63.8910000
  22.8420000  55.1510000  65.8640000  24.6190000  56.0340000  65.4550000
  24.8670000  57.3680000  56.4550000  26.7430000  58.2420000  56.4900000
  23.0880000  56.5100000  56.8050000  20.6330000  54.4550000  63.5010000
  21.6170000  54.6750000  65.2650000  23.0060000  55.0260000  67.2870000
  24.7460000  57.4330000  55.5140000  20.6210000  54.0890000  66.1280000
  22.0270000  54.4750000  68.0490000  23.8050000  55.3320000  67.6990000
  20.8190000  53.9920000  67.4640000  19.8110000  53.7650000  65.7530000
  22.1480000  54.4100000  68.9890000  20.1510000  53.6000000  68.0130000
  21.6630000  53.1960000  20.8880000  20.6710000  52.6240000  21.7200000
  22.8940000  53.6840000  21.4920000  21.4830000  53.2980000  19.5010000
  20.8500000  52.5230000  23.0950000  19.8660000  52.3030000  21.3310000
  23.0500000  53.5640000  22.8840000  23.8750000  54.2410000  20.6620000
  22.4650000  53.8550000  18.6700000  20.6700000  52.9810000  19.1280000
  19.8540000  51.9370000  23.9580000  22.0740000  52.9990000  23.6940000
  23.8510000  53.8820000  23.2850000  24.6880000  54.5580000  21.0340000
  23.6950000  54.3430000  19.2740000  22.3080000  53.9740000  17.2780000
  20.0510000  51.8400000  25.2930000  19.0440000  51.6130000  23.5830000
  22.2380000  52.8740000  25.1160000  24.6870000  54.9150000  18.4420000
  23.2840000  54.5400000  16.4690000  21.5070000  53.6570000  16.8780000
  21.2590000  52.3230000  25.8780000  19.3830000  51.4480000  25.8430000
  23.0380000  53.1800000  25.5280000  25.4930000  55.2360000  18.8320000
  24.5090000  55.0160000  17.0670000  23.1200000  54.6650000  15.0460000
  21.3800000  52.2580000  26.8190000  25.5050000  55.6010000  16.2040000
  24.0990000  55.2160000  14.2840000  22.3200000  54.3590000  14.6340000
  25.3070000  55.6990000  14.8690000  26.3140000  55.9250000  16.5800000
  23.9780000  55.2810000  13.3440000  25.9750000  56.0900000  14.3190000
  22.1640000  56.4730000  34.9450000  21.1720000  55.9010000  35.7770000
  23.3950000  56.9610000  35.5490000  21.9850000  56.5750000  33.5570000
  21.3510000  55.8000000  37.1520000  20.3670000  55.5800000  35.3880000
  23.5510000  56.8410000  36.9410000  24.3760000  57.5180000  34.7190000
  22.9660000  57.1320000  32.7270000  21.1710000  56.2570000  33.1850000
  20.3550000  55.2140000  38.0150000  22.5750000  56.2760000  37.7510000
  24.3530000  57.1590000  37.3420000  25.1900000  57.8350000  35.0910000
  24.1970000  57.6200000  33.3310000  22.8090000  57.2510000  31.3350000
  20.5530000  55.1170000  39.3500000  19.5450000  54.8900000  37.6400000
  22.7390000  56.1510000  39.1730000  25.1890000  58.1910000  32.4990000
  23.7850000  57.8170000  30.5250000  22.0080000  56.9340000  30.9340000
  21.7600000  55.5990000  39.9350000  19.8840000  54.7250000  39.9000000
  23.5390000  56.4570000  39.5850000  25.9940000  58.5130000  32.8880000
  25.0100000  58.2920000  31.1240000  23.6210000  57.9420000  29.1030000
  21.8810000  55.5350000  40.8750000  26.0060000  58.8780000  30.2610000
  24.6000000  58.4930000  28.3410000  22.8220000  57.6350000  28.6910000
  25.8080000  58.9760000  28.9260000  26.8160000  59.2020000  30.6360000
  24.4790000  58.5580000  27.4010000  26.4760000  59.3670000  28.3760000
  23.1670000  63.0260000  63.0580000  22.1750000  62.4550000  63.8910000
  24.3970000  63.5140000  63.6630000  22.9870000  63.1280000  61.6710000
  22.3530000  62.3540000  65.2650000  21.3690000  62.1340000  63.5010000
  24.5540000  63.3950000  65.0550000  25.3790000  64.0720000  62.8320000
  23.9680000  63.6860000  60.8400000  22.1740000  62.8110000  61.2990000
  21.3570000  61.7680000  66.1280000  23.5780000  62.8290000  65.8640000
  25.3550000  63.7120000  65.4550000  26.1920000  64.3890000  63.2050000
  25.1990000  64.1730000  61.4450000  23.8120000  63.8050000  59.4490000
  21.5550000  61.6710000  67.4640000  20.5470000  61.4440000  65.7530000
  23.7420000  62.7040000  67.2870000  26.1910000  64.7450000  60.6130000
  24.7880000  64.3700000  58.6390000  23.0110000  63.4870000  59.0480000
  22.7630000  62.1530000  68.0490000  20.8870000  61.2790000  68.0130000
  24.5420000  63.0110000  67.6990000  26.9960000  65.0660000  61.0020000
  26.0120000  64.8460000  59.2380000  24.6240000  64.4950000  57.2160000
  22.8840000  62.0880000  68.9890000  27.0080000  65.4320000  58.3750000
  25.6030000  65.0470000  56.4550000  23.8240000  64.1890000  56.8050000
  26.8100000  65.5290000  57.0390000  27.8180000  65.7560000  58.7500000
  25.4820000  65.1110000  55.5140000  27.4790000  65.9210000  56.4900000
  20.2500000  20.3520000   5.2170000  21.2420000  20.9230000   4.3850000
  19.0190000  19.8640000   4.6130000  20.4290000  20.2500000   6.6050000
  21.0630000  21.0240000   3.0110000  22.0470000  21.2440000   4.7750000
  18.8620000  19.9830000   3.2210000  18.0380000  19.3060000   5.4440000
  19.4480000  19.6920000   7.4360000  21.2430000  20.5670000   6.9770000
  22.0590000  21.6100000   2.1470000  19.8380000  20.5480000   2.4120000
  18.0610000  19.6660000   2.8210000  17.2240000  18.9890000   5.0710000
  18.2170000  19.2050000   6.8310000  19.6040000  19.5730000   8.8270000
  21.8610000  21.7070000   0.8120000  22.8690000  21.9340000   2.5230000
  19.6740000  20.6740000   0.9890000  17.2250000  18.6330000   7.6630000
  18.6280000  19.0080000   9.6370000  20.4060000  19.8910000   9.2280000
  20.6530000  21.2250000   0.2270000  22.5290000  22.0990000   0.2620000
  18.8750000  20.3670000   0.5770000  16.4200000  18.3120000   7.2740000
  17.4040000  18.5320000   9.0380000  18.7920000  18.8830000  11.0590000
  20.5320000  21.2900000  -0.7130000  16.4080000  17.9460000   9.9010000
  17.8130000  18.3310000  11.8210000  19.5920000  19.1890000  11.4710000
  16.6060000  17.8490000  11.2370000  15.5980000  17.6220000   9.5260000
  17.9340000  18.2670000  12.7620000  15.9370000  17.4570000  11.7860000
  20.7510000  23.6290000  19.2740000  21.7430000  24.2000000  18.4420000
  19.5200000  23.1410000  18.6700000  20.9300000  23.5270000  20.6620000
  21.5640000  24.3010000  17.0670000  22.5480000  24.5210000  18.8320000
  19.3640000  23.2600000  17.2780000  18.5390000  22.5830000  19.5010000
  19.9490000  22.9690000  21.4920000  21.7440000  23.8440000  21.0340000
  22.5600000  24.8870000  16.2040000  20.3400000  23.8250000  16.4690000
  18.5620000  22.9420000  16.8780000  17.7250000  22.2660000  19.1280000
  18.7180000  22.4810000  20.8880000  20.1060000  22.8500000  22.8840000
  22.3620000  24.9840000  14.8690000  23.3700000  25.2110000  16.5800000
  20.1760000  23.9510000  15.0460000  17.7260000  21.9100000  21.7200000
  19.1300000  22.2850000  23.6940000  20.9070000  23.1680000  23.2850000
  21.1550000  24.5020000  14.2840000  23.0310000  25.3760000  14.3190000
  19.3760000  23.6440000  14.6340000  16.9210000  21.5890000  21.3310000
  17.9050000  21.8090000  23.0950000  19.2930000  22.1590000  25.1160000
  21.0340000  24.5670000  13.3440000  16.9090000  21.2230000  23.9580000
  18.3140000  21.6080000  25.8780000  20.0930000  22.4660000  25.5280000
  17.1070000  21.1260000  25.2930000  16.0990000  20.8990000  23.5830000
  18.4360000  21.5430000  26.8190000  16.4390000  20.7340000  25.8430000
  20.4250000  42.2400000   6.8310000  19.4330000  41.6690000   7.6630000
  21.6560000  42.7280000   7.4360000  20.2460000  42.3420000   5.4440000
  19.6120000  41.5680000   9.0380000  18.6280000  41.3480000   7.2740000
  21.8130000  42.6090000   8.8270000  22.6370000  43.2860000   6.6050000
  21.2270000  42.9000000   4.6130000  19.4330000  42.0250000   5.0710000
  18.6160000  40.9820000   9.9010000  20.8370000  42.0440000   9.6370000
  22.6140000  42.9260000   9.2280000  23.4510000  43.6030000   6.9770000
  22.4580000  43.3880000   5.2170000  21.0710000  43.0190000   3.2210000
  18.8140000  40.8850000  11.2370000  17.8060000  40.6580000   9.5260000
  21.0010000  41.9180000  11.0590000  23.4500000  43.9590000   4.3850000
  22.0470000  43.5840000   2.4120000  20.2690000  42.7010000   2.8210000
  20.0220000  41.3670000  11.8210000  18.1460000  40.4930000  11.7860000
  21.8000000  42.2250000  11.4710000  24.2550000  44.2800000   4.7750000
  23.2710000  44.0600000   3.0110000  21.8830000  43.7100000   0.9890000
  20.1430000  41.3020000  12.7620000  24.2670000  44.6460000   2.1470000
  22.8620000  44.2610000   0.2270000  21.0830000  43.4030000   0.5770000
  24.0690000  44.7430000   0.8120000  25.0770000  44.9700000   2.5230000
  22.7410000  44.3260000  -0.7130000  24.7380000  45.1350000   0.2620000
  22.2470000  21.3950000  63.2440000  21.2630000  21.4000000  64.2630000
  23.4910000  20.6660000  63.4760000  22.0770000  22.0750000  62.0310000
  21.4580000  20.7400000  65.4640000  20.4490000  21.8670000  64.1180000
  23.6620000  19.9890000  64.7000000  24.4670000  20.6600000  62.4720000
  23.0520000  22.0700000  61.0270000  21.2630000  22.5470000  61.9000000
  20.4740000  20.7570000  66.5010000  22.6890000  20.0160000  65.6900000
  24.4630000  19.5010000  64.8520000  25.2810000  20.1880000  62.6030000
  24.2960000  21.3400000  61.2590000  22.8820000  22.7460000  59.8030000
  20.6850000  20.1140000  67.6730000  19.6600000  21.2260000  66.3650000
  22.8610000  19.3560000  66.9440000  25.2810000  21.3360000  60.2400000
  23.8550000  22.7190000  58.8130000  22.0810000  23.2340000  59.6510000
  21.9030000  19.3990000  67.9020000  20.0190000  20.1370000  68.3490000
  23.6640000  18.8750000  67.1100000  26.0950000  20.8680000  60.3850000
  25.0850000  21.9950000  59.0400000  23.6830000  23.3790000  57.5590000
  22.0420000  18.9540000  68.7300000  26.0690000  21.9780000  58.0020000
  24.6400000  23.3360000  56.6010000  22.8800000  23.8600000  57.3940000
  25.8580000  22.6220000  56.8300000  26.8840000  21.5090000  58.1390000
  24.5020000  23.7810000  55.7730000  26.5250000  22.5980000  56.1540000
  22.7930000  11.5100000  19.0890000  23.7770000  11.5050000  18.0700000
  21.5490000  12.2390000  18.8570000  22.9630000  10.8300000  20.3020000
  23.5810000  12.1640000  16.8690000  24.5910000  11.0370000  18.2140000
  21.3780000  12.9160000  17.6320000  20.5730000  12.2440000  19.8600000
  21.9880000  10.8350000  21.3060000  23.7770000  10.3570000  20.4330000
  24.5660000  12.1470000  15.8320000  22.3510000  12.8890000  16.6430000
  20.5770000  13.4030000  17.4810000  19.7590000  12.7170000  19.7300000
  20.7430000  11.5640000  21.0740000  22.1580000  10.1580000  22.5300000
  24.3540000  12.7910000  14.6590000  25.3800000  11.6790000  15.9680000
  22.1790000  13.5480000  15.3890000  19.7590000  11.5690000  22.0930000
  21.1850000  10.1860000  23.5190000  22.9590000   9.6710000  22.6820000
  23.1370000  13.5050000  14.4300000  25.0210000  12.7680000  13.9830000
  21.3760000  14.0300000  15.2230000  18.9450000  12.0370000  21.9480000
  19.9550000  10.9100000  23.2930000  21.3570000   9.5260000  24.7730000
  22.9980000  13.9510000  13.6020000  18.9700000  10.9270000  24.3310000
  20.4000000   9.5690000  25.7320000  22.1600000   9.0440000  24.9390000
  19.1820000  10.2830000  25.5030000  18.1560000  11.3960000  24.1940000
  20.5380000   9.1240000  26.5600000  18.5150000  10.3060000  26.1790000
  24.1890000  45.5550000  35.1300000  23.2050000  45.5600000  36.1500000
  25.4330000  44.8260000  35.3620000  24.0190000  46.2350000  33.9170000
  23.4000000  44.9010000  37.3500000  22.3900000  46.0280000  36.0050000
  25.6040000  44.1500000  36.5870000  26.4090000  44.8210000  34.3590000
  24.9940000  46.2300000  32.9140000  23.2050000  46.7080000  33.7870000
  22.4160000  44.9180000  38.3870000  24.6310000  44.1770000  37.5760000
  26.4050000  43.6620000  36.7380000  27.2230000  44.3490000  34.4890000
  26.2380000  45.5010000  33.1460000  24.8240000  46.9070000  31.6890000
  22.6270000  44.2740000  39.5600000  21.6020000  45.3870000  38.2510000
  24.8030000  43.5170000  38.8300000  27.2230000  45.4960000  32.1260000
  25.7960000  46.8800000  30.7000000  24.0230000  47.3950000  31.5370000
  23.8450000  43.5600000  39.7890000  21.9610000  44.2980000  40.2360000
  25.6060000  43.0360000  38.9960000  28.0370000  45.0290000  32.2710000
  27.0270000  46.1560000  30.9260000  25.6250000  47.5400000  29.4460000
  23.9840000  43.1150000  40.6170000  28.0110000  46.1390000  29.8890000
  26.5820000  47.4970000  28.4870000  24.8220000  48.0210000  29.2800000
  27.8000000  46.7820000  28.7160000  28.8260000  45.6700000  30.0250000
  26.4440000  47.9420000  27.6590000  28.4670000  46.7590000  28.0400000
  20.2420000   8.2870000   7.0170000  19.2580000   8.2920000   8.0360000
  21.4860000   7.5580000   7.2490000  20.0720000   8.9670000   5.8040000
  19.4530000   7.6330000   9.2360000  18.4440000   8.7600000   7.8910000
  21.6570000   6.8810000   8.4730000  22.4620000   7.5530000   6.2450000
  21.0470000   8.9620000   4.8000000  19.2580000   9.4400000   5.6730000
  18.4690000   7.6500000  10.2740000  20.6840000   6.9090000   9.4630000
  22.4580000   6.3940000   8.6250000  23.2760000   7.0810000   6.3760000
  22.2910000   8.2330000   5.0320000  20.8770000   9.6390000   3.5760000
  18.6800000   7.0060000  11.4460000  17.6550000   8.1190000  10.1370000
  20.8560000   6.2490000  10.7170000  23.2760000   8.2280000   4.0130000
  21.8490000   9.6120000   2.5860000  20.0760000  10.1270000   3.4240000
  19.8980000   6.2920000  11.6750000  18.0140000   7.0300000  12.1220000
  21.6590000   5.7680000  10.8820000  24.0900000   7.7610000   4.1580000
  23.0800000   8.8870000   2.8120000  21.6780000  10.2720000   1.3320000
  20.0370000   5.8470000  12.5030000  24.0640000   8.8710000   1.7750000
  22.6350000  10.2290000   0.3740000  20.8750000  10.7530000   1.1660000
  23.8530000   9.5140000   0.6030000  24.8790000   8.4020000   1.9110000
  22.4970000  10.6740000  -0.4540000  24.5200000   9.4910000  -0.0730000
  21.2450000  14.8410000  35.1300000  20.2600000  14.8460000  36.1500000
  22.4890000  14.1120000  35.3620000  21.0740000  15.5210000  33.9170000
  20.4560000  14.1870000  37.3500000  19.4460000  15.3140000  36.0050000
  22.6590000  13.4350000  36.5870000  23.4650000  14.1070000  34.3590000
  22.0500000  15.5160000  32.9140000  20.2600000  15.9940000  33.7870000
  19.4720000  14.2040000  38.3870000  21.6870000  13.4620000  37.5760000
  23.4600000  12.9480000  36.7380000  24.2780000  13.6340000  34.4890000
  23.2940000  14.7870000  33.1460000  21.8790000  16.1930000  31.6890000
  19.6830000  13.5600000  39.5600000  18.6570000  14.6720000  38.2510000
  21.8580000  12.8020000  38.8300000  24.2780000  14.7820000  32.1260000
  22.8520000  16.1650000  30.7000000  21.0780000  16.6800000  31.5370000
  20.9010000  12.8460000  39.7890000  19.0160000  13.5830000  40.2360000
  22.6610000  12.3210000  38.9960000  25.0930000  14.3140000  32.2710000
  24.0830000  15.4410000  30.9260000  22.6800000  16.8250000  29.4460000
  21.0390000  12.4000000  40.6170000  25.0670000  15.4240000  29.8890000
  23.6380000  16.7820000  28.4870000  21.8780000  17.3070000  29.2800000
  24.8560000  16.0680000  28.7160000  25.8820000  14.9550000  30.0250000
  23.4990000  17.2270000  27.6590000  25.5220000  16.0450000  28.0400000
  23.5290000  19.1890000  19.0890000  24.5130000  19.1840000  18.0700000
  22.2850000  19.9180000  18.8570000  23.6990000  18.5080000  20.3020000
  24.3180000  19.8430000  16.8690000  25.3270000  18.7160000  18.2140000
  22.1140000  20.5940000  17.6320000  21.3090000  19.9230000  19.8600000
  22.7240000  18.5140000  21.3060000  24.5130000  18.0360000  20.4330000
  25.3020000  19.8260000  15.8320000  23.0870000  20.5670000  16.6430000
  21.3130000  21.0820000  17.4810000  20.4950000  20.3950000  19.7300000
  21.4800000  19.2430000  21.0740000  22.8940000  17.8370000  22.5300000
  25.0910000  20.4700000  14.6590000  26.1160000  19.3570000  15.9680000
  22.9150000  21.2270000  15.3890000  20.4950000  19.2480000  22.0930000
  21.9210000  17.8640000  23.5190000  23.6950000  17.3490000  22.6820000
  23.8730000  21.1840000  14.4300000  25.7570000  20.4460000  13.9830000
  22.1120000  21.7080000  15.2230000  19.6810000  19.7150000  21.9480000
  20.6910000  18.5880000  23.2930000  22.0930000  17.2040000  24.7730000
  23.7340000  21.6290000  13.6020000  19.7070000  18.6050000  24.3310000
  21.1360000  17.2470000  25.7320000  22.8960000  16.7230000  24.9390000
  19.9180000  17.9620000  25.5030000  18.8920000  19.0740000  24.1940000
  21.2740000  16.8020000  26.5600000  19.2510000  17.9850000  26.1790000
  21.9810000  22.5200000  35.1300000  20.9960000  22.5250000  36.1500000
  23.2250000  21.7900000  35.3620000  21.8100000  23.2000000  33.9170000
  21.1920000  21.8650000  37.3500000  20.1820000  22.9920000  36.0050000
  23.3950000  21.1140000  36.5870000  24.2010000  21.7850000  34.3590000
  22.7860000  23.1950000  32.9140000  20.9970000  23.6720000  33.7870000
  20.2080000  21.8820000  38.3870000  22.4230000  21.1410000  37.5760000
  24.1970000  20.6260000  36.7380000  25.0140000  21.3130000  34.4890000
  24.0300000  22.4650000  33.1460000  22.6160000  23.8710000  31.6890000
  20.4190000  21.2390000  39.5600000  19.3930000  22.3510000  38.2510000
  22.5950000  20.4810000  38.8300000  25.0140000  22.4610000  32.1260000
  23.5880000  23.8440000  30.7000000  21.8140000  24.3590000  31.5370000
  21.6370000  20.5240000  39.7890000  19.7530000  21.2620000  40.2360000
  23.3970000  20.0000000  38.9960000  25.8290000  21.9930000  32.2710000
  24.8190000  23.1200000  30.9260000  23.4160000  24.5040000  29.4460000
  21.7750000  20.0790000  40.6170000  25.8030000  23.1030000  29.8890000
  24.3740000  24.4610000  28.4870000  22.6140000  24.9850000  29.2800000
  25.5920000  23.7460000  28.7160000  26.6180000  22.6340000  30.0250000
  24.2360000  24.9060000  27.6590000  26.2580000  23.7230000  28.0400000
  22.9830000  29.0730000  63.2440000  21.9990000  29.0780000  64.2630000
  24.2270000  28.3440000  63.4760000  22.8130000  29.7530000  62.0310000
  22.1950000  28.4190000  65.4640000  21.1850000  29.5460000  64.1180000
  24.3980000  27.6670000  64.7000000  25.2030000  28.3390000  62.4720000
  23.7890000  29.7480000  61.0270000  21.9990000  30.2260000  61.9000000
  21.2100000  28.4360000  66.5010000  23.4250000  27.6950000  65.6900000
  25.1990000  27.1800000  64.8520000  26.0170000  27.8670000  62.6030000
  25.0330000  29.0190000  61.2590000  23.6180000  30.4250000  59.8030000
  21.4220000  27.7920000  67.6730000  20.3960000  28.9050000  66.3650000
  23.5970000  27.0350000  66.9440000  26.0170000  29.0140000  60.2400000
  24.5910000  30.3980000  58.8130000  22.8170000  30.9120000  59.6510000
  22.6390000  27.0780000  67.9020000  20.7550000  27.8150000  68.3490000
  24.4000000  26.5540000  67.1100000  26.8310000  28.5470000  60.3850000
  25.8210000  29.6730000  59.0400000  24.4190000  31.0580000  57.5590000
  22.7780000  26.6330000  68.7300000  26.8060000  29.6570000  58.0020000
  25.3770000  31.0150000  56.6010000  23.6160000  31.5390000  57.3940000
  26.5940000  30.3000000  56.8300000  27.6200000  29.1880000  58.1390000
  25.2380000  31.4600000  55.7730000  27.2610000  30.2770000  56.1540000
  22.4820000  25.7960000  49.1870000  21.4980000  25.8010000  50.2060000
  23.7260000  25.0670000  49.4190000  22.3110000  26.4770000  47.9740000
  21.6930000  25.1420000  51.4070000  20.6830000  26.2690000  50.0620000
  23.8970000  24.3910000  50.6430000  24.7020000  25.0620000  48.4150000
  23.2870000  26.4710000  46.9700000  21.4980000  26.9490000  47.8430000
  20.7090000  25.1590000  52.4440000  22.9240000  24.4180000  51.6330000
  24.6980000  23.9030000  50.7950000  25.5160000  24.5900000  48.5460000
  24.5310000  25.7420000  47.2020000  23.1170000  27.1480000  45.7460000
  20.9200000  24.5150000  53.6170000  19.8940000  25.6280000  52.3080000
  23.0960000  23.7580000  52.8870000  25.5160000  25.7370000  46.1830000
  24.0890000  27.1210000  44.7560000  22.3160000  27.6360000  45.5940000
  22.1380000  23.8010000  53.8460000  20.2540000  24.5390000  54.2930000
  23.8980000  23.2770000  53.0530000  26.3300000  25.2700000  46.3280000
  25.3200000  26.3970000  44.9830000  23.9180000  27.7810000  43.5030000
  22.2770000  23.3560000  54.6740000  26.3040000  26.3800000  43.9450000
  24.8750000  27.7380000  42.5440000  23.1150000  28.2620000  43.3370000
  26.0930000  27.0230000  42.7730000  27.1190000  25.9110000  44.0820000
  24.7370000  28.1830000  41.7160000  26.7600000  27.0000000  42.0970000
  24.2650000  26.8670000  19.0890000  25.2490000  26.8620000  18.0700000
  23.0210000  27.5960000  18.8570000  24.4360000  26.1870000  20.3020000
  25.0540000  27.5220000  16.8690000  26.0640000  26.3950000  18.2140000
  22.8500000  28.2730000  17.6320000  22.0450000  27.6010000  19.8600000
  23.4600000  26.1920000  21.3060000  25.2490000  25.7150000  20.4330000
  26.0380000  27.5050000  15.8320000  23.8230000  28.2460000  16.6430000
  22.0490000  28.7610000  17.4810000  21.2310000  28.0740000  19.7300000
  22.2160000  26.9210000  21.0740000  23.6300000  25.5160000  22.5300000
  25.8270000  28.1480000  14.6590000  26.8530000  27.0360000  15.9680000
  23.6510000  28.9060000  15.3890000  21.2310000  26.9260000  22.0930000
  22.6580000  25.5430000  23.5190000  24.4310000  25.0280000  22.6820000
  24.6090000  28.8630000  14.4300000  26.4930000  28.1250000  13.9830000
  22.8490000  29.3870000  15.2230000  20.4170000  27.3940000  21.9480000
  21.4270000  26.2670000  23.2930000  22.8290000  24.8830000  24.7730000
  24.4700000  29.3080000  13.6020000  20.4430000  26.2840000  24.3310000
  21.8720000  24.9260000  25.7320000  23.6320000  24.4020000  24.9390000
  20.6540000  25.6400000  25.5030000  19.6280000  26.7530000  24.1940000
  22.0100000  24.4810000  26.5600000  19.9870000  25.6640000  26.1790000
  22.7170000  30.1980000  35.1300000  21.7330000  30.2030000  36.1500000
  23.9610000  29.4690000  35.3620000  22.5460000  30.8780000  33.9170000
  21.9280000  29.5440000  37.3500000  20.9180000  30.6710000  36.0050000
  24.1310000  28.7920000  36.5870000  24.9370000  29.4640000  34.3590000
  23.5220000  30.8730000  32.9140000  21.7330000  31.3510000  33.7870000
  20.9440000  29.5610000  38.3870000  23.1590000  28.8200000  37.5760000
  24.9330000  28.3050000  36.7380000  25.7500000  28.9910000  34.4890000
  24.7660000  30.1440000  33.1460000  23.3520000  31.5500000  31.6890000
  21.1550000  28.9170000  39.5600000  20.1290000  30.0300000  38.2510000
  23.3310000  28.1600000  38.8300000  25.7510000  30.1390000  32.1260000
  24.3240000  31.5230000  30.7000000  22.5500000  32.0370000  31.5370000
  22.3730000  28.2030000  39.7890000  20.4890000  28.9400000  40.2360000
  24.1330000  27.6790000  38.9960000  26.5650000  29.6710000  32.2710000
  25.5550000  30.7980000  30.9260000  24.1520000  32.1830000  29.4460000
  22.5110000  27.7580000  40.6170000  26.5390000  30.7820000  29.8890000
  25.1100000  32.1390000  28.4870000  23.3500000  32.6640000  29.2800000
  26.3280000  31.4250000  28.7160000  27.3540000  30.3130000  30.0250000
  24.9720000  32.5850000  27.6590000  26.9940000  31.4020000  28.0400000
  23.7640000  23.5900000   5.0320000  24.7480000  23.5850000   4.0130000
  22.5200000  24.3190000   4.8000000  23.9340000  22.9100000   6.2450000
  24.5520000  24.2450000   2.8120000  25.5620000  23.1180000   4.1580000
  22.3490000  24.9960000   3.5760000  21.5440000  24.3250000   5.8040000
  22.9580000  22.9150000   7.2490000  24.7480000  22.4380000   6.3760000
  25.5370000  24.2280000   1.7750000  23.3220000  24.9690000   2.5860000
  21.5480000  25.4840000   3.4240000  20.7300000  24.7970000   5.6730000
  21.7140000  23.6450000   7.0170000  23.1290000  22.2390000   8.4730000
  25.3250000  24.8710000   0.6030000  26.3510000  23.7590000   1.9110000
  23.1500000  25.6290000   1.3320000  20.7300000  23.6490000   8.0360000
  22.1560000  22.2660000   9.4630000  23.9300000  21.7510000   8.6250000
  24.1080000  25.5860000   0.3740000  25.9920000  24.8480000  -0.0730000
  22.3470000  26.1100000   1.1660000  19.9160000  24.1170000   7.8910000
  20.9260000  22.9900000   9.2360000  22.3280000  21.6060000  10.7170000
  23.9690000  26.0310000  -0.4540000  19.9410000  23.0070000  10.2740000
  21.3700000  21.6490000  11.6750000  23.1310000  21.1250000  10.8820000
  20.1530000  22.3640000  11.4460000  19.1270000  23.4760000  10.1370000
  21.5090000  21.2040000  12.5030000  19.4860000  22.3870000  12.1220000
  23.7190000  36.7520000  63.2440000  22.7350000  36.7570000  64.2630000
  24.9640000  36.0230000  63.4760000  23.5490000  37.4320000  62.0310000
  22.9310000  36.0980000  65.4640000  21.9210000  37.2240000  64.1180000
  25.1340000  35.3460000  64.7000000  25.9390000  36.0180000  62.4720000
  24.5250000  37.4270000  61.0270000  22.7350000  37.9040000  61.9000000
  21.9460000  36.1140000  66.5010000  24.1610000  35.3730000  65.6900000
  25.9350000  34.8580000  64.8520000  26.7530000  35.5450000  62.6030000
  25.7690000  36.6980000  61.2590000  24.3540000  38.1040000  59.8030000
  22.1580000  35.4710000  67.6730000  21.1320000  36.5830000  66.3650000
  24.3330000  34.7130000  66.9440000  26.7530000  36.6930000  60.2400000
  25.3270000  38.0760000  58.8130000  23.5530000  38.5910000  59.6510000
  23.3760000  34.7560000  67.9020000  21.4910000  35.4940000  68.3490000
  25.1360000  34.2320000  67.1100000  27.5670000  36.2250000  60.3850000
  26.5570000  37.3520000  59.0400000  25.1550000  38.7360000  57.5590000
  23.5140000  34.3110000  68.7300000  27.5420000  37.3350000  58.0020000
  26.1130000  38.6930000  56.6010000  24.3520000  39.2170000  57.3940000
  27.3300000  37.9790000  56.8300000  28.3560000  36.8660000  58.1390000
  25.9740000  39.1380000  55.7730000  27.9970000  37.9550000  56.1540000
  26.6640000  67.4660000  63.2440000  25.6800000  67.4710000  64.2630000
  27.9080000  66.7370000  63.4760000  26.4930000  68.1460000  62.0310000
  25.8750000  66.8120000  65.4640000  24.8650000  67.9390000  64.1180000
  28.0780000  66.0600000  64.7000000  28.8840000  66.7320000  62.4720000
  27.4690000  68.1410000  61.0270000  25.6800000  68.6190000  61.9000000
  24.8910000  66.8290000  66.5010000  27.1060000  66.0880000  65.6900000
  28.8800000  65.5730000  64.8520000  29.6970000  66.2590000  62.6030000
  28.7130000  67.4120000  61.2590000  27.2990000  68.8180000  59.8030000
  25.1020000  66.1850000  67.6730000  24.0760000  67.2980000  66.3650000
  27.2780000  65.4280000  66.9440000  29.6980000  67.4070000  60.2400000
  28.2710000  68.7910000  58.8130000  26.4970000  69.3050000  59.6510000
  26.3200000  65.4710000  67.9020000  24.4360000  66.2080000  68.3490000
  28.0800000  64.9470000  67.1100000  30.5120000  66.9390000  60.3850000
  29.5020000  68.0660000  59.0400000  28.0990000  69.4510000  57.5590000
  26.4580000  65.0260000  68.7300000  30.4860000  68.0500000  58.0020000
  29.0570000  69.4080000  56.6010000  27.2970000  69.9320000  57.3940000
  30.2750000  68.6930000  56.8300000  31.3010000  67.5810000  58.1390000
  28.9190000  69.8530000  55.7730000  30.9410000  68.6700000  56.1540000
  22.9520000  34.6000000  21.0740000  21.9670000  34.6050000  22.0930000
  24.1960000  33.8710000  21.3060000  22.7810000  35.2800000  19.8600000
  22.1630000  33.9460000  23.2930000  21.1530000  35.0730000  21.9480000
  24.3660000  33.1940000  22.5300000  25.1720000  33.8660000  20.3020000
  23.7570000  35.2750000  18.8570000  21.9680000  35.7530000  19.7300000
  21.1790000  33.9620000  24.3310000  23.3940000  33.2210000  23.5190000
  25.1680000  32.7070000  22.6820000  25.9850000  33.3930000  20.4330000
  25.0010000  34.5460000  19.0890000  23.5870000  35.9520000  17.6320000
  21.3900000  33.3190000  25.5030000  20.3640000  34.4310000  24.1940000
  23.5660000  32.5610000  24.7730000  25.9850000  34.5410000  18.0700000
  24.5590000  35.9240000  16.6430000  22.7850000  36.4390000  17.4810000
  22.6080000  32.6040000  25.7320000  20.7240000  33.3420000  26.1790000
  24.3680000  32.0800000  24.9390000  26.8000000  34.0730000  18.2140000
  25.7900000  35.2000000  16.8690000  24.3870000  36.5840000  15.3890000
  22.7460000  32.1590000  26.5600000  26.7740000  35.1830000  15.8320000
  25.3450000  36.5410000  14.4300000  23.5850000  37.0650000  15.2230000
  26.5630000  35.8270000  14.6590000  27.5890000  34.7140000  15.9680000
  25.2070000  36.9860000  13.6020000  27.2290000  35.8040000  13.9830000
  23.4530000  37.8770000  35.1300000  22.4690000  37.8820000  36.1500000
  24.6970000  37.1480000  35.3620000  23.2820000  38.5570000  33.9170000
  22.6640000  37.2220000  37.3500000  21.6540000  38.3490000  36.0050000
  24.8680000  36.4710000  36.5870000  25.6730000  37.1430000  34.3590000
  24.2580000  38.5520000  32.9140000  22.4690000  39.0290000  33.7870000
  21.6800000  37.2390000  38.3870000  23.8950000  36.4980000  37.5760000
  25.6690000  35.9830000  36.7380000  26.4870000  36.6700000  34.4890000
  25.5020000  37.8230000  33.1460000  24.0880000  39.2280000  31.6890000
  21.8910000  36.5960000  39.5600000  20.8650000  37.7080000  38.2510000
  24.0670000  35.8380000  38.8300000  26.4870000  37.8180000  32.1260000
  25.0600000  39.2010000  30.7000000  23.2870000  39.7160000  31.5370000
  23.1090000  35.8810000  39.7890000  21.2250000  36.6190000  40.2360000
  24.8690000  35.3570000  38.9960000  27.3010000  37.3500000  32.2710000
  26.2910000  38.4770000  30.9260000  24.8890000  39.8610000  29.4460000
  23.2480000  35.4360000  40.6170000  27.2750000  38.4600000  29.8890000
  25.8460000  39.8180000  28.4870000  24.0860000  40.3420000  29.2800000
  27.0640000  39.1040000  28.7160000  28.0900000  37.9910000  30.0250000
  25.7080000  40.2630000  27.6590000  27.7310000  39.0800000  28.0400000
  23.9540000  41.1540000  49.1870000  22.9700000  41.1590000  50.2060000
  25.1980000  40.4240000  49.4190000  23.7840000  41.8340000  47.9740000
  23.1660000  40.4990000  51.4070000  22.1560000  41.6260000  50.0620000
  25.3690000  39.7480000  50.6430000  26.1740000  40.4190000  48.4150000
  24.7590000  41.8290000  46.9700000  22.9700000  42.3060000  47.8430000
  22.1810000  40.5160000  52.4440000  24.3960000  39.7750000  51.6330000
  26.1700000  39.2600000  50.7950000  26.9880000  39.9470000  48.5460000
  26.0040000  41.0990000  47.2020000  24.5890000  42.5050000  45.7460000
  22.3930000  39.8730000  53.6170000  21.3670000  40.9850000  52.3080000
  24.5680000  39.1150000  52.8870000  26.9880000  41.0950000  46.1830000
  25.5620000  42.4780000  44.7560000  23.7880000  42.9930000  45.5940000
  23.6100000  39.1580000  53.8460000  21.7260000  39.8960000  54.2930000
  25.3710000  38.6340000  53.0530000  27.8020000  40.6270000  46.3280000
  26.7920000  41.7540000  44.9830000  25.3900000  43.1380000  43.5030000
  23.7490000  38.7130000  54.6740000  27.7770000  41.7370000  43.9450000
  26.3470000  43.0950000  42.5440000  24.5870000  43.6190000  43.3370000
  27.5650000  42.3800000  42.7730000  28.5910000  41.2680000  44.0820000
  26.2090000  43.5400000  41.7160000  28.2320000  42.3570000  42.0970000
  24.4560000  44.4300000  63.2440000  23.4710000  44.4350000  64.2630000
  25.7000000  43.7010000  63.4760000  24.2850000  45.1110000  62.0310000
  23.6670000  43.7760000  65.4640000  22.6570000  44.9030000  64.1180000
  25.8700000  43.0250000  64.7000000  26.6750000  43.6960000  62.4720000
  25.2610000  45.1050000  61.0270000  23.4710000  45.5830000  61.9000000
  22.6830000  43.7930000  66.5010000  24.8980000  43.0520000  65.6900000
  26.6710000  42.5370000  64.8520000  27.4890000  43.2240000  62.6030000
  26.5050000  44.3760000  61.2590000  25.0900000  45.7820000  59.8030000
  22.8940000  43.1490000  67.6730000  21.8680000  44.2620000  66.3650000
  25.0690000  42.3920000  66.9440000  27.4890000  44.3710000  60.2400000
  26.0630000  45.7550000  58.8130000  24.2890000  46.2700000  59.6510000
  24.1120000  42.4350000  67.9020000  22.2270000  43.1730000  68.3490000
  25.8720000  41.9110000  67.1100000  28.3040000  43.9040000  60.3850000
  27.2940000  45.0310000  59.0400000  25.8910000  46.4150000  57.5590000
  24.2500000  41.9900000  68.7300000  28.2780000  45.0140000  58.0020000
  26.8490000  46.3720000  56.6010000  25.0880000  46.8960000  57.3940000
  28.0670000  45.6570000  56.8300000  29.0920000  44.5450000  58.1390000
  26.7100000  46.8170000  55.7730000  28.7330000  45.6340000  56.1540000
  25.7370000  42.2240000  19.0890000  26.7220000  42.2190000  18.0700000
  24.4930000  42.9540000  18.8570000  25.9080000  41.5440000  20.3020000
  26.5260000  42.8790000  16.8690000  27.5360000  41.7520000  18.2140000
  24.3230000  43.6300000  17.6320000  23.5170000  42.9590000  19.8600000
  24.9320000  41.5490000  21.3060000  26.7210000  41.0720000  20.4330000
  27.5100000  42.8620000  15.8320000  25.2950000  43.6030000  16.6430000
  23.5210000  44.1180000  17.4810000  22.7040000  43.4310000  19.7300000
  23.6880000  42.2790000  21.0740000  25.1020000  40.8730000  22.5300000
  27.2990000  43.5050000  14.6590000  28.3250000  42.3930000  15.9680000
  25.1230000  44.2630000  15.3890000  22.7040000  42.2830000  22.0930000
  24.1300000  40.9000000  23.5190000  25.9040000  40.3850000  22.6820000
  26.0810000  44.2200000  14.4300000  27.9650000  43.4820000  13.9830000
  24.3210000  44.7440000  15.2230000  21.8890000  42.7510000  21.9480000
  22.8990000  41.6240000  23.2930000  24.3020000  40.2400000  24.7730000
  25.9430000  44.6650000  13.6020000  21.9150000  41.6410000  24.3310000
  23.3440000  40.2830000  25.7320000  25.1040000  39.7590000  24.9390000
  22.1260000  40.9980000  25.5030000  21.1000000  42.1100000  24.1940000
  23.4820000  39.8380000  26.5600000  21.4600000  41.0210000  26.1790000
  25.1920000  52.1090000  63.2440000  24.2070000  52.1140000  64.2630000
  26.4360000  51.3800000  63.4760000  25.0210000  52.7890000  62.0310000
  24.4030000  51.4550000  65.4640000  23.3930000  52.5820000  64.1180000
  26.6060000  50.7030000  64.7000000  27.4120000  51.3750000  62.4720000
  25.9970000  52.7840000  61.0270000  24.2070000  53.2620000  61.9000000
  23.4190000  51.4720000  66.5010000  25.6340000  50.7300000  65.6900000
  27.4070000  50.2160000  64.8520000  28.2250000  50.9020000  62.6030000
  27.2410000  52.0550000  61.2590000  25.8260000  53.4610000  59.8030000
  23.6300000  50.8280000  67.6730000  22.6040000  51.9400000  66.3650000
  25.8050000  50.0710000  66.9440000  28.2250000  52.0500000  60.2400000
  26.7990000  53.4340000  58.8130000  25.0250000  53.9480000  59.6510000
  24.8480000  50.1140000  67.9020000  22.9630000  50.8510000  68.3490000
  26.6080000  49.5890000  67.1100000  29.0400000  51.5820000  60.3850000
  28.0300000  52.7090000  59.0400000  26.6270000  54.0930000  57.5590000
  24.9860000  49.6680000  68.7300000  29.0140000  52.6920000  58.0020000
  27.5850000  54.0500000  56.6010000  25.8250000  54.5750000  57.3940000
  28.8030000  53.3360000  56.8300000  29.8290000  52.2240000  58.1390000
  27.4460000  54.4950000  55.7730000  29.4690000  53.3130000  56.1540000
  24.9250000  53.2340000  35.1300000  23.9410000  53.2390000  36.1500000
  26.1690000  52.5050000  35.3620000  24.7550000  53.9140000  33.9170000
  24.1370000  52.5800000  37.3500000  23.1270000  53.7070000  36.0050000
  26.3400000  51.8280000  36.5870000  27.1450000  52.5000000  34.3590000
  25.7300000  53.9090000  32.9140000  23.9410000  54.3870000  33.7870000
  23.1520000  52.5960000  38.3870000  25.3670000  51.8550000  37.5760000
  27.1410000  51.3410000  36.7380000  27.9590000  52.0270000  34.4890000
  26.9750000  53.1800000  33.1460000  25.5600000  54.5860000  31.6890000
  23.3640000  51.9530000  39.5600000  22.3380000  53.0650000  38.2510000
  25.5390000  51.1950000  38.8300000  27.9590000  53.1750000  32.1260000
  26.5330000  54.5580000  30.7000000  24.7590000  55.0730000  31.5370000
  24.5810000  51.2390000  39.7890000  22.6970000  51.9760000  40.2360000
  26.3420000  50.7140000  38.9960000  28.7730000  52.7070000  32.2710000
  27.7630000  53.8340000  30.9260000  26.3610000  55.2180000  29.4460000
  24.7200000  50.7930000  40.6170000  28.7480000  53.8170000  29.8890000
  27.3180000  55.1750000  28.4870000  25.5580000  55.6990000  29.2800000
  28.5360000  54.4610000  28.7160000  29.5620000  53.3480000  30.0250000
  27.1800000  55.6200000  27.6590000  29.2030000  54.4380000  28.0400000
  23.9230000  46.6800000   7.0170000  22.9380000  46.6850000   8.0360000
  25.1670000  45.9510000   7.2490000  23.7520000  47.3600000   5.8040000
  23.1340000  46.0260000   9.2360000  22.1240000  47.1530000   7.8910000
  25.3370000  45.2740000   8.4730000  26.1430000  45.9460000   6.2450000
  24.7280000  47.3550000   4.8000000  22.9390000  47.8330000   5.6730000
  22.1500000  46.0430000  10.2740000  24.3650000  45.3020000   9.4630000
  26.1380000  44.7870000   8.6250000  26.9560000  45.4740000   6.3760000
  25.9720000  46.6260000   5.0320000  24.5580000  48.0320000   3.5760000
  22.3610000  45.3990000  11.4460000  21.3350000  46.5120000  10.1370000
  24.5370000  44.6420000  10.7170000  26.9560000  46.6210000   4.0130000
  25.5300000  48.0050000   2.5860000  23.7560000  48.5200000   3.4240000
  23.5790000  44.6850000  11.6750000  21.6940000  45.4230000  12.1220000
  25.3390000  44.1610000  10.8820000  27.7710000  46.1540000   4.1580000
  26.7610000  47.2800000   2.8120000  25.3580000  48.6650000   1.3320000
  23.7170000  44.2400000  12.5030000  27.7450000  47.2640000   1.7750000
  26.3160000  48.6220000   0.3740000  24.5560000  49.1460000   1.1660000
  27.5340000  47.9070000   0.6030000  28.5600000  46.7950000   1.9110000
  26.1780000  49.0670000  -0.4540000  28.2000000  47.8840000  -0.0730000
  25.9280000  59.7880000  63.2440000  24.9430000  59.7930000  64.2630000
  27.1720000  59.0590000  63.4760000  25.7570000  60.4680000  62.0310000
  25.1390000  59.1330000  65.4640000  24.1290000  60.2600000  64.1180000
  27.3420000  58.3820000  64.7000000  28.1480000  59.0530000  62.4720000
  26.7330000  60.4630000  61.0270000  24.9440000  60.9400000  61.9000000
  24.1550000  59.1500000  66.5010000  26.3700000  58.4090000  65.6900000
  28.1440000  57.8940000  64.8520000  28.9610000  58.5810000  62.6030000
  27.9770000  59.7330000  61.2590000  26.5630000  61.1390000  59.8030000
  24.3660000  58.5070000  67.6730000  23.3400000  59.6190000  66.3650000
  26.5420000  57.7490000  66.9440000  28.9610000  59.7290000  60.2400000
  27.5350000  61.1120000  58.8130000  25.7610000  61.6270000  59.6510000
  25.5840000  57.7920000  67.9020000  23.7000000  58.5300000  68.3490000
  27.3440000  57.2680000  67.1100000  29.7760000  59.2610000  60.3850000
  28.7660000  60.3880000  59.0400000  27.3630000  61.7720000  57.5590000
  25.7220000  57.3470000  68.7300000  29.7500000  60.3710000  58.0020000
  28.3210000  61.7290000  56.6010000  26.5610000  62.2530000  57.3940000
  29.5390000  61.0140000  56.8300000  30.5650000  59.9020000  58.1390000
  28.1830000  62.1740000  55.7730000  30.2050000  60.9910000  56.1540000
  26.4730000  49.9030000  19.0890000  27.4580000  49.8980000  18.0700000
  25.2290000  50.6320000  18.8570000  26.6440000  49.2230000  20.3020000
  27.2620000  50.5570000  16.8690000  28.2720000  49.4300000  18.2140000
  25.0590000  51.3090000  17.6320000  24.2530000  50.6370000  19.8600000
  25.6680000  49.2280000  21.3060000  27.4580000  48.7500000  20.4330000
  28.2460000  50.5400000  15.8320000  26.0310000  51.2820000  16.6430000
  24.2580000  51.7960000  17.4810000  23.4400000  51.1100000  19.7300000
  24.4240000  49.9570000  21.0740000  25.8390000  48.5510000  22.5300000
  28.0350000  51.1840000  14.6590000  29.0610000  50.0720000  15.9680000
  25.8600000  51.9410000  15.3890000  23.4400000  49.9620000  22.0930000
  24.8660000  48.5780000  23.5190000  26.6400000  48.0640000  22.6820000
  26.8170000  51.8980000  14.4300000  28.7020000  51.1610000  13.9830000
  25.0570000  52.4230000  15.2230000  22.6250000  50.4300000  21.9480000
  23.6350000  49.3030000  23.2930000  25.0380000  47.9190000  24.7730000
  26.6790000  52.3440000  13.6020000  22.6510000  49.3200000  24.3310000
  24.0800000  47.9620000  25.7320000  25.8400000  47.4370000  24.9390000
  22.8620000  48.6760000  25.5030000  21.8360000  49.7890000  24.1940000
  24.2190000  47.5170000  26.5600000  22.1960000  48.6990000  26.1790000
  25.4270000  56.5110000  49.1870000  24.4420000  56.5160000  50.2060000
  26.6710000  55.7820000  49.4190000  25.2560000  57.1910000  47.9740000
  24.6380000  55.8560000  51.4070000  23.6280000  56.9830000  50.0620000
  26.8410000  55.1050000  50.6430000  27.6460000  55.7770000  48.4150000
  26.2320000  57.1860000  46.9700000  24.4420000  57.6630000  47.8430000
  23.6540000  55.8730000  52.4440000  25.8680000  55.1320000  51.6330000
  27.6420000  54.6170000  50.7950000  28.4600000  55.3040000  48.5460000
  27.4760000  56.4570000  47.2020000  26.0610000  57.8620000  45.7460000
  23.8650000  55.2300000  53.6170000  22.8390000  56.3420000  52.3080000
  26.0400000  54.4720000  52.8870000  28.4600000  56.4520000  46.1830000
  27.0340000  57.8350000  44.7560000  25.2600000  58.3500000  45.5940000
  25.0830000  54.5150000  53.8460000  23.1980000  55.2530000  54.2930000
  26.8430000  53.9910000  53.0530000  29.2740000  55.9840000  46.3280000
  28.2650000  57.1110000  44.9830000  26.8620000  58.4950000  43.5030000
  25.2210000  54.0700000  54.6740000  29.2490000  57.0940000  43.9450000
  27.8200000  58.4520000  42.5440000  26.0590000  58.9760000  43.3370000
  29.0380000  57.7380000  42.7730000  30.0630000  56.6250000  44.0820000
  27.6810000  58.8970000  41.7160000  29.7040000  57.7140000  42.0970000
  21.7460000  18.1180000  49.1870000  20.7620000  18.1230000  50.2060000
  22.9900000  17.3890000  49.4190000  21.5750000  18.7980000  47.9740000
  20.9570000  17.4630000  51.4070000  19.9470000  18.5900000  50.0620000
  23.1600000  16.7120000  50.6430000  23.9660000  17.3840000  48.4150000
  22.5510000  18.7930000  46.9700000  20.7620000  19.2700000  47.8430000
  19.9730000  17.4800000  52.4440000  22.1880000  16.7390000  51.6330000
  23.9620000  16.2240000  50.7950000  24.7790000  16.9110000  48.5460000
  23.7950000  18.0640000  47.2020000  22.3810000  19.4700000  45.7460000
  20.1840000  16.8370000  53.6170000  19.1580000  17.9490000  52.3080000
  22.3600000  16.0790000  52.8870000  24.7800000  18.0590000  46.1830000
  23.3530000  19.4420000  44.7560000  21.5790000  19.9570000  45.5940000
  21.4020000  16.1220000  53.8460000  19.5180000  16.8600000  54.2930000
  23.1620000  15.5980000  53.0530000  25.5940000  17.5910000  46.3280000
  24.5840000  18.7180000  44.9830000  23.1810000  20.1020000  43.5030000
  21.5400000  15.6770000  54.6740000  25.5680000  18.7010000  43.9450000
  24.1390000  20.0590000  42.5440000  22.3790000  20.5830000  43.3370000
  25.3570000  19.3450000  42.7730000  26.3830000  18.2320000  44.0820000
  24.0010000  20.5040000  41.7160000  26.0230000  19.3210000  42.0970000
  23.2180000  33.4750000  49.1870000  22.2340000  33.4800000  50.2060000
  24.4620000  32.7460000  49.4190000  23.0480000  34.1550000  47.9740000
  22.4290000  32.8210000  51.4070000  21.4200000  33.9480000  50.0620000
  24.6330000  32.0690000  50.6430000  25.4380000  32.7410000  48.4150000
  24.0230000  34.1500000  46.9700000  22.2340000  34.6280000  47.8430000
  21.4450000  32.8380000  52.4440000  23.6600000  32.0960000  51.6330000
  25.4340000  31.5820000  50.7950000  26.2520000  32.2680000  48.5460000
  25.2670000  33.4210000  47.2020000  23.8530000  34.8270000  45.7460000
  21.6560000  32.1940000  53.6170000  20.6310000  33.3060000  52.3080000
  23.8320000  31.4370000  52.8870000  26.2520000  33.4160000  46.1830000
  24.8260000  34.8000000  44.7560000  23.0520000  35.3140000  45.5940000
  22.8740000  31.4800000  53.8460000  20.9900000  32.2170000  54.2930000
  24.6350000  30.9550000  53.0530000  27.0660000  32.9480000  46.3280000
  26.0560000  34.0750000  44.9830000  24.6540000  35.4590000  43.5030000
  23.0130000  31.0340000  54.6740000  27.0400000  34.0580000  43.9450000
  25.6110000  35.4160000  42.5440000  23.8510000  35.9410000  43.3370000
  26.8290000  34.7020000  42.7730000  27.8550000  33.5890000  44.0820000
  25.4730000  35.8610000  41.7160000  27.4960000  34.6790000  42.0970000
  26.7080000  54.3050000   5.0320000  27.6930000  54.3000000   4.0130000
  25.4640000  55.0340000   4.8000000  26.8790000  53.6250000   6.2450000
  27.4970000  54.9590000   2.8120000  28.5070000  53.8320000   4.1580000
  25.2940000  55.7110000   3.5760000  24.4880000  55.0390000   5.8040000
  25.9030000  53.6300000   7.2490000  27.6920000  53.1520000   6.3760000
  28.4810000  54.9420000   1.7750000  26.2660000  55.6830000   2.5860000
  24.4920000  56.1980000   3.4240000  23.6750000  55.5110000   5.6730000
  24.6590000  54.3590000   7.0170000  26.0730000  52.9530000   8.4730000
  28.2700000  55.5860000   0.6030000  29.2960000  54.4730000   1.9110000
  26.0940000  56.3430000   1.3320000  23.6750000  54.3640000   8.0360000
  25.1010000  52.9800000   9.4630000  26.8750000  52.4660000   8.6250000
  27.0520000  56.3000000   0.3740000  28.9360000  55.5630000  -0.0730000
  25.2920000  56.8240000   1.1660000  22.8600000  54.8310000   7.8910000
  23.8700000  53.7050000   9.2360000  25.2730000  52.3200000  10.7170000
  26.9140000  56.7450000  -0.4540000  22.8860000  53.7210000  10.2740000
  24.3150000  52.3630000  11.6750000  26.0750000  51.8390000  10.8820000
  23.0970000  53.0780000  11.4460000  22.0710000  54.1900000  10.1370000
  24.4530000  51.9180000  12.5030000  22.4310000  53.1010000  12.1220000
  26.1630000  64.1890000  49.1870000  25.1780000  64.1940000  50.2060000
  27.4070000  63.4600000  49.4190000  25.9920000  64.8700000  47.9740000
  25.3740000  63.5350000  51.4070000  24.3640000  64.6620000  50.0620000
  27.5770000  62.7840000  50.6430000  28.3830000  63.4550000  48.4150000
  26.9680000  64.8640000  46.9700000  25.1780000  65.3420000  47.8430000
  24.3900000  63.5520000  52.4440000  26.6050000  62.8110000  51.6330000
  28.3780000  62.2960000  50.7950000  29.1960000  62.9830000  48.5460000
  28.2120000  64.1350000  47.2020000  26.7970000  65.5410000  45.7460000
  24.6010000  62.9080000  53.6170000  23.5750000  64.0210000  52.3080000
  26.7760000  62.1510000  52.8870000  29.1960000  64.1300000  46.1830000
  27.7700000  65.5140000  44.7560000  25.9960000  66.0290000  45.5940000
  25.8190000  62.1940000  53.8460000  23.9340000  62.9320000  54.2930000
  27.5790000  61.6700000  53.0530000  30.0110000  63.6630000  46.3280000
  29.0010000  64.7900000  44.9830000  27.5980000  66.1740000  43.5030000
  25.9570000  61.7490000  54.6740000  29.9850000  64.7730000  43.9450000
  28.5560000  66.1310000  42.5440000  26.7960000  66.6550000  43.3370000
  29.7740000  65.4160000  42.7730000  30.8000000  64.3040000  44.0820000
  28.4170000  66.5760000  41.7160000  30.4400000  65.3930000  42.0970000
  22.4510000  31.3230000   7.0170000  21.4660000  31.3280000   8.0360000
  23.6950000  30.5940000   7.2490000  22.2800000  32.0030000   5.8040000
  21.6620000  30.6690000   9.2360000  20.6520000  31.7960000   7.8910000
  23.8650000  29.9170000   8.4730000  24.6700000  30.5890000   6.2450000
  23.2560000  31.9980000   4.8000000  21.4660000  32.4760000   5.6730000
  20.6780000  30.6860000  10.2740000  22.8920000  29.9440000   9.4630000
  24.6660000  29.4300000   8.6250000  25.4840000  30.1160000   6.3760000
  24.5000000  31.2690000   5.0320000  23.0850000  32.6750000   3.5760000
  20.8890000  30.0420000  11.4460000  19.8630000  31.1540000  10.1370000
  23.0640000  29.2850000  10.7170000  25.4840000  31.2640000   4.0130000
  24.0580000  32.6480000   2.5860000  22.2840000  33.1620000   3.4240000
  22.1070000  29.3280000  11.6750000  20.2220000  30.0650000  12.1220000
  23.8670000  28.8030000  10.8820000  26.2980000  30.7960000   4.1580000
  25.2890000  31.9230000   2.8120000  23.8860000  33.3070000   1.3320000
  22.2450000  28.8830000  12.5030000  26.2730000  31.9060000   1.7750000
  24.8440000  33.2640000   0.3740000  23.0830000  33.7890000   1.1660000
  26.0620000  32.5500000   0.6030000  27.0870000  31.4380000   1.9110000
  24.7050000  33.7100000  -0.4540000  26.7280000  32.5270000  -0.0730000
  24.6900000  48.8320000  49.1870000  23.7060000  48.8370000  50.2060000
  25.9350000  48.1030000  49.4190000  24.5200000  49.5120000  47.9740000
  23.9020000  48.1780000  51.4070000  22.8920000  49.3050000  50.0620000
  26.1050000  47.4260000  50.6430000  26.9100000  48.0980000  48.4150000
  25.4960000  49.5070000  46.9700000  23.7060000  49.9850000  47.8430000
  22.9170000  48.1950000  52.4440000  25.1320000  47.4540000  51.6330000
  26.9060000  46.9390000  50.7950000  27.7240000  47.6250000  48.5460000
  26.7400000  48.7780000  47.2020000  25.3250000  50.1840000  45.7460000
  23.1290000  47.5510000  53.6170000  22.1030000  48.6640000  52.3080000
  25.3040000  46.7940000  52.8870000  27.7240000  48.7730000  46.1830000
  26.2980000  50.1570000  44.7560000  24.5240000  50.6710000  45.5940000
  24.3470000  46.8370000  53.8460000  22.4620000  47.5740000  54.2930000
  26.1070000  46.3130000  53.0530000  28.5380000  48.3050000  46.3280000
  27.5280000  49.4320000  44.9830000  26.1260000  50.8170000  43.5030000
  24.4850000  46.3920000  54.6740000  28.5130000  49.4160000  43.9450000
  27.0840000  50.7740000  42.5440000  25.3230000  51.2980000  43.3370000
  28.3010000  50.0590000  42.7730000  29.3270000  48.9470000  44.0820000
  26.9450000  51.2190000  41.7160000  28.9680000  50.0360000  42.0970000
  23.1870000  39.0020000   7.0170000  22.2020000  39.0070000   8.0360000
  24.4310000  38.2730000   7.2490000  23.0160000  39.6820000   5.8040000
  22.3980000  38.3470000   9.2360000  21.3880000  39.4740000   7.8910000
  24.6010000  37.5960000   8.4730000  25.4060000  38.2670000   6.2450000
  23.9920000  39.6770000   4.8000000  22.2020000  40.1540000   5.6730000
  21.4140000  38.3640000  10.2740000  23.6290000  37.6230000   9.4630000
  25.4020000  37.1080000   8.6250000  26.2200000  37.7950000   6.3760000
  25.2360000  38.9480000   5.0320000  23.8210000  40.3530000   3.5760000
  21.6250000  37.7210000  11.4460000  20.5990000  38.8330000  10.1370000
  23.8000000  36.9630000  10.7170000  26.2200000  38.9430000   4.0130000
  24.7940000  40.3260000   2.5860000  23.0200000  40.8410000   3.4240000
  22.8430000  37.0060000  11.6750000  20.9580000  37.7440000  12.1220000
  24.6030000  36.4820000  10.8820000  27.0350000  38.4750000   4.1580000
  26.0250000  39.6020000   2.8120000  24.6220000  40.9860000   1.3320000
  22.9810000  36.5610000  12.5030000  27.0090000  39.5850000   1.7750000
  25.5800000  40.9430000   0.3740000  23.8200000  41.4670000   1.1660000
  26.7980000  40.2290000   0.6030000  27.8240000  39.1160000   1.9110000
  25.4410000  41.3880000  -0.4540000  27.4640000  40.2050000  -0.0730000
  20.9780000  15.9660000   7.0170000  19.9940000  15.9710000   8.0360000
  22.2220000  15.2370000   7.2490000  20.8080000  16.6460000   5.8040000
  20.1900000  15.3120000   9.2360000  19.1800000  16.4390000   7.8910000
  22.3930000  14.5600000   8.4730000  23.1980000  15.2320000   6.2450000
  21.7830000  16.6410000   4.8000000  19.9940000  17.1190000   5.6730000
  19.2050000  15.3280000  10.2740000  21.4200000  14.5870000   9.4630000
  23.1940000  14.0730000   8.6250000  24.0120000  14.7590000   6.3760000
  23.0280000  15.9120000   5.0320000  21.6130000  17.3180000   3.5760000
  19.4170000  14.6850000  11.4460000  18.3910000  15.7970000  10.1370000
  21.5920000  13.9270000  10.7170000  24.0120000  15.9070000   4.0130000
  22.5860000  17.2900000   2.5860000  20.8120000  17.8050000   3.4240000
  20.6340000  13.9700000  11.6750000  18.7500000  14.7080000  12.1220000
  22.3950000  13.4460000  10.8820000  24.8260000  15.4390000   4.1580000
  23.8160000  16.5660000   2.8120000  22.4140000  17.9500000   1.3320000
  20.7730000  13.5250000  12.5030000  24.8010000  16.5490000   1.7750000
  23.3710000  17.9070000   0.3740000  21.6110000  18.4310000   1.1660000
  24.5890000  17.1930000   0.6030000  25.6150000  16.0800000   1.9110000
  23.2330000  18.3520000  -0.4540000  25.2560000  17.1700000  -0.0730000
  25.1600000  57.6360000  21.0740000  24.1760000  57.6410000  22.0930000
  26.4040000  56.9070000  21.3060000  24.9900000  58.3160000  19.8600000
  24.3710000  56.9810000  23.2930000  23.3610000  58.1080000  21.9480000
  26.5750000  56.2300000  22.5300000  27.3800000  56.9010000  20.3020000
  25.9650000  58.3110000  18.8570000  24.1760000  58.7880000  19.7300000
  23.3870000  56.9980000  24.3310000  25.6020000  56.2570000  23.5190000
  27.3760000  55.7420000  22.6820000  28.1940000  56.4290000  20.4330000
  27.2090000  57.5820000  19.0890000  25.7950000  58.9870000  17.6320000
  23.5980000  56.3550000  25.5030000  22.5720000  57.4670000  24.1940000
  25.7740000  55.5970000  24.7730000  28.1940000  57.5770000  18.0700000
  26.7670000  58.9600000  16.6430000  24.9940000  59.4750000  17.4810000
  24.8160000  55.6400000  25.7320000  22.9320000  56.3780000  26.1790000
  26.5770000  55.1160000  24.9390000  29.0080000  57.1090000  18.2140000
  27.9980000  58.2360000  16.8690000  26.5960000  59.6200000  15.3890000
  24.9550000  55.1950000  26.5600000  28.9820000  58.2190000  15.8320000
  27.5530000  59.5770000  14.4300000  25.7930000  60.1010000  15.2230000
  28.7710000  58.8630000  14.6590000  29.7970000  57.7500000  15.9680000
  27.4150000  60.0220000  13.6020000  29.4380000  58.8390000  13.9830000
  25.6610000  60.9130000  35.1300000  24.6770000  60.9170000  36.1500000
  26.9050000  60.1830000  35.3620000  25.4910000  61.5930000  33.9170000
  24.8730000  60.2580000  37.3500000  23.8630000  61.3850000  36.0050000
  27.0760000  59.5070000  36.5870000  27.8810000  60.1780000  34.3590000
  26.4670000  61.5880000  32.9140000  24.6770000  62.0650000  33.7870000
  23.8880000  60.2750000  38.3870000  26.1030000  59.5340000  37.5760000
  27.8770000  59.0190000  36.7380000  28.6950000  59.7060000  34.4890000
  27.7110000  60.8580000  33.1460000  26.2960000  62.2640000  31.6890000
  24.1000000  59.6320000  39.5600000  23.0740000  60.7440000  38.2510000
  26.2750000  58.8740000  38.8300000  28.6950000  60.8530000  32.1260000
  27.2690000  62.2370000  30.7000000  25.4950000  62.7520000  31.5370000
  25.3170000  58.9170000  39.7890000  23.4330000  59.6550000  40.2360000
  27.0780000  58.3930000  38.9960000  29.5090000  60.3860000  32.2710000
  28.4990000  61.5130000  30.9260000  27.0970000  62.8970000  29.4460000
  25.4560000  58.4720000  40.6170000  29.4840000  61.4960000  29.8890000
  28.0550000  62.8540000  28.4870000  26.2940000  63.3780000  29.2800000
  29.2720000  62.1390000  28.7160000  30.2980000  61.0270000  30.0250000
  27.9160000  63.2990000  27.6590000  29.9390000  62.1160000  28.0400000
  26.5250000  20.3520000   5.2170000  27.5170000  20.9230000   4.3850000
  25.2940000  19.8640000   4.6130000  26.7040000  20.2500000   6.6050000
  27.3380000  21.0240000   3.0110000  28.3220000  21.2440000   4.7750000
  25.1380000  19.9830000   3.2210000  24.3130000  19.3060000   5.4440000
  25.7230000  19.6920000   7.4360000  27.5180000  20.5670000   6.9770000
  28.3340000  21.6100000   2.1470000  26.1140000  20.5480000   2.4120000
  24.3360000  19.6660000   2.8210000  23.4990000  18.9890000   5.0710000
  24.4920000  19.2050000   6.8310000  25.8800000  19.5730000   8.8270000
  28.1360000  21.7070000   0.8120000  29.1440000  21.9340000   2.5230000
  25.9500000  20.6740000   0.9890000  23.5000000  18.6330000   7.6630000
  24.9040000  19.0080000   9.6370000  26.6810000  19.8910000   9.2280000
  26.9290000  21.2250000   0.2270000  28.8050000  22.0990000   0.2620000
  25.1500000  20.3670000   0.5770000  22.6950000  18.3120000   7.2740000
  23.6790000  18.5320000   9.0380000  25.0670000  18.8830000  11.0590000
  26.8080000  21.2900000  -0.7130000  22.6830000  17.9460000   9.9010000
  24.0890000  18.3310000  11.8210000  25.8670000  19.1890000  11.4710000
  22.8810000  17.8490000  11.2370000  21.8730000  17.6220000   9.5260000
  24.2100000  18.2670000  12.7620000  22.2130000  17.4570000  11.7860000
  25.2280000  26.8830000   6.8310000  24.2370000  26.3120000   7.6630000
  26.4590000  27.3710000   7.4360000  25.0490000  26.9850000   5.4440000
  24.4150000  26.2100000   9.0380000  23.4310000  25.9900000   7.2740000
  26.6160000  27.2520000   8.8270000  27.4400000  27.9280000   6.6050000
  26.0300000  27.5420000   4.6130000  24.2360000  26.6680000   5.0710000
  23.4190000  25.6250000   9.9010000  25.6400000  26.6860000   9.6370000
  27.4170000  27.5690000   9.2280000  28.2540000  28.2460000   6.9770000
  27.2610000  28.0300000   5.2170000  25.8740000  27.6620000   3.2210000
  23.6170000  25.5270000  11.2370000  22.6090000  25.3010000   9.5260000
  25.8040000  26.5610000  11.0590000  28.2530000  28.6020000   4.3850000
  26.8500000  28.2270000   2.4120000  25.0720000  27.3440000   2.8210000
  24.8250000  26.0100000  11.8210000  22.9490000  25.1360000  11.7860000
  26.6030000  26.8680000  11.4710000  29.0580000  28.9230000   4.7750000
  28.0740000  28.7030000   3.0110000  26.6860000  28.3520000   0.9890000
  24.9460000  25.9450000  12.7620000  29.0700000  29.2890000   2.1470000
  27.6650000  28.9030000   0.2270000  25.8860000  28.0460000   0.5770000
  28.8720000  29.3860000   0.8120000  29.8800000  29.6130000   2.5230000
  27.5440000  28.9680000  -0.7130000  29.5410000  29.7780000   0.2620000
  26.7010000  42.2400000   6.8310000  25.7090000  41.6690000   7.6630000
  27.9320000  42.7280000   7.4360000  26.5210000  42.3420000   5.4440000
  25.8870000  41.5680000   9.0380000  24.9030000  41.3480000   7.2740000
  28.0880000  42.6090000   8.8270000  28.9130000  43.2860000   6.6050000
  27.5020000  42.9000000   4.6130000  25.7080000  42.0250000   5.0710000
  24.8910000  40.9820000   9.9010000  27.1120000  42.0440000   9.6370000
  28.8890000  42.9260000   9.2280000  29.7260000  43.6030000   6.9770000
  28.7330000  43.3880000   5.2170000  27.3460000  43.0190000   3.2210000
  25.0890000  40.8850000  11.2370000  24.0820000  40.6580000   9.5260000
  27.2760000  41.9180000  11.0590000  29.7250000  43.9590000   4.3850000
  28.3220000  43.5840000   2.4120000  26.5450000  42.7010000   2.8210000
  26.2970000  41.3670000  11.8210000  24.4210000  40.4930000  11.7860000
  28.0760000  42.2250000  11.4710000  30.5310000  44.2800000   4.7750000
  29.5470000  44.0600000   3.0110000  28.1580000  43.7100000   0.9890000
  26.4180000  41.3020000  12.7620000  30.5430000  44.6460000   2.1470000
  29.1370000  44.2610000   0.2270000  27.3580000  43.4030000   0.5770000
  30.3450000  44.7430000   0.8120000  31.3520000  44.9700000   2.5230000
  29.0160000  44.3260000  -0.7130000  31.0130000  45.1350000   0.2620000
  27.4370000  49.9190000   6.8310000  26.4450000  49.3470000   7.6630000
  28.6680000  50.4070000   7.4360000  27.2570000  50.0210000   5.4440000
  26.6240000  49.2460000   9.0380000  25.6400000  49.0260000   7.2740000
  28.8240000  50.2870000   8.8270000  29.6490000  50.9640000   6.6050000
  28.2390000  50.5780000   4.6130000  26.4440000  49.7040000   5.0710000
  25.6280000  48.6600000   9.9010000  27.8480000  49.7220000   9.6370000
  29.6250000  50.6050000   9.2280000  30.4620000  51.2810000   6.9770000
  29.4690000  51.0660000   5.2170000  28.0820000  50.6980000   3.2210000
  25.8260000  48.5630000  11.2370000  24.8180000  48.3360000   9.5260000
  28.0120000  49.5970000  11.0590000  30.4610000  51.6380000   4.3850000
  29.0580000  51.2630000   2.4120000  27.2810000  50.3800000   2.8210000
  27.0330000  49.0460000  11.8210000  25.1570000  48.1710000  11.7860000
  28.8120000  49.9030000  11.4710000  31.2670000  51.9590000   4.7750000
  30.2830000  51.7390000   3.0110000  28.8940000  51.3880000   0.9890000
  27.1540000  48.9810000  12.7620000  31.2790000  52.3250000   2.1470000
  29.8730000  51.9390000   0.2270000  28.0940000  51.0820000   0.5770000
  31.0810000  52.4220000   0.8120000  32.0880000  52.6490000   2.5230000
  29.7520000  52.0040000  -0.7130000  31.7490000  52.8140000   0.2620000
  26.5560000  14.8250000  47.3880000  27.5480000  15.3970000  46.5560000
  25.3260000  14.3370000  46.7830000  26.7360000  14.7230000  48.7750000
  27.3700000  15.4980000  45.1810000  28.3540000  15.7180000  46.9450000
  25.1690000  14.4570000  45.3920000  24.3440000  13.7800000  47.6140000
  25.7550000  14.1660000  49.6060000  27.5490000  15.0400000  49.1480000
  28.3660000  16.0840000  44.3180000  26.1450000  15.0220000  44.5820000
  24.3680000  14.1390000  44.9910000  23.5310000  13.4630000  47.2420000
  24.5240000  13.6780000  49.0020000  25.9110000  14.0460000  50.9980000
  28.1680000  16.1810000  42.9830000  29.1760000  16.4080000  44.6930000
  25.9810000  15.1470000  43.1600000  23.5320000  13.1060000  49.8340000
  24.9350000  13.4810000  51.8070000  26.7120000  14.3640000  51.3980000
  26.9600000  15.6980000  42.3980000  28.8360000  16.5720000  42.4330000
  25.1820000  14.8410000  42.7480000  22.7270000  12.7850000  49.4440000
  23.7110000  13.0050000  51.2090000  25.0990000  13.3560000  53.2300000
  26.8390000  15.7630000  41.4570000  22.7150000  12.4190000  52.0720000
  24.1200000  12.8050000  53.9920000  25.8990000  13.6620000  53.6420000
  22.9130000  12.3220000  53.4070000  21.9050000  12.0950000  51.6960000
  24.2410000  12.7400000  54.9320000  22.2440000  11.9300000  53.9570000
  27.0580000  18.1020000  61.4450000  28.0500000  18.6730000  60.6130000
  25.8270000  17.6140000  60.8400000  27.2370000  18.0000000  62.8320000
  27.8710000  18.7750000  59.2380000  28.8550000  18.9950000  61.0020000
  25.6700000  17.7330000  59.4490000  24.8460000  17.0570000  61.6710000
  26.2560000  17.4430000  63.6630000  28.0510000  18.3170000  63.2050000
  28.8670000  19.3600000  58.3750000  26.6460000  18.2990000  58.6390000
  24.8690000  17.4160000  59.0480000  24.0320000  16.7390000  61.2990000
  25.0250000  16.9550000  63.0580000  26.4120000  17.3230000  65.0550000
  28.6690000  19.4580000  57.0390000  29.6770000  19.6840000  58.7500000
  26.4830000  18.4240000  57.2160000  24.0330000  16.3830000  63.8910000
  25.4360000  16.7580000  65.8640000  27.2140000  17.6410000  65.4550000
  27.4620000  18.9750000  56.4550000  29.3370000  19.8490000  56.4900000
  25.6830000  18.1170000  56.8050000  23.2280000  16.0620000  63.5010000
  24.2120000  16.2820000  65.2650000  25.6000000  16.6330000  67.2870000
  27.3400000  19.0400000  55.5140000  23.2160000  15.6960000  66.1280000
  24.6210000  16.0820000  68.0490000  26.4000000  16.9390000  67.6990000
  23.4140000  15.5990000  67.4640000  22.4060000  15.3720000  65.7530000
  24.7420000  16.0170000  68.9890000  22.7450000  15.2070000  68.0130000
  24.0230000  10.4010000  34.9450000  23.0310000   9.8290000  35.7770000
  25.2530000  10.8890000  35.5490000  23.8430000  10.5030000  33.5570000
  23.2090000   9.7280000  37.1520000  22.2250000   9.5080000  35.3880000
  25.4100000  10.7700000  36.9410000  26.2350000  11.4460000  34.7190000
  24.8240000  11.0600000  32.7270000  23.0300000  10.1860000  33.1850000
  22.2130000   9.1420000  38.0150000  24.4340000  10.2040000  37.7510000
  26.2110000  11.0870000  37.3420000  27.0480000  11.7630000  35.0910000
  26.0550000  11.5480000  33.3310000  24.6680000  11.1800000  31.3350000
  22.4110000   9.0450000  39.3500000  21.4040000   8.8180000  37.6400000
  24.5980000  10.0790000  39.1730000  27.0470000  12.1200000  32.4990000
  25.6440000  11.7450000  30.5250000  23.8670000  10.8620000  30.9340000
  23.6190000   9.5280000  39.9350000  21.7430000   8.6540000  39.9000000
  25.3980000  10.3850000  39.5850000  27.8520000  12.4410000  32.8880000
  26.8680000  12.2210000  31.1240000  25.4800000  11.8700000  29.1030000
  23.7400000   9.4630000  40.8750000  27.8640000  12.8070000  30.2610000
  26.4590000  12.4210000  28.3410000  24.6800000  11.5640000  28.6910000
  27.6660000  12.9040000  28.9260000  28.6740000  13.1310000  30.6360000
  26.3380000  12.4860000  27.4010000  28.3350000  13.2960000  28.3760000
  23.5210000   7.1240000  20.8880000  22.5290000   6.5530000  21.7200000
  24.7520000   7.6120000  21.4920000  23.3420000   7.2260000  19.5010000
  22.7080000   6.4520000  23.0950000  21.7240000   6.2310000  21.3310000
  24.9090000   7.4930000  22.8840000  25.7330000   8.1690000  20.6620000
  24.3230000   7.7830000  18.6700000  22.5280000   6.9090000  19.1280000
  21.7120000   5.8660000  23.9580000  23.9330000   6.9270000  23.6940000
  25.7100000   7.8100000  23.2850000  26.5470000   8.4870000  21.0340000
  25.5540000   8.2710000  19.2740000  24.1670000   7.9030000  17.2780000
  21.9100000   5.7680000  25.2930000  20.9020000   5.5420000  23.5830000
  24.0960000   6.8020000  25.1160000  26.5460000   8.8430000  18.4420000
  25.1430000   8.4680000  16.4690000  23.3650000   7.5850000  16.8780000
  23.1180000   6.2510000  25.8780000  21.2420000   5.3770000  25.8430000
  24.8960000   7.1090000  25.5280000  27.3510000   9.1640000  18.8320000
  26.3670000   8.9440000  17.0670000  24.9790000   8.5930000  15.0460000
  23.2390000   6.1860000  26.8190000  27.3630000   9.5300000  16.2040000
  25.9580000   9.1440000  14.2840000  24.1790000   8.2870000  14.6340000
  27.1650000   9.6270000  14.8690000  28.1730000   9.8540000  16.5800000
  25.8370000   9.2090000  13.3440000  27.8340000  10.0190000  14.3190000
  25.0530000   4.9950000   5.2170000  26.0450000   5.5660000   4.3850000
  23.8220000   4.5070000   4.6130000  25.2320000   4.8930000   6.6050000
  25.8660000   5.6670000   3.0110000  26.8500000   5.8870000   4.7750000
  23.6650000   4.6260000   3.2210000  22.8410000   3.9490000   5.4440000
  24.2510000   4.3350000   7.4360000  26.0460000   5.2100000   6.9770000
  26.8620000   6.2530000   2.1470000  24.6410000   5.1910000   2.4120000
  22.8640000   4.3080000   2.8210000  22.0270000   3.6320000   5.0710000
  23.0200000   3.8470000   6.8310000  24.4070000   4.2160000   8.8270000
  26.6640000   6.3500000   0.8120000  27.6720000   6.5770000   2.5230000
  24.4780000   5.3170000   0.9890000  22.0280000   3.2760000   7.6630000
  23.4310000   3.6510000   9.6370000  25.2090000   4.5330000   9.2280000
  25.4570000   5.8680000   0.2270000  27.3320000   6.7420000   0.2620000
  23.6780000   5.0100000   0.5770000  21.2230000   2.9550000   7.2740000
  22.2070000   3.1750000   9.0380000  23.5950000   3.5250000  11.0590000
  25.3350000   5.9330000  -0.7130000  21.2110000   2.5890000   9.9010000
  22.6160000   2.9740000  11.8210000  24.3950000   3.8320000  11.4710000
  21.4090000   2.4920000  11.2370000  20.4010000   2.2650000   9.5260000
  22.7370000   2.9090000  12.7620000  20.7400000   2.1000000  11.7860000
  27.7940000  25.7810000  61.4450000  28.7860000  26.3520000  60.6130000
  26.5630000  25.2930000  60.8400000  27.9730000  25.6790000  62.8320000
  28.6070000  26.4530000  59.2380000  29.5910000  26.6730000  61.0020000
  26.4070000  25.4120000  59.4490000  25.5820000  24.7350000  61.6710000
  26.9920000  25.1210000  63.6630000  28.7870000  25.9960000  63.2050000
  29.6030000  27.0390000  58.3750000  27.3830000  25.9770000  58.6390000
  25.6050000  25.0940000  59.0480000  24.7680000  24.4180000  61.2990000
  25.7610000  24.6330000  63.0580000  27.1490000  25.0020000  65.0550000
  29.4050000  27.1360000  57.0390000  30.4130000  27.3630000  58.7500000
  27.2190000  26.1020000  57.2160000  24.7690000  24.0620000  63.8910000
  26.1730000  24.4370000  65.8640000  27.9500000  25.3190000  65.4550000
  28.1980000  26.6540000  56.4550000  30.0740000  27.5280000  56.4900000
  26.4190000  25.7960000  56.8050000  23.9640000  23.7410000  63.5010000
  24.9480000  23.9610000  65.2650000  26.3360000  24.3110000  67.2870000
  28.0770000  26.7180000  55.5140000  23.9520000  23.3750000  66.1280000
  25.3570000  23.7600000  68.0490000  27.1360000  24.6180000  67.6990000
  24.1500000  23.2780000  67.4640000  23.1420000  23.0510000  65.7530000
  25.4790000  23.6950000  68.9890000  23.4820000  22.8860000  68.0130000
  24.2570000  14.8030000  20.8880000  23.2660000  14.2310000  21.7200000
  25.4880000  15.2910000  21.4920000  24.0780000  14.9050000  19.5010000
  23.4440000  14.1300000  23.0950000  22.4600000  13.9100000  21.3310000
  25.6450000  15.1710000  22.8840000  26.4690000  15.8480000  20.6620000
  25.0590000  15.4620000  18.6700000  23.2650000  14.5880000  19.1280000
  22.4480000  13.5440000  23.9580000  24.6690000  14.6060000  23.6940000
  26.4460000  15.4890000  23.2850000  27.2830000  16.1650000  21.0340000
  26.2900000  15.9500000  19.2740000  24.9030000  15.5810000  17.2780000
  22.6460000  13.4470000  25.2930000  21.6380000  13.2200000  23.5830000
  24.8330000  14.4810000  25.1160000  27.2820000  16.5220000  18.4420000
  25.8790000  16.1470000  16.4690000  24.1010000  15.2640000  16.8780000
  23.8540000  13.9300000  25.8780000  21.9780000  13.0550000  25.8430000
  25.6320000  14.7870000  25.5280000  28.0870000  16.8430000  18.8320000
  27.1030000  16.6230000  17.0670000  25.7150000  16.2720000  15.0460000
  23.9750000  13.8650000  26.8190000  28.0990000  17.2090000  16.2040000
  26.6940000  16.8230000  14.2840000  24.9150000  15.9660000  14.6340000
  27.9010000  17.3060000  14.8690000  28.9090000  17.5330000  16.5800000
  26.5730000  16.8880000  13.3440000  28.5700000  17.6970000  14.3190000
  23.7560000  11.5260000   6.8310000  22.7640000  10.9540000   7.6630000
  24.9870000  12.0140000   7.4360000  23.5770000  11.6280000   5.4440000
  22.9430000  10.8530000   9.0380000  21.9590000  10.6330000   7.2740000
  25.1430000  11.8940000   8.8270000  25.9680000  12.5710000   6.6050000
  24.5580000  12.1850000   4.6130000  22.7630000  11.3110000   5.0710000
  21.9470000  10.2670000   9.9010000  24.1680000  11.3290000   9.6370000
  25.9450000  12.2120000   9.2280000  26.7820000  12.8880000   6.9770000
  25.7890000  12.6730000   5.2170000  24.4020000  12.3050000   3.2210000
  22.1450000  10.1700000  11.2370000  21.1370000   9.9430000   9.5260000
  24.3310000  11.2040000  11.0590000  26.7810000  13.2450000   4.3850000
  25.3770000  12.8700000   2.4120000  23.6000000  11.9870000   2.8210000
  23.3520000  10.6530000  11.8210000  21.4770000   9.7780000  11.7860000
  25.1310000  11.5100000  11.4710000  27.5860000  13.5660000   4.7750000
  26.6020000  13.3460000   3.0110000  25.2140000  12.9950000   0.9890000
  23.4740000  10.5880000  12.7620000  27.5980000  13.9320000   2.1470000
  26.1930000  13.5460000   0.2270000  24.4140000  12.6890000   0.5770000
  27.4000000  14.0290000   0.8120000  28.4080000  14.2560000   2.5230000
  26.0710000  13.6110000  -0.7130000  28.0690000  14.4210000   0.2620000
  24.7590000  18.0800000  34.9450000  23.7670000  17.5080000  35.7770000
  25.9900000  18.5680000  35.5490000  24.5790000  18.1820000  33.5570000
  23.9450000  17.4070000  37.1520000  22.9620000  17.1870000  35.3880000
  26.1460000  18.4480000  36.9410000  26.9710000  19.1250000  34.7190000
  25.5610000  18.7390000  32.7270000  23.7660000  17.8640000  33.1850000
  22.9490000  16.8210000  38.0150000  25.1700000  17.8830000  37.7510000
  26.9470000  18.7660000  37.3420000  27.7840000  19.4420000  35.0910000
  26.7910000  19.2270000  33.3310000  25.4040000  18.8580000  31.3350000
  23.1470000  16.7240000  39.3500000  22.1400000  16.4970000  37.6400000
  25.3340000  17.7580000  39.1730000  27.7830000  19.7980000  32.4990000
  26.3800000  19.4240000  30.5250000  24.6030000  18.5410000  30.9340000
  24.3550000  17.2060000  39.9350000  22.4790000  16.3320000  39.9000000
  26.1340000  18.0640000  39.5850000  28.5890000  20.1200000  32.8880000
  27.6050000  19.8990000  31.1240000  26.2160000  19.5490000  29.1030000
  24.4760000  17.1420000  40.8750000  28.6010000  20.4850000  30.2610000
  27.1950000  20.1000000  28.3410000  25.4160000  19.2420000  28.6910000
  28.4030000  20.5830000  28.9260000  29.4100000  20.8090000  30.6360000
  27.0740000  20.1650000  27.4010000  29.0710000  20.9740000  28.3760000
  27.5270000  26.9050000  33.3310000  28.5190000  27.4770000  32.4990000
  26.2970000  26.4170000  32.7270000  27.7070000  26.8030000  34.7190000
  28.3410000  27.5780000  31.1240000  29.3250000  27.7980000  32.8880000
  26.1400000  26.5370000  31.3350000  25.3150000  25.8600000  33.5570000
  26.7260000  26.2460000  35.5490000  28.5200000  27.1210000  35.0910000
  29.3370000  28.1640000  30.2610000  27.1160000  27.1020000  30.5250000
  25.3390000  26.2190000  30.9340000  24.5020000  25.5430000  33.1850000
  25.4950000  25.7580000  34.9450000  26.8820000  26.1270000  36.9410000
  29.1390000  28.2610000  28.9260000  30.1460000  28.4880000  30.6360000
  26.9520000  27.2270000  29.1030000  24.5030000  25.1870000  35.7770000
  25.9060000  25.5610000  37.7510000  27.6830000  26.4440000  37.3420000
  27.9310000  27.7790000  28.3410000  29.8070000  28.6530000  28.3760000
  26.1520000  26.9210000  28.6910000  23.6980000  24.8650000  35.3880000
  24.6820000  25.0860000  37.1520000  26.0700000  25.4360000  39.1730000
  27.8100000  27.8430000  27.4010000  23.6860000  24.5000000  38.0150000
  25.0910000  24.8850000  39.9350000  26.8700000  25.7430000  39.5850000
  23.8840000  24.4020000  39.3500000  22.8760000  24.1760000  37.6400000
  25.2120000  24.8200000  40.8750000  23.2150000  24.0110000  39.9000000
  25.9960000  29.0350000  49.0020000  25.0040000  28.4630000  49.8340000
  27.2270000  29.5230000  49.6060000  25.8170000  29.1370000  47.6140000
  25.1830000  28.3620000  51.2090000  24.1990000  28.1420000  49.4440000
  27.3830000  29.4040000  50.9980000  28.2080000  30.0800000  48.7750000
  26.7980000  29.6940000  46.7830000  25.0030000  28.8200000  47.2420000
  24.1870000  27.7770000  52.0720000  26.4070000  28.8380000  51.8070000
  28.1850000  29.7210000  51.3980000  29.0220000  30.3970000  49.1480000
  28.0290000  30.1820000  47.3880000  26.6410000  29.8140000  45.3920000
  24.3850000  27.6790000  53.4070000  23.3770000  27.4530000  51.6960000
  26.5710000  28.7130000  53.2300000  29.0210000  30.7540000  46.5560000
  27.6170000  30.3790000  44.5820000  25.8400000  29.4960000  44.9910000
  25.5920000  28.1620000  53.9920000  23.7160000  27.2880000  53.9570000
  27.3710000  29.0190000  53.6420000  29.8260000  31.0750000  46.9450000
  28.8420000  30.8550000  45.1810000  27.4540000  30.5040000  43.1600000
  25.7130000  28.0970000  54.9320000  29.8380000  31.4410000  44.3180000
  28.4330000  31.0550000  42.3980000  26.6540000  30.1980000  42.7480000
  29.6400000  31.5380000  42.9830000  30.6480000  31.7650000  44.6930000
  28.3110000  31.1200000  41.4570000  30.3080000  31.9300000  42.4330000
  28.5300000  33.4590000  61.4450000  29.5220000  34.0310000  60.6130000
  27.2990000  32.9710000  60.8400000  28.7090000  33.3570000  62.8320000
  29.3430000  34.1320000  59.2380000  30.3270000  34.3520000  61.0020000
  27.1430000  33.0910000  59.4490000  26.3180000  32.4140000  61.6710000
  27.7280000  32.8000000  63.6630000  29.5230000  33.6740000  63.2050000
  30.3390000  34.7180000  58.3750000  28.1190000  33.6560000  58.6390000
  26.3410000  32.7730000  59.0480000  25.5040000  32.0970000  61.2990000
  26.4970000  32.3120000  63.0580000  27.8850000  32.6800000  65.0550000
  30.1410000  34.8150000  57.0390000  31.1490000  35.0420000  58.7500000
  27.9550000  33.7810000  57.2160000  25.5050000  31.7400000  63.8910000
  26.9090000  32.1150000  65.8640000  28.6860000  32.9980000  65.4550000
  28.9340000  34.3320000  56.4550000  30.8100000  35.2070000  56.4900000
  27.1550000  33.4750000  56.8050000  24.7000000  31.4190000  63.5010000
  25.6840000  31.6390000  65.2650000  27.0730000  31.9900000  67.2870000
  28.8130000  34.3970000  55.5140000  24.6880000  31.0530000  66.1280000
  26.0940000  31.4390000  68.0490000  27.8720000  32.2960000  67.6990000
  24.8860000  30.9560000  67.4640000  23.8780000  30.7290000  65.7530000
  26.2150000  31.3740000  68.9890000  24.2180000  30.5640000  68.0130000
  27.7620000  31.3070000  19.2740000  28.7540000  31.8790000  18.4420000
  26.5310000  30.8190000  18.6700000  27.9420000  31.2050000  20.6620000
  28.5760000  31.9800000  17.0670000  29.5600000  32.2000000  18.8320000
  26.3750000  30.9390000  17.2780000  25.5500000  30.2620000  19.5010000
  26.9610000  30.6480000  21.4920000  28.7550000  31.5220000  21.0340000
  29.5720000  32.5660000  16.2040000  27.3510000  31.5040000  16.4690000
  25.5740000  30.6210000  16.8780000  24.7370000  29.9450000  19.1280000
  25.7300000  30.1600000  20.8880000  27.1170000  30.5290000  22.8840000
  29.3740000  32.6630000  14.8690000  30.3810000  32.8900000  16.5800000
  27.1870000  31.6290000  15.0460000  24.7380000  29.5880000  21.7200000
  26.1410000  29.9630000  23.6940000  27.9180000  30.8460000  23.2850000
  28.1660000  32.1800000  14.2840000  30.0420000  33.0550000  14.3190000
  26.3870000  31.3230000  14.6340000  23.9320000  29.2670000  21.3310000
  24.9160000  29.4870000  23.0950000  26.3050000  29.8380000  25.1160000
  28.0450000  32.2450000  13.3440000  23.9200000  28.9010000  23.9580000
  25.3260000  29.2870000  25.8780000  27.1050000  30.1440000  25.5280000
  24.1180000  28.8040000  25.2930000  23.1110000  28.5770000  23.5830000
  25.4470000  29.2220000  26.8190000  23.4500000  28.4130000  25.8430000
  26.7320000  36.7140000  49.0020000  25.7400000  36.1420000  49.8340000
  27.9630000  37.2020000  49.6060000  26.5530000  36.8160000  47.6140000
  25.9190000  36.0410000  51.2090000  24.9350000  35.8210000  49.4440000
  28.1190000  37.0820000  50.9980000  28.9440000  37.7590000  48.7750000
  27.5340000  37.3730000  46.7830000  25.7390000  36.4980000  47.2420000
  24.9230000  35.4550000  52.0720000  27.1440000  36.5170000  51.8070000
  28.9210000  37.4000000  51.3980000  29.7580000  38.0760000  49.1480000
  28.7650000  37.8610000  47.3880000  27.3780000  37.4920000  45.3920000
  25.1210000  35.3580000  53.4070000  24.1130000  35.1310000  51.6960000
  27.3070000  36.3920000  53.2300000  29.7570000  38.4320000  46.5560000
  28.3540000  38.0580000  44.5820000  26.5760000  37.1750000  44.9910000
  26.3280000  35.8410000  53.9920000  24.4530000  34.9660000  53.9570000
  28.1070000  36.6980000  53.6420000  30.5620000  38.7540000  46.9450000
  29.5780000  38.5340000  45.1810000  28.1900000  38.1830000  43.1600000
  26.4500000  35.7760000  54.9320000  30.5740000  39.1190000  44.3180000
  29.1690000  38.7340000  42.3980000  27.3900000  37.8760000  42.7480000
  30.3760000  39.2170000  42.9830000  31.3840000  39.4430000  44.6930000
  29.0480000  38.7990000  41.4570000  31.0450000  39.6080000  42.4330000
  27.2330000  39.9900000  63.0580000  26.2420000  39.4190000  63.8910000
  28.4640000  40.4780000  63.6630000  27.0540000  40.0920000  61.6710000
  26.4200000  39.3180000  65.2650000  25.4360000  39.0980000  63.5010000
  28.6210000  40.3590000  65.0550000  29.4450000  41.0360000  62.8320000
  28.0350000  40.6500000  60.8400000  26.2410000  39.7750000  61.2990000
  25.4240000  38.7320000  66.1280000  27.6450000  39.7940000  65.8640000
  29.4220000  40.6770000  65.4550000  30.2590000  41.3530000  63.2050000
  29.2660000  41.1380000  61.4450000  27.8790000  40.7690000  59.4490000
  25.6220000  38.6350000  67.4640000  24.6140000  38.4080000  65.7530000
  27.8090000  39.6680000  67.2870000  30.2580000  41.7090000  60.6130000
  28.8550000  41.3340000  58.6390000  27.0770000  40.4520000  59.0480000
  26.8300000  39.1170000  68.0490000  24.9540000  38.2430000  68.0130000
  28.6080000  39.9750000  67.6990000  31.0630000  42.0300000  61.0020000
  30.0790000  41.8100000  59.2380000  28.6910000  41.4600000  57.2160000
  26.9510000  39.0520000  68.9890000  31.0750000  42.3960000  58.3750000
  29.6700000  42.0110000  56.4550000  27.8910000  41.1530000  56.8050000
  30.8770000  42.4930000  57.0390000  31.8850000  42.7200000  58.7500000
  29.5490000  42.0760000  55.5140000  31.5460000  42.8850000  56.4900000
  26.4660000  37.8390000  20.8880000  25.4740000  37.2670000  21.7200000
  27.6970000  38.3270000  21.4920000  26.2860000  37.9410000  19.5010000
  25.6530000  37.1660000  23.0950000  24.6690000  36.9460000  21.3310000
  27.8530000  38.2070000  22.8840000  28.6780000  38.8840000  20.6620000
  27.2680000  38.4980000  18.6700000  25.4730000  37.6230000  19.1280000
  24.6570000  36.5800000  23.9580000  26.8770000  37.6420000  23.6940000
  28.6540000  38.5250000  23.2850000  29.4910000  39.2010000  21.0340000
  28.4980000  38.9860000  19.2740000  27.1110000  38.6170000  17.2780000
  24.8550000  36.4830000  25.2930000  23.8470000  36.2560000  23.5830000
  27.0410000  37.5170000  25.1160000  29.4900000  39.5570000  18.4420000
  28.0870000  39.1830000  16.4690000  26.3100000  38.3000000  16.8780000
  26.0620000  36.9650000  25.8780000  24.1860000  36.0910000  25.8430000
  27.8410000  37.8230000  25.5280000  30.2960000  39.8780000  18.8320000
  29.3120000  39.6580000  17.0670000  27.9230000  39.3080000  15.0460000
  26.1830000  36.9010000  26.8190000  30.3080000  40.2440000  16.2040000
  28.9020000  39.8590000  14.2840000  27.1230000  39.0010000  14.6340000
  30.1100000  40.3420000  14.8690000  31.1170000  40.5680000  16.5800000
  28.7810000  39.9240000  13.3440000  30.7780000  40.7330000  14.3190000
  30.0020000  48.8160000  61.4450000  30.9940000  49.3880000  60.6130000
  28.7710000  48.3280000  60.8400000  30.1820000  48.7140000  62.8320000
  30.8150000  49.4890000  59.2380000  31.7990000  49.7090000  61.0020000
  28.6150000  48.4480000  59.4490000  27.7900000  47.7710000  61.6710000
  29.2000000  48.1570000  63.6630000  30.9950000  49.0320000  63.2050000
  31.8110000  50.0750000  58.3750000  29.5910000  49.0130000  58.6390000
  27.8140000  48.1300000  59.0480000  26.9770000  47.4540000  61.2990000
  27.9700000  47.6690000  63.0580000  29.3570000  48.0380000  65.0550000
  31.6130000  50.1720000  57.0390000  32.6210000  50.3990000  58.7500000
  29.4270000  49.1380000  57.2160000  26.9780000  47.0970000  63.8910000
  28.3810000  47.4720000  65.8640000  30.1580000  48.3550000  65.4550000
  30.4060000  49.6890000  56.4550000  32.2820000  50.5640000  56.4900000
  28.6270000  48.8320000  56.8050000  26.1720000  46.7760000  63.5010000
  27.1560000  46.9960000  65.2650000  28.5450000  47.3470000  67.2870000
  30.2850000  49.7540000  55.5140000  26.1600000  46.4110000  66.1280000
  27.5660000  46.7960000  68.0490000  29.3450000  47.6530000  67.6990000
  26.3580000  46.3130000  67.4640000  25.3510000  46.0870000  65.7530000
  27.6870000  46.7310000  68.9890000  25.6900000  45.9220000  68.0130000
  29.0000000  42.2630000  33.3310000  29.9920000  42.8340000  32.4990000
  27.7690000  41.7750000  32.7270000  29.1790000  42.1610000  34.7190000
  29.8130000  42.9350000  31.1240000  30.7970000  43.1550000  32.8880000
  27.6120000  41.8940000  31.3350000  26.7880000  41.2170000  33.5570000
  28.1980000  41.6030000  35.5490000  29.9930000  42.4780000  35.0910000
  30.8090000  43.5210000  30.2610000  28.5880000  42.4590000  30.5250000
  26.8110000  41.5760000  30.9340000  25.9740000  40.9000000  33.1850000
  26.9670000  41.1150000  34.9450000  28.3540000  41.4840000  36.9410000
  30.6110000  43.6180000  28.9260000  31.6190000  43.8450000  30.6360000
  28.4250000  42.5850000  29.1030000  25.9750000  40.5440000  35.7770000
  27.3780000  40.9190000  37.7510000  29.1560000  41.8020000  37.3420000
  29.4040000  43.1360000  28.3410000  31.2790000  44.0100000  28.3760000
  27.6250000  42.2780000  28.6910000  25.1700000  40.2230000  35.3880000
  26.1540000  40.4430000  37.1520000  27.5420000  40.7930000  39.1730000
  29.2820000  43.2010000  27.4010000  25.1580000  39.8570000  38.0150000
  26.5630000  40.2420000  39.9350000  28.3420000  41.1000000  39.5850000
  25.3560000  39.7600000  39.3500000  24.3480000  39.5330000  37.6400000
  26.6840000  40.1770000  40.8750000  24.6870000  39.3680000  39.9000000
  27.9970000  35.7090000   5.2170000  28.9890000  36.2810000   4.3850000
  26.7660000  35.2210000   4.6130000  28.1770000  35.6070000   6.6050000
  28.8100000  36.3820000   3.0110000  29.7940000  36.6020000   4.7750000
  26.6100000  35.3400000   3.2210000  25.7850000  34.6640000   5.4440000
  27.1950000  35.0500000   7.4360000  28.9900000  35.9240000   6.9770000
  29.8060000  36.9670000   2.1470000  27.5860000  35.9060000   2.4120000
  25.8090000  35.0230000   2.8210000  24.9720000  34.3460000   5.0710000
  25.9650000  34.5620000   6.8310000  27.3520000  34.9300000   8.8270000
  29.6080000  37.0650000   0.8120000  30.6160000  37.2910000   2.5230000
  27.4220000  36.0310000   0.9890000  24.9730000  33.9900000   7.6630000
  26.3760000  34.3650000   9.6370000  28.1530000  35.2480000   9.2280000
  28.4010000  36.5820000   0.2270000  30.2770000  37.4560000   0.2620000
  26.6220000  35.7250000   0.5770000  24.1670000  33.6690000   7.2740000
  25.1510000  33.8890000   9.0380000  26.5400000  34.2400000  11.0590000
  28.2800000  36.6470000  -0.7130000  24.1550000  33.3030000   9.9010000
  25.5610000  33.6890000  11.8210000  27.3400000  34.5460000  11.4710000
  24.3530000  33.2060000  11.2370000  23.3460000  32.9790000   9.5260000
  25.6820000  33.6240000  12.7620000  23.6850000  32.8140000  11.7860000
  27.7030000  48.7940000  34.9450000  26.7110000  48.2220000  35.7770000
  28.9340000  49.2820000  35.5490000  27.5240000  48.8960000  33.5570000
  26.8900000  48.1210000  37.1520000  25.9060000  47.9010000  35.3880000
  29.0900000  49.1630000  36.9410000  29.9150000  49.8390000  34.7190000
  28.5050000  49.4530000  32.7270000  26.7100000  48.5790000  33.1850000
  25.8940000  47.5350000  38.0150000  28.1150000  48.5970000  37.7510000
  29.8920000  49.4800000  37.3420000  30.7290000  50.1560000  35.0910000
  29.7360000  49.9410000  33.3310000  28.3490000  49.5730000  31.3350000
  26.0920000  47.4380000  39.3500000  25.0840000  47.2110000  37.6400000
  28.2780000  48.4720000  39.1730000  30.7280000  50.5130000  32.4990000
  29.3240000  50.1380000  30.5250000  27.5470000  49.2550000  30.9340000
  27.2990000  47.9210000  39.9350000  25.4230000  47.0470000  39.9000000
  29.0780000  48.7780000  39.5850000  31.5330000  50.8340000  32.8880000
  30.5490000  50.6140000  31.1240000  29.1610000  50.2630000  29.1030000
  27.4210000  47.8560000  40.8750000  31.5450000  51.2000000  30.2610000
  30.1400000  50.8140000  28.3410000  28.3610000  49.9570000  28.6910000
  31.3470000  51.2970000  28.9260000  32.3550000  51.5240000  30.6360000
  30.0180000  50.8790000  27.4010000  32.0160000  51.6890000  28.3760000
  29.2350000  46.6640000  19.2740000  30.2260000  47.2360000  18.4420000
  28.0040000  46.1760000  18.6700000  29.4140000  46.5620000  20.6620000
  30.0480000  47.3370000  17.0670000  31.0320000  47.5570000  18.8320000
  27.8470000  46.2960000  17.2780000  27.0230000  45.6190000  19.5010000
  28.4330000  46.0050000  21.4920000  30.2270000  46.8800000  21.0340000
  31.0440000  47.9230000  16.2040000  28.8230000  46.8610000  16.4690000
  27.0460000  45.9780000  16.8780000  26.2090000  45.3020000  19.1280000
  27.2020000  45.5170000  20.8880000  28.5890000  45.8860000  22.8840000
  30.8460000  48.0200000  14.8690000  31.8540000  48.2470000  16.5800000
  28.6590000  46.9860000  15.0460000  26.2100000  44.9460000  21.7200000
  27.6130000  45.3200000  23.6940000  29.3910000  46.2030000  23.2850000
  29.6380000  47.5370000  14.2840000  31.5140000  48.4120000  14.3190000
  27.8600000  46.6800000  14.6340000  25.4050000  44.6240000  21.3310000
  26.3890000  44.8440000  23.0950000  27.7770000  45.1950000  25.1160000
  29.5170000  47.6020000  13.3440000  25.3930000  44.2590000  23.9580000
  26.7980000  44.6440000  25.8780000  28.5770000  45.5020000  25.5280000
  25.5910000  44.1610000  25.2930000  24.5830000  43.9350000  23.5830000
  26.9190000  44.5790000  26.8190000  24.9220000  43.7700000  25.8430000
  30.7380000  56.4950000  61.4450000  31.7300000  57.0660000  60.6130000
  29.5080000  56.0070000  60.8400000  30.9180000  56.3930000  62.8320000
  31.5520000  57.1680000  59.2380000  32.5360000  57.3880000  61.0020000
  29.3510000  56.1260000  59.4490000  28.5260000  55.4500000  61.6710000
  29.9370000  55.8360000  63.6630000  31.7310000  56.7100000  63.2050000
  32.5480000  57.7530000  58.3750000  30.3270000  56.6920000  58.6390000
  28.5500000  55.8090000  59.0480000  27.7130000  55.1320000  61.2990000
  28.7060000  55.3480000  63.0580000  30.0930000  55.7160000  65.0550000
  32.3500000  57.8510000  57.0390000  33.3570000  58.0770000  58.7500000
  30.1630000  56.8170000  57.2160000  27.7140000  54.7760000  63.8910000
  29.1170000  55.1510000  65.8640000  30.8940000  56.0340000  65.4550000
  31.1420000  57.3680000  56.4550000  33.0180000  58.2420000  56.4900000
  29.3630000  56.5100000  56.8050000  26.9090000  54.4550000  63.5010000
  27.8920000  54.6750000  65.2650000  29.2810000  55.0260000  67.2870000
  31.0210000  57.4330000  55.5140000  26.8960000  54.0890000  66.1280000
  28.3020000  54.4750000  68.0490000  30.0810000  55.3320000  67.6990000
  27.0940000  53.9920000  67.4640000  26.0870000  53.7650000  65.7530000
  28.4230000  54.4100000  68.9890000  26.4260000  53.6000000  68.0130000
  29.9710000  54.3430000  19.2740000  30.9630000  54.9150000  18.4420000
  28.7400000  53.8550000  18.6700000  30.1500000  54.2410000  20.6620000
  30.7840000  55.0160000  17.0670000  31.7680000  55.2360000  18.8320000
  28.5830000  53.9740000  17.2780000  27.7590000  53.2980000  19.5010000
  29.1690000  53.6840000  21.4920000  30.9640000  54.5580000  21.0340000
  31.7800000  55.6010000  16.2040000  29.5590000  54.5400000  16.4690000
  27.7820000  53.6570000  16.8780000  26.9450000  52.9810000  19.1280000
  27.9380000  53.1960000  20.8880000  29.3250000  53.5640000  22.8840000
  31.5820000  55.6990000  14.8690000  32.5900000  55.9250000  16.5800000
  29.3960000  54.6650000  15.0460000  26.9460000  52.6240000  21.7200000
  28.3490000  52.9990000  23.6940000  30.1270000  53.8820000  23.2850000
  30.3740000  55.2160000  14.2840000  32.2500000  56.0900000  14.3190000
  28.5960000  54.3590000  14.6340000  26.1410000  52.3030000  21.3310000
  27.1250000  52.5230000  23.0950000  28.5130000  52.8740000  25.1160000
  30.2530000  55.2810000  13.3440000  26.1290000  51.9370000  23.9580000
  27.5340000  52.3230000  25.8780000  29.3130000  53.1800000  25.5280000
  26.3270000  51.8400000  25.2930000  25.3190000  51.6130000  23.5830000
  27.6550000  52.2580000  26.8190000  25.6580000  51.4480000  25.8430000
  28.4390000  56.4730000  34.9450000  27.4470000  55.9010000  35.7770000
  29.6700000  56.9610000  35.5490000  28.2600000  56.5750000  33.5570000
  27.6260000  55.8000000  37.1520000  26.6420000  55.5800000  35.3880000
  29.8270000  56.8410000  36.9410000  30.6510000  57.5180000  34.7190000
  29.2410000  57.1320000  32.7270000  27.4460000  56.2570000  33.1850000
  26.6300000  55.2140000  38.0150000  28.8510000  56.2760000  37.7510000
  30.6280000  57.1590000  37.3420000  31.4650000  57.8350000  35.0910000
  30.4720000  57.6200000  33.3310000  29.0850000  57.2510000  31.3350000
  26.8280000  55.1170000  39.3500000  25.8200000  54.8900000  37.6400000
  29.0140000  56.1510000  39.1730000  31.4640000  58.1910000  32.4990000
  30.0610000  57.8170000  30.5250000  28.2830000  56.9340000  30.9340000
  28.0360000  55.5990000  39.9350000  26.1600000  54.7250000  39.9000000
  29.8140000  56.4570000  39.5850000  32.2690000  58.5130000  32.8880000
  31.2850000  58.2920000  31.1240000  29.8970000  57.9420000  29.1030000
  28.1570000  55.5350000  40.8750000  32.2810000  58.8780000  30.2610000
  30.8760000  58.4930000  28.3410000  29.0970000  57.6350000  28.6910000
  32.0830000  58.9760000  28.9260000  33.0910000  59.2020000  30.6360000
  30.7550000  58.5580000  27.4010000  32.7520000  59.3670000  28.3760000
  29.4420000  63.0260000  63.0580000  28.4500000  62.4550000  63.8910000
  30.6730000  63.5140000  63.6630000  29.2620000  63.1280000  61.6710000
  28.6290000  62.3540000  65.2650000  27.6450000  62.1340000  63.5010000
  30.8290000  63.3950000  65.0550000  31.6540000  64.0720000  62.8320000
  30.2440000  63.6860000  60.8400000  28.4490000  62.8110000  61.2990000
  27.6330000  61.7680000  66.1280000  29.8530000  62.8290000  65.8640000
  31.6300000  63.7120000  65.4550000  32.4670000  64.3890000  63.2050000
  31.4740000  64.1730000  61.4450000  30.0870000  63.8050000  59.4490000
  27.8310000  61.6710000  67.4640000  26.8230000  61.4440000  65.7530000
  30.0170000  62.7040000  67.2870000  32.4660000  64.7450000  60.6130000
  31.0630000  64.3700000  58.6390000  29.2860000  63.4870000  59.0480000
  29.0380000  62.1530000  68.0490000  27.1620000  61.2790000  68.0130000
  30.8170000  63.0110000  67.6990000  33.2720000  65.0660000  61.0020000
  32.2880000  64.8460000  59.2380000  30.8990000  64.4950000  57.2160000
  29.1590000  62.0880000  68.9890000  33.2840000  65.4320000  58.3750000
  31.8780000  65.0470000  56.4550000  30.0990000  64.1890000  56.8050000
  33.0860000  65.5290000  57.0390000  34.0930000  65.7560000  58.7500000
  31.7570000  65.1110000  55.5140000  33.7540000  65.9210000  56.4900000
  27.2930000  22.5040000  47.3880000  28.2850000  23.0750000  46.5560000
  26.0620000  22.0160000  46.7830000  27.4720000  22.4020000  48.7750000
  28.1060000  23.1760000  45.1810000  29.0900000  23.3960000  46.9450000
  25.9050000  22.1350000  45.3920000  25.0810000  21.4580000  47.6140000
  26.4910000  21.8440000  49.6060000  28.2850000  22.7190000  49.1480000
  29.1020000  23.7620000  44.3180000  26.8810000  22.7000000  44.5820000
  25.1040000  21.8180000  44.9910000  24.2670000  21.1410000  47.2420000
  25.2600000  21.3560000  49.0020000  26.6470000  21.7250000  50.9980000
  28.9040000  23.8590000  42.9830000  29.9120000  24.0860000  44.6930000
  26.7170000  22.8260000  43.1600000  24.2680000  20.7850000  49.8340000
  25.6710000  21.1600000  51.8070000  27.4490000  22.0430000  51.3980000
  27.6960000  23.3770000  42.3980000  29.5720000  24.2510000  42.4330000
  25.9180000  22.5190000  42.7480000  23.4630000  20.4640000  49.4440000
  24.4470000  20.6840000  51.2090000  25.8350000  21.0340000  53.2300000
  27.5750000  23.4420000  41.4570000  23.4510000  20.0980000  52.0720000
  24.8560000  20.4830000  53.9920000  26.6350000  21.3410000  53.6420000
  23.6490000  20.0010000  53.4070000  22.6410000  19.7740000  51.6960000
  24.9770000  20.4180000  54.9320000  22.9800000  19.6090000  53.9570000
  24.9940000  22.4810000  20.8880000  24.0020000  21.9100000  21.7200000
  26.2240000  22.9690000  21.4920000  24.8140000  22.5830000  19.5010000
  24.1800000  21.8090000  23.0950000  23.1960000  21.5890000  21.3310000
  26.3810000  22.8500000  22.8840000  27.2060000  23.5270000  20.6620000
  25.7950000  23.1410000  18.6700000  24.0010000  22.2660000  19.1280000
  23.1840000  21.2230000  23.9580000  25.4050000  22.2850000  23.6940000
  27.1820000  23.1680000  23.2850000  28.0190000  23.8440000  21.0340000
  27.0260000  23.6290000  19.2740000  25.6390000  23.2600000  17.2780000
  23.3820000  21.1260000  25.2930000  22.3750000  20.8990000  23.5830000
  25.5690000  22.1590000  25.1160000  28.0180000  24.2000000  18.4420000
  26.6150000  23.8250000  16.4690000  24.8380000  22.9420000  16.8780000
  24.5900000  21.6080000  25.8780000  22.7140000  20.7340000  25.8430000
  26.3690000  22.4660000  25.5280000  28.8230000  24.5210000  18.8320000
  27.8390000  24.3010000  17.0670000  26.4510000  23.9510000  15.0460000
  24.7110000  21.5430000  26.8190000  28.8350000  24.8870000  16.2040000
  27.4300000  24.5020000  14.2840000  25.6510000  23.6440000  14.6340000
  28.6370000  24.9840000  14.8690000  29.6450000  25.2110000  16.5800000
  27.3090000  24.5670000  13.3440000  29.3060000  25.3760000  14.3190000
  26.2310000  33.4370000  34.9450000  25.2390000  32.8650000  35.7770000
  27.4620000  33.9250000  35.5490000  26.0520000  33.5390000  33.5570000
  25.4180000  32.7640000  37.1520000  24.4340000  32.5440000  35.3880000
  27.6180000  33.8050000  36.9410000  28.4430000  34.4820000  34.7190000
  27.0330000  34.0960000  32.7270000  25.2380000  33.2220000  33.1850000
  24.4220000  32.1780000  38.0150000  26.6420000  33.2400000  37.7510000
  28.4200000  34.1230000  37.3420000  29.2560000  34.7990000  35.0910000
  28.2640000  34.5840000  33.3310000  26.8760000  34.2150000  31.3350000
  24.6200000  32.0810000  39.3500000  23.6120000  31.8540000  37.6400000
  26.8060000  33.1150000  39.1730000  29.2550000  35.1560000  32.4990000
  27.8520000  34.7810000  30.5250000  26.0750000  33.8980000  30.9340000
  25.8270000  32.5640000  39.9350000  23.9510000  31.6890000  39.9000000
  27.6060000  33.4210000  39.5850000  30.0610000  35.4770000  32.8880000
  29.0770000  35.2570000  31.1240000  27.6880000  34.9060000  29.1030000
  25.9480000  32.4990000  40.8750000  30.0730000  35.8430000  30.2610000
  28.6670000  35.4570000  28.3410000  26.8890000  34.6000000  28.6910000
  29.8750000  35.9400000  28.9260000  30.8830000  36.1670000  30.6360000
  28.5460000  35.5220000  27.4010000  30.5430000  36.3310000  28.3760000
  28.2040000  52.0710000  49.0020000  27.2130000  51.4990000  49.8340000
  29.4350000  52.5590000  49.6060000  28.0250000  52.1730000  47.6140000
  27.3910000  51.3980000  51.2090000  26.4070000  51.1780000  49.4440000
  29.5920000  52.4390000  50.9980000  30.4160000  53.1160000  48.7750000
  29.0060000  52.7300000  46.7830000  27.2120000  51.8560000  47.2420000
  26.3950000  50.8120000  52.0720000  28.6160000  51.8740000  51.8070000
  30.3930000  52.7570000  51.3980000  31.2300000  53.4330000  49.1480000
  30.2370000  53.2180000  47.3880000  28.8500000  52.8490000  45.3920000
  26.5930000  50.7150000  53.4070000  25.5850000  50.4880000  51.6960000
  28.7800000  51.7490000  53.2300000  31.2290000  53.7900000  46.5560000
  29.8260000  53.4150000  44.5820000  28.0480000  52.5320000  44.9910000
  27.8010000  51.1980000  53.9920000  25.9250000  50.3230000  53.9570000
  29.5790000  52.0550000  53.6420000  32.0340000  54.1110000  46.9450000
  31.0500000  53.8910000  45.1810000  29.6620000  53.5400000  43.1600000
  27.9220000  51.1330000  54.9320000  32.0460000  54.4770000  44.3180000
  30.6410000  54.0910000  42.3980000  28.8620000  53.2340000  42.7480000
  31.8480000  54.5740000  42.9830000  32.8560000  54.8010000  44.6930000
  30.5200000  54.1560000  41.4570000  32.5170000  54.9650000  42.4330000
  30.9730000  60.8970000  47.3880000  31.9650000  61.4680000  46.5560000
  29.7420000  60.4090000  46.7830000  31.1530000  60.7950000  48.7750000
  31.7860000  61.5690000  45.1810000  32.7700000  61.7890000  46.9450000
  29.5860000  60.5280000  45.3920000  28.7610000  59.8510000  47.6140000
  30.1710000  60.2370000  49.6060000  31.9660000  61.1120000  49.1480000
  32.7820000  62.1550000  44.3180000  30.5620000  61.0930000  44.5820000
  28.7850000  60.2100000  44.9910000  27.9480000  59.5340000  47.2420000
  28.9410000  59.7490000  49.0020000  30.3280000  60.1180000  50.9980000
  32.5840000  62.2520000  42.9830000  33.5920000  62.4790000  44.6930000
  30.3980000  61.2190000  43.1600000  27.9490000  59.1780000  49.8340000
  29.3520000  59.5530000  51.8070000  31.1290000  60.4360000  51.3980000
  31.3770000  61.7700000  42.3980000  33.2530000  62.6440000  42.4330000
  29.5980000  60.9120000  42.7480000  27.1430000  58.8570000  49.4440000
  28.1270000  59.0770000  51.2090000  29.5160000  59.4270000  53.2300000
  31.2560000  61.8350000  41.4570000  27.1310000  58.4910000  52.0720000
  28.5370000  58.8760000  53.9920000  30.3160000  59.7340000  53.6420000
  27.3290000  58.3940000  53.4070000  26.3220000  58.1670000  51.6960000
  28.6580000  58.8110000  54.9320000  26.6610000  58.0020000  53.9570000
  29.5010000  45.5390000  47.3880000  30.4930000  46.1110000  46.5560000
  28.2700000  45.0510000  46.7830000  29.6800000  45.4370000  48.7750000
  30.3140000  46.2120000  45.1810000  31.2980000  46.4320000  46.9450000
  28.1140000  45.1710000  45.3920000  27.2890000  44.4940000  47.6140000
  28.6990000  44.8800000  49.6060000  30.4940000  45.7550000  49.1480000
  31.3100000  46.7980000  44.3180000  29.0900000  45.7360000  44.5820000
  27.3120000  44.8530000  44.9910000  26.4750000  44.1770000  47.2420000
  27.4680000  44.3920000  49.0020000  28.8560000  44.7610000  50.9980000
  31.1120000  46.8950000  42.9830000  32.1200000  47.1220000  44.6930000
  28.9260000  45.8610000  43.1600000  26.4760000  43.8210000  49.8340000
  27.8800000  44.1950000  51.8070000  29.6570000  45.0780000  51.3980000
  29.9050000  46.4130000  42.3980000  31.7810000  47.2870000  42.4330000
  28.1260000  45.5550000  42.7480000  25.6710000  43.5000000  49.4440000
  26.6550000  43.7200000  51.2090000  28.0430000  44.0700000  53.2300000
  29.7840000  46.4770000  41.4570000  25.6590000  43.1340000  52.0720000
  27.0650000  43.5190000  53.9920000  28.8430000  44.3770000  53.6420000
  25.8570000  43.0360000  53.4070000  24.8490000  42.8100000  51.6960000
  27.1860000  43.4540000  54.9320000  25.1890000  42.6450000  53.9570000
   6.2270000   4.9950000   5.2170000   7.2190000   5.5660000   4.3850000
   4.9960000   4.5070000   4.6130000   6.4060000   4.8930000   6.6050000
   7.0400000   5.6670000   3.0110000   8.0240000   5.8870000   4.7750000
   4.8400000   4.6260000   3.2210000   4.0150000   3.9490000   5.4440000
   5.4250000   4.3350000   7.4360000   7.2200000   5.2100000   6.9770000
   8.0360000   6.2530000   2.1470000   5.8150000   5.1910000   2.4120000
   4.0380000   4.3080000   2.8210000   3.2010000   3.6320000   5.0710000
   4.1940000   3.8470000   6.8310000   5.5810000   4.2160000   8.8270000
   7.8380000   6.3500000   0.8120000   8.8460000   6.5770000   2.5230000
   5.6520000   5.3170000   0.9890000   3.2020000   3.2760000   7.6630000
   4.6060000   3.6510000   9.6370000   6.3830000   4.5330000   9.2280000
   6.6310000   5.8680000   0.2270000   8.5070000   6.7420000   0.2620000
   4.8520000   5.0100000   0.5770000   2.3970000   2.9550000   7.2740000
   3.3810000   3.1750000   9.0380000   4.7690000   3.5250000  11.0590000
   6.5090000   5.9330000  -0.7130000   2.3850000   2.5890000   9.9010000
   3.7900000   2.9740000  11.8210000   5.5690000   3.8320000  11.4710000
   2.5830000   2.4920000  11.2370000   1.5750000   2.2650000   9.5260000
   3.9120000   2.9090000  12.7620000   1.9140000   2.1000000  11.7860000
   6.4030000  26.8830000   6.8310000   5.4110000  26.3120000   7.6630000
   7.6330000  27.3710000   7.4360000   6.2230000  26.9850000   5.4440000
   5.5890000  26.2100000   9.0380000   4.6050000  25.9900000   7.2740000
   7.7900000  27.2520000   8.8270000   8.6150000  27.9280000   6.6050000
   7.2040000  27.5420000   4.6130000   5.4100000  26.6680000   5.0710000
   4.5930000  25.6250000   9.9010000   6.8140000  26.6860000   9.6370000
   8.5910000  27.5690000   9.2280000   9.4280000  28.2460000   6.9770000
   8.4350000  28.0300000   5.2170000   7.0480000  27.6620000   3.2210000
   4.7910000  25.5270000  11.2370000   3.7830000  25.3010000   9.5260000
   6.9780000  26.5610000  11.0590000   9.4270000  28.6020000   4.3850000
   8.0240000  28.2270000   2.4120000   6.2470000  27.3440000   2.8210000
   5.9990000  26.0100000  11.8210000   4.1230000  25.1360000  11.7860000
   7.7780000  26.8680000  11.4710000  10.2320000  28.9230000   4.7750000
   9.2480000  28.7030000   3.0110000   7.8600000  28.3520000   0.9890000
   6.1200000  25.9450000  12.7620000  10.2440000  29.2890000   2.1470000
   8.8390000  28.9030000   0.2270000   7.0600000  28.0460000   0.5770000
  10.0460000  29.3860000   0.8120000  11.0540000  29.6130000   2.5230000
   8.7180000  28.9680000  -0.7130000  10.7150000  29.7780000   0.2620000
   5.1970000  10.4010000  34.9450000   4.2050000   9.8290000  35.7770000
   6.4280000  10.8890000  35.5490000   5.0170000  10.5030000  33.5570000
   4.3830000   9.7280000  37.1520000   3.3990000   9.5080000  35.3880000
   6.5840000  10.7700000  36.9410000   7.4090000  11.4460000  34.7190000
   5.9980000  11.0600000  32.7270000   4.2040000  10.1860000  33.1850000
   3.3870000   9.1420000  38.0150000   5.6080000  10.2040000  37.7510000
   7.3850000  11.0870000  37.3420000   8.2220000  11.7630000  35.0910000
   7.2290000  11.5480000  33.3310000   5.8420000  11.1800000  31.3350000
   3.5850000   9.0450000  39.3500000   2.5780000   8.8180000  37.6400000
   5.7720000  10.0790000  39.1730000   8.2210000  12.1200000  32.4990000
   6.8180000  11.7450000  30.5250000   5.0410000  10.8620000  30.9340000
   4.7930000   9.5280000  39.9350000   2.9170000   8.6540000  39.9000000
   6.5720000  10.3850000  39.5850000   9.0270000  12.4410000  32.8880000
   8.0430000  12.2210000  31.1240000   6.6540000  11.8700000  29.1030000
   4.9140000   9.4630000  40.8750000   9.0390000  12.8070000  30.2610000
   7.6330000  12.4210000  28.3410000   5.8540000  11.5640000  28.6910000
   8.8410000  12.9040000  28.9260000   9.8480000  13.1310000  30.6360000
   7.5120000  12.4860000  27.4010000   9.5090000  13.2960000  28.3760000
   8.2320000  18.1020000  61.4450000   9.2240000  18.6730000  60.6130000
   7.0010000  17.6140000  60.8400000   8.4110000  18.0000000  62.8320000
   9.0450000  18.7750000  59.2380000  10.0290000  18.9950000  61.0020000
   6.8450000  17.7330000  59.4490000   6.0200000  17.0570000  61.6710000
   7.4300000  17.4430000  63.6630000   9.2250000  18.3170000  63.2050000
  10.0410000  19.3600000  58.3750000   7.8210000  18.2990000  58.6390000
   6.0430000  17.4160000  59.0480000   5.2060000  16.7390000  61.2990000
   6.1990000  16.9550000  63.0580000   7.5860000  17.3230000  65.0550000
   9.8430000  19.4580000  57.0390000  10.8510000  19.6840000  58.7500000
   7.6570000  18.4240000  57.2160000   5.2070000  16.3830000  63.8910000
   6.6110000  16.7580000  65.8640000   8.3880000  17.6410000  65.4550000
   8.6360000  18.9750000  56.4550000  10.5120000  19.8490000  56.4900000
   6.8570000  18.1170000  56.8050000   4.4020000  16.0620000  63.5010000
   5.3860000  16.2820000  65.2650000   6.7740000  16.6330000  67.2870000
   8.5150000  19.0400000  55.5140000   4.3900000  15.6960000  66.1280000
   5.7950000  16.0820000  68.0490000   7.5740000  16.9390000  67.6990000
   4.5880000  15.5990000  67.4640000   3.5800000  15.3720000  65.7530000
   5.9170000  16.0170000  68.9890000   3.9200000  15.2070000  68.0130000
   4.6950000   7.1240000  20.8880000   3.7040000   6.5530000  21.7200000
   5.9260000   7.6120000  21.4920000   4.5160000   7.2260000  19.5010000
   3.8820000   6.4520000  23.0950000   2.8980000   6.2310000  21.3310000
   6.0830000   7.4930000  22.8840000   6.9070000   8.1690000  20.6620000
   5.4970000   7.7830000  18.6700000   3.7030000   6.9090000  19.1280000
   2.8860000   5.8660000  23.9580000   5.1070000   6.9270000  23.6940000
   6.8840000   7.8100000  23.2850000   7.7210000   8.4870000  21.0340000
   6.7280000   8.2710000  19.2740000   5.3410000   7.9030000  17.2780000
   3.0840000   5.7680000  25.2930000   2.0760000   5.5420000  23.5830000
   5.2710000   6.8020000  25.1160000   7.7200000   8.8430000  18.4420000
   6.3170000   8.4680000  16.4690000   4.5390000   7.5850000  16.8780000
   4.2920000   6.2510000  25.8780000   2.4160000   5.3770000  25.8430000
   6.0700000   7.1090000  25.5280000   8.5250000   9.1640000  18.8320000
   7.5410000   8.9440000  17.0670000   6.1530000   8.5930000  15.0460000
   4.4130000   6.1860000  26.8190000   8.5370000   9.5300000  16.2040000
   7.1320000   9.1440000  14.2840000   5.3530000   8.2870000  14.6340000
   8.3390000   9.6270000  14.8690000   9.3470000   9.8540000  16.5800000
   7.0110000   9.2090000  13.3440000   9.0080000  10.0190000  14.3190000
   5.6980000  13.6780000  49.0020000   4.7060000  13.1060000  49.8340000
   6.9290000  14.1660000  49.6060000   5.5190000  13.7800000  47.6140000
   4.8850000  13.0050000  51.2090000   3.9010000  12.7850000  49.4440000
   7.0850000  14.0460000  50.9980000   7.9100000  14.7230000  48.7750000
   6.5000000  14.3370000  46.7830000   4.7050000  13.4630000  47.2420000
   3.8890000  12.4190000  52.0720000   6.1090000  13.4810000  51.8070000
   7.8870000  14.3640000  51.3980000   8.7230000  15.0400000  49.1480000
   7.7310000  14.8250000  47.3880000   6.3430000  14.4570000  45.3920000
   4.0870000  12.3220000  53.4070000   3.0790000  12.0950000  51.6960000
   6.2730000  13.3560000  53.2300000   8.7220000  15.3970000  46.5560000
   7.3190000  15.0220000  44.5820000   5.5420000  14.1390000  44.9910000
   5.2940000  12.8050000  53.9920000   3.4180000  11.9300000  53.9570000
   7.0730000  13.6620000  53.6420000   9.5280000  15.7180000  46.9450000
   8.5440000  15.4980000  45.1810000   7.1550000  15.1470000  43.1600000
   5.4150000  12.7400000  54.9320000   9.5400000  16.0840000  44.3180000
   8.1340000  15.6980000  42.3980000   6.3560000  14.8410000  42.7480000
   9.3420000  16.1810000  42.9830000  10.3500000  16.4080000  44.6930000
   8.0130000  15.7630000  41.4570000  10.0100000  16.5720000  42.4330000
  28.5670000   8.2330000   5.0320000  29.5510000   8.2280000   4.0130000
  27.3230000   8.9620000   4.8000000  28.7370000   7.5530000   6.2450000
  29.3550000   8.8870000   2.8120000  30.3650000   7.7610000   4.1580000
  27.1520000   9.6390000   3.5760000  26.3470000   8.9670000   5.8040000
  27.7620000   7.5580000   7.2490000  29.5510000   7.0810000   6.3760000
  30.3400000   8.8710000   1.7750000  28.1250000   9.6120000   2.5860000
  26.3510000  10.1270000   3.4240000  25.5330000   9.4400000   5.6730000
  26.5170000   8.2870000   7.0170000  27.9320000   6.8810000   8.4730000
  30.1280000   9.5140000   0.6030000  31.1540000   8.4020000   1.9110000
  27.9530000  10.2720000   1.3320000  25.5330000   8.2920000   8.0360000
  26.9590000   6.9090000   9.4630000  28.7330000   6.3940000   8.6250000
  28.9110000  10.2290000   0.3740000  30.7950000   9.4910000  -0.0730000
  27.1500000  10.7530000   1.1660000  24.7190000   8.7600000   7.8910000
  25.7290000   7.6330000   9.2360000  27.1310000   6.2490000  10.7170000
  28.7720000  10.6740000  -0.4540000  24.7450000   7.6500000  10.2740000
  26.1740000   6.2920000  11.6750000  27.9340000   5.7680000  10.8820000
  24.9560000   7.0060000  11.4460000  23.9300000   8.1190000  10.1370000
  26.3120000   5.8470000  12.5030000  24.2890000   7.0300000  12.1220000
  28.0210000  18.1180000  49.1870000  27.0370000  18.1230000  50.2060000
  29.2650000  17.3890000  49.4190000  27.8510000  18.7980000  47.9740000
  27.2330000  17.4630000  51.4070000  26.2230000  18.5900000  50.0620000
  29.4360000  16.7120000  50.6430000  30.2410000  17.3840000  48.4150000
  28.8260000  18.7930000  46.9700000  27.0370000  19.2700000  47.8430000
  26.2480000  17.4800000  52.4440000  28.4630000  16.7390000  51.6330000
  30.2370000  16.2240000  50.7950000  31.0550000  16.9110000  48.5460000
  30.0710000  18.0640000  47.2020000  28.6560000  19.4700000  45.7460000
  26.4590000  16.8370000  53.6170000  25.4340000  17.9490000  52.3080000
  28.6350000  16.0790000  52.8870000  31.0550000  18.0590000  46.1830000
  29.6290000  19.4420000  44.7560000  27.8550000  19.9570000  45.5940000
  27.6770000  16.1220000  53.8460000  25.7930000  16.8600000  54.2930000
  29.4380000  15.5980000  53.0530000  31.8690000  17.5910000  46.3280000
  30.8590000  18.7180000  44.9830000  29.4570000  20.1020000  43.5030000
  27.8160000  15.6770000  54.6740000  31.8430000  18.7010000  43.9450000
  30.4140000  20.0590000  42.5440000  28.6540000  20.5830000  43.3370000
  31.6320000  19.3450000  42.7730000  32.6580000  18.2320000  44.0820000
  30.2760000  20.5040000  41.7160000  32.2990000  19.3210000  42.0970000
  28.5230000  21.3950000  63.2440000  27.5380000  21.4000000  64.2630000
  29.7670000  20.6660000  63.4760000  28.3520000  22.0750000  62.0310000
  27.7340000  20.7400000  65.4640000  26.7240000  21.8670000  64.1180000
  29.9370000  19.9890000  64.7000000  30.7420000  20.6600000  62.4720000
  29.3280000  22.0700000  61.0270000  27.5380000  22.5470000  61.9000000
  26.7500000  20.7570000  66.5010000  28.9640000  20.0160000  65.6900000
  30.7380000  19.5010000  64.8520000  31.5560000  20.1880000  62.6030000
  30.5720000  21.3400000  61.2590000  29.1570000  22.7460000  59.8030000
  26.9610000  20.1140000  67.6730000  25.9350000  21.2260000  66.3650000
  29.1360000  19.3560000  66.9440000  31.5560000  21.3360000  60.2400000
  30.1300000  22.7190000  58.8130000  28.3560000  23.2340000  59.6510000
  28.1790000  19.3990000  67.9020000  26.2940000  20.1370000  68.3490000
  29.9390000  18.8750000  67.1100000  32.3700000  20.8680000  60.3850000
  31.3610000  21.9950000  59.0400000  29.9580000  23.3790000  57.5590000
  28.3170000  18.9540000  68.7300000  32.3450000  21.9780000  58.0020000
  30.9160000  23.3360000  56.6010000  29.1550000  23.8600000  57.3940000
  32.1340000  22.6220000  56.8300000  33.1590000  21.5090000  58.1390000
  30.7770000  23.7810000  55.7730000  32.8000000  22.5980000  56.1540000
  29.0680000  11.5100000  19.0890000  30.0520000  11.5050000  18.0700000
  27.8240000  12.2390000  18.8570000  29.2390000  10.8300000  20.3020000
  29.8570000  12.1640000  16.8690000  30.8670000  11.0370000  18.2140000
  27.6530000  12.9160000  17.6320000  26.8480000  12.2440000  19.8600000
  28.2630000  10.8350000  21.3060000  30.0520000  10.3570000  20.4330000
  30.8410000  12.1470000  15.8320000  28.6260000  12.8890000  16.6430000
  26.8520000  13.4030000  17.4810000  26.0340000  12.7170000  19.7300000
  27.0190000  11.5640000  21.0740000  28.4330000  10.1580000  22.5300000
  30.6300000  12.7910000  14.6590000  31.6560000  11.6790000  15.9680000
  28.4540000  13.5480000  15.3890000  26.0340000  11.5690000  22.0930000
  27.4610000  10.1860000  23.5190000  29.2340000   9.6710000  22.6820000
  29.4120000  13.5050000  14.4300000  31.2960000  12.7680000  13.9830000
  27.6520000  14.0300000  15.2230000  25.2200000  12.0370000  21.9480000
  26.2300000  10.9100000  23.2930000  27.6320000   9.5260000  24.7730000
  29.2730000  13.9510000  13.6020000  25.2460000  10.9270000  24.3310000
  26.6750000   9.5690000  25.7320000  28.4350000   9.0440000  24.9390000
  25.4570000  10.2830000  25.5030000  24.4310000  11.3960000  24.1940000
  26.8130000   9.1240000  26.5600000  24.7900000  10.3060000  26.1790000
  27.5200000  14.8410000  35.1300000  26.5360000  14.8460000  36.1500000
  28.7640000  14.1120000  35.3620000  27.3490000  15.5210000  33.9170000
  26.7310000  14.1870000  37.3500000  25.7210000  15.3140000  36.0050000
  28.9350000  13.4350000  36.5870000  29.7400000  14.1070000  34.3590000
  28.3250000  15.5160000  32.9140000  26.5360000  15.9940000  33.7870000
  25.7470000  14.2040000  38.3870000  27.9620000  13.4620000  37.5760000
  29.7360000  12.9480000  36.7380000  30.5530000  13.6340000  34.4890000
  29.5690000  14.7870000  33.1460000  28.1550000  16.1930000  31.6890000
  25.9580000  13.5600000  39.5600000  24.9320000  14.6720000  38.2510000
  28.1340000  12.8020000  38.8300000  30.5540000  14.7820000  32.1260000
  29.1270000  16.1650000  30.7000000  27.3540000  16.6800000  31.5370000
  27.1760000  12.8460000  39.7890000  25.2920000  13.5830000  40.2360000
  28.9360000  12.3210000  38.9960000  31.3680000  14.3140000  32.2710000
  30.3580000  15.4410000  30.9260000  28.9550000  16.8250000  29.4460000
  27.3140000  12.4000000  40.6170000  31.3420000  15.4240000  29.8890000
  29.9130000  16.7820000  28.4870000  28.1530000  17.3070000  29.2800000
  31.1310000  16.0680000  28.7160000  32.1570000  14.9550000  30.0250000
  29.7750000  17.2270000  27.6590000  31.7980000  16.0450000  28.0400000
   7.9650000  19.2270000  33.3310000   8.9570000  19.7980000  32.4990000
   6.7350000  18.7390000  32.7270000   8.1450000  19.1250000  34.7190000
   8.7790000  19.8990000  31.1240000   9.7630000  20.1200000  32.8880000
   6.5780000  18.8580000  31.3350000   5.7530000  18.1820000  33.5570000
   7.1640000  18.5680000  35.5490000   8.9580000  19.4420000  35.0910000
   9.7750000  20.4850000  30.2610000   7.5540000  19.4240000  30.5250000
   5.7770000  18.5410000  30.9340000   4.9400000  17.8640000  33.1850000
   5.9330000  18.0800000  34.9450000   7.3200000  18.4480000  36.9410000
   9.5770000  20.5830000  28.9260000  10.5840000  20.8090000  30.6360000
   7.3900000  19.5490000  29.1030000   4.9410000  17.5080000  35.7770000
   6.3440000  17.8830000  37.7510000   8.1210000  18.7660000  37.3420000
   8.3690000  20.1000000  28.3410000  10.2450000  20.9740000  28.3760000
   6.5900000  19.2420000  28.6910000   4.1360000  17.1870000  35.3880000
   5.1200000  17.4070000  37.1520000   6.5080000  17.7580000  39.1730000
   8.2480000  20.1650000  27.4010000   4.1240000  16.8210000  38.0150000
   5.5290000  17.2060000  39.9350000   7.3080000  18.0640000  39.5850000
   4.3220000  16.7240000  39.3500000   3.3140000  16.4970000  37.6400000
   5.6500000  17.1420000  40.8750000   3.6530000  16.3320000  39.9000000
   6.4340000  21.3560000  49.0020000   5.4420000  20.7850000  49.8340000
   7.6650000  21.8440000  49.6060000   6.2550000  21.4580000  47.6140000
   5.6210000  20.6840000  51.2090000   4.6370000  20.4640000  49.4440000
   7.8210000  21.7250000  50.9980000   8.6460000  22.4020000  48.7750000
   7.2360000  22.0160000  46.7830000   5.4410000  21.1410000  47.2420000
   4.6250000  20.0980000  52.0720000   6.8450000  21.1600000  51.8070000
   8.6230000  22.0430000  51.3980000   9.4600000  22.7190000  49.1480000
   8.4670000  22.5040000  47.3880000   7.0790000  22.1350000  45.3920000
   4.8230000  20.0010000  53.4070000   3.8150000  19.7740000  51.6960000
   7.0090000  21.0340000  53.2300000   9.4590000  23.0750000  46.5560000
   8.0550000  22.7000000  44.5820000   6.2780000  21.8180000  44.9910000
   6.0300000  20.4830000  53.9920000   4.1540000  19.6090000  53.9570000
   7.8090000  21.3410000  53.6420000  10.2640000  23.3960000  46.9450000
   9.2800000  23.1760000  45.1810000   7.8920000  22.8260000  43.1600000
   6.1510000  20.4180000  54.9320000  10.2760000  23.7620000  44.3180000
   8.8710000  23.3770000  42.3980000   7.0920000  22.5190000  42.7480000
  10.0780000  23.8590000  42.9830000  11.0860000  24.0860000  44.6930000
   8.7490000  23.4420000  41.4570000  10.7460000  24.2510000  42.4330000
   8.9680000  25.7810000  61.4450000   9.9600000  26.3520000  60.6130000
   7.7370000  25.2930000  60.8400000   9.1470000  25.6790000  62.8320000
   9.7810000  26.4530000  59.2380000  10.7650000  26.6730000  61.0020000
   7.5810000  25.4120000  59.4490000   6.7560000  24.7350000  61.6710000
   8.1660000  25.1210000  63.6630000   9.9610000  25.9960000  63.2050000
  10.7770000  27.0390000  58.3750000   8.5570000  25.9770000  58.6390000
   6.7790000  25.0940000  59.0480000   5.9420000  24.4180000  61.2990000
   6.9350000  24.6330000  63.0580000   8.3230000  25.0020000  65.0550000
  10.5790000  27.1360000  57.0390000  11.5870000  27.3630000  58.7500000
   8.3930000  26.1020000  57.2160000   5.9430000  24.0620000  63.8910000
   7.3470000  24.4370000  65.8640000   9.1240000  25.3190000  65.4550000
   9.3720000  26.6540000  56.4550000  11.2480000  27.5280000  56.4900000
   7.5930000  25.7960000  56.8050000   5.1380000  23.7410000  63.5010000
   6.1220000  23.9610000  65.2650000   7.5100000  24.3110000  67.2870000
   9.2510000  26.7180000  55.5140000   5.1260000  23.3750000  66.1280000
   6.5320000  23.7600000  68.0490000   8.3100000  24.6180000  67.6990000
   5.3240000  23.2780000  67.4640000   4.3160000  23.0510000  65.7530000
   6.6530000  23.6950000  68.9890000   4.6560000  22.8860000  68.0130000
   5.4320000  14.8030000  20.8880000   4.4400000  14.2310000  21.7200000
   6.6620000  15.2910000  21.4920000   5.2520000  14.9050000  19.5010000
   4.6180000  14.1300000  23.0950000   3.6340000  13.9100000  21.3310000
   6.8190000  15.1710000  22.8840000   7.6440000  15.8480000  20.6620000
   6.2330000  15.4620000  18.6700000   4.4390000  14.5880000  19.1280000
   3.6220000  13.5440000  23.9580000   5.8430000  14.6060000  23.6940000
   7.6200000  15.4890000  23.2850000   8.4570000  16.1650000  21.0340000
   7.4640000  15.9500000  19.2740000   6.0770000  15.5810000  17.2780000
   3.8200000  13.4470000  25.2930000   2.8130000  13.2200000  23.5830000
   6.0070000  14.4810000  25.1160000   8.4560000  16.5220000  18.4420000
   7.0530000  16.1470000  16.4690000   5.2760000  15.2640000  16.8780000
   5.0280000  13.9300000  25.8780000   3.1520000  13.0550000  25.8430000
   6.8070000  14.7870000  25.5280000   9.2610000  16.8430000  18.8320000
   8.2770000  16.6230000  17.0670000   6.8890000  16.2720000  15.0460000
   5.1490000  13.8650000  26.8190000   9.2730000  17.2090000  16.2040000
   7.8680000  16.8230000  14.2840000   6.0890000  15.9660000  14.6340000
   9.0750000  17.3060000  14.8690000  10.0830000  17.5330000  16.5800000
   7.7470000  16.8880000  13.3440000   9.7440000  17.6970000  14.3190000
   4.9300000  11.5260000   6.8310000   3.9380000  10.9540000   7.6630000
   6.1610000  12.0140000   7.4360000   4.7510000  11.6280000   5.4440000
   4.1170000  10.8530000   9.0380000   3.1330000  10.6330000   7.2740000
   6.3180000  11.8940000   8.8270000   7.1420000  12.5710000   6.6050000
   5.7320000  12.1850000   4.6130000   3.9370000  11.3110000   5.0710000
   3.1210000  10.2670000   9.9010000   5.3420000  11.3290000   9.6370000
   7.1190000  12.2120000   9.2280000   7.9560000  12.8880000   6.9770000
   6.9630000  12.6730000   5.2170000   5.5760000  12.3050000   3.2210000
   3.3190000  10.1700000  11.2370000   2.3110000   9.9430000   9.5260000
   5.5050000  11.2040000  11.0590000   7.9550000  13.2450000   4.3850000
   6.5520000  12.8700000   2.4120000   4.7740000  11.9870000   2.8210000
   4.5260000  10.6530000  11.8210000   2.6510000   9.7780000  11.7860000
   6.3050000  11.5100000  11.4710000   8.7600000  13.5660000   4.7750000
   7.7760000  13.3460000   3.0110000   6.3880000  12.9950000   0.9890000
   4.6480000  10.5880000  12.7620000   8.7720000  13.9320000   2.1470000
   7.3670000  13.5460000   0.2270000   5.5880000  12.6890000   0.5770000
   8.5740000  14.0290000   0.8120000   9.5820000  14.2560000   2.5230000
   7.2460000  13.6110000  -0.7130000   9.2430000  14.4210000   0.2620000
  29.8040000  19.1890000  19.0890000  30.7880000  19.1840000  18.0700000
  28.5600000  19.9180000  18.8570000  29.9750000  18.5080000  20.3020000
  30.5930000  19.8430000  16.8690000  31.6030000  18.7160000  18.2140000
  28.3900000  20.5940000  17.6320000  27.5840000  19.9230000  19.8600000
  28.9990000  18.5140000  21.3060000  30.7880000  18.0360000  20.4330000
  31.5770000  19.8260000  15.8320000  29.3620000  20.5670000  16.6430000
  27.5880000  21.0820000  17.4810000  26.7710000  20.3950000  19.7300000
  27.7550000  19.2430000  21.0740000  29.1690000  17.8370000  22.5300000
  31.3660000  20.4700000  14.6590000  32.3920000  19.3570000  15.9680000
  29.1900000  21.2270000  15.3890000  26.7700000  19.2480000  22.0930000
  28.1970000  17.8640000  23.5190000  29.9710000  17.3490000  22.6820000
  30.1480000  21.1840000  14.4300000  32.0320000  20.4460000  13.9830000
  28.3880000  21.7080000  15.2230000  25.9560000  19.7150000  21.9480000
  26.9660000  18.5880000  23.2930000  28.3690000  17.2040000  24.7730000
  30.0100000  21.6290000  13.6020000  25.9820000  18.6050000  24.3310000
  27.4110000  17.2470000  25.7320000  29.1710000  16.7230000  24.9390000
  26.1930000  17.9620000  25.5030000  25.1670000  19.0740000  24.1940000
  27.5490000  16.8020000  26.5600000  25.5270000  17.9850000  26.1790000
  28.2560000  22.5200000  35.1300000  27.2720000  22.5250000  36.1500000
  29.5000000  21.7900000  35.3620000  28.0860000  23.2000000  33.9170000
  27.4670000  21.8650000  37.3500000  26.4570000  22.9920000  36.0050000
  29.6710000  21.1140000  36.5870000  30.4760000  21.7850000  34.3590000
  29.0610000  23.1950000  32.9140000  27.2720000  23.6720000  33.7870000
  26.4830000  21.8820000  38.3870000  28.6980000  21.1410000  37.5760000
  30.4720000  20.6260000  36.7380000  31.2900000  21.3130000  34.4890000
  30.3050000  22.4650000  33.1460000  28.8910000  23.8710000  31.6890000
  26.6940000  21.2390000  39.5600000  25.6680000  22.3510000  38.2510000
  28.8700000  20.4810000  38.8300000  31.2900000  22.4610000  32.1260000
  29.8630000  23.8440000  30.7000000  28.0900000  24.3590000  31.5370000
  27.9120000  20.5240000  39.7890000  26.0280000  21.2620000  40.2360000
  29.6720000  20.0000000  38.9960000  32.1040000  21.9930000  32.2710000
  31.0940000  23.1200000  30.9260000  29.6920000  24.5040000  29.4460000
  28.0510000  20.0790000  40.6170000  32.0780000  23.1030000  29.8890000
  30.6490000  24.4610000  28.4870000  28.8890000  24.9850000  29.2800000
  31.8670000  23.7460000  28.7160000  32.8930000  22.6340000  30.0250000
  30.5110000  24.9060000  27.6590000  32.5340000  23.7230000  28.0400000
  29.2590000  29.0730000  63.2440000  28.2740000  29.0780000  64.2630000
  30.5030000  28.3440000  63.4760000  29.0880000  29.7530000  62.0310000
  28.4700000  28.4190000  65.4640000  27.4600000  29.5460000  64.1180000
  30.6730000  27.6670000  64.7000000  31.4780000  28.3390000  62.4720000
  30.0640000  29.7480000  61.0270000  28.2740000  30.2260000  61.9000000
  27.4860000  28.4360000  66.5010000  29.7010000  27.6950000  65.6900000
  31.4740000  27.1800000  64.8520000  32.2920000  27.8670000  62.6030000
  31.3080000  29.0190000  61.2590000  29.8930000  30.4250000  59.8030000
  27.6970000  27.7920000  67.6730000  26.6710000  28.9050000  66.3650000
  29.8720000  27.0350000  66.9440000  32.2920000  29.0140000  60.2400000
  30.8660000  30.3980000  58.8130000  29.0920000  30.9120000  59.6510000
  28.9150000  27.0780000  67.9020000  27.0300000  27.8150000  68.3490000
  30.6750000  26.5540000  67.1100000  33.1070000  28.5470000  60.3850000
  32.0970000  29.6730000  59.0400000  30.6940000  31.0580000  57.5590000
  29.0530000  26.6330000  68.7300000  33.0810000  29.6570000  58.0020000
  31.6520000  31.0150000  56.6010000  29.8920000  31.5390000  57.3940000
  32.8700000  30.3000000  56.8300000  33.8960000  29.1880000  58.1390000
  31.5130000  31.4600000  55.7730000  33.5360000  30.2770000  56.1540000
  28.7570000  25.7960000  49.1870000  27.7730000  25.8010000  50.2060000
  30.0010000  25.0670000  49.4190000  28.5870000  26.4770000  47.9740000
  27.9690000  25.1420000  51.4070000  26.9590000  26.2690000  50.0620000
  30.1720000  24.3910000  50.6430000  30.9770000  25.0620000  48.4150000
  29.5630000  26.4710000  46.9700000  27.7730000  26.9490000  47.8430000
  26.9840000  25.1590000  52.4440000  29.1990000  24.4180000  51.6330000
  30.9730000  23.9030000  50.7950000  31.7910000  24.5900000  48.5460000
  30.8070000  25.7420000  47.2020000  29.3920000  27.1480000  45.7460000
  27.1960000  24.5150000  53.6170000  26.1700000  25.6280000  52.3080000
  29.3710000  23.7580000  52.8870000  31.7910000  25.7370000  46.1830000
  30.3650000  27.1210000  44.7560000  28.5910000  27.6360000  45.5940000
  28.4130000  23.8010000  53.8460000  26.5290000  24.5390000  54.2930000
  30.1740000  23.2770000  53.0530000  32.6050000  25.2700000  46.3280000
  31.5950000  26.3970000  44.9830000  30.1930000  27.7810000  43.5030000
  28.5520000  23.3560000  54.6740000  32.5800000  26.3800000  43.9450000
  31.1510000  27.7380000  42.5440000  29.3900000  28.2620000  43.3370000
  32.3680000  27.0230000  42.7730000  33.3940000  25.9110000  44.0820000
  31.0120000  28.1830000  41.7160000  33.0350000  27.0000000  42.0970000
   6.1680000  22.4810000  20.8880000   5.1760000  21.9100000  21.7200000
   7.3990000  22.9690000  21.4920000   5.9880000  22.5830000  19.5010000
   5.3540000  21.8090000  23.0950000   4.3700000  21.5890000  21.3310000
   7.5550000  22.8500000  22.8840000   8.3800000  23.5270000  20.6620000
   6.9690000  23.1410000  18.6700000   5.1750000  22.2660000  19.1280000
   4.3580000  21.2230000  23.9580000   6.5790000  22.2850000  23.6940000
   8.3560000  23.1680000  23.2850000   9.1930000  23.8440000  21.0340000
   8.2000000  23.6290000  19.2740000   6.8130000  23.2600000  17.2780000
   4.5560000  21.1260000  25.2930000   3.5490000  20.8990000  23.5830000
   6.7430000  22.1590000  25.1160000   9.1920000  24.2000000  18.4420000
   7.7890000  23.8250000  16.4690000   6.0120000  22.9420000  16.8780000
   5.7640000  21.6080000  25.8780000   3.8880000  20.7340000  25.8430000
   7.5430000  22.4660000  25.5280000   9.9980000  24.5210000  18.8320000
   9.0140000  24.3010000  17.0670000   7.6250000  23.9510000  15.0460000
   5.8850000  21.5430000  26.8190000  10.0100000  24.8870000  16.2040000
   8.6040000  24.5020000  14.2840000   6.8250000  23.6440000  14.6340000
   9.8120000  24.9840000  14.8690000  10.8190000  25.2110000  16.5800000
   8.4830000  24.5670000  13.3440000  10.4800000  25.3760000  14.3190000
   5.6660000  19.2050000   6.8310000   4.6750000  18.6330000   7.6630000
   6.8970000  19.6920000   7.4360000   5.4870000  19.3060000   5.4440000
   4.8530000  18.5320000   9.0380000   3.8690000  18.3120000   7.2740000
   7.0540000  19.5730000   8.8270000   7.8780000  20.2500000   6.6050000
   6.4680000  19.8640000   4.6130000   4.6740000  18.9890000   5.0710000
   3.8570000  17.9460000   9.9010000   6.0780000  19.0080000   9.6370000
   7.8550000  19.8910000   9.2280000   8.6920000  20.5670000   6.9770000
   7.6990000  20.3520000   5.2170000   6.3120000  19.9830000   3.2210000
   4.0550000  17.8490000  11.2370000   3.0470000  17.6220000   9.5260000
   6.2420000  18.8830000  11.0590000   8.6910000  20.9230000   4.3850000
   7.2880000  20.5480000   2.4120000   5.5100000  19.6660000   2.8210000
   5.2630000  18.3310000  11.8210000   3.3870000  17.4570000  11.7860000
   7.0410000  19.1890000  11.4710000   9.4960000  21.2440000   4.7750000
   8.5120000  21.0240000   3.0110000   7.1240000  20.6740000   0.9890000
   5.3840000  18.2670000  12.7620000   9.5080000  21.6100000   2.1470000
   8.1030000  21.2250000   0.2270000   6.3240000  20.3670000   0.5770000
   9.3100000  21.7070000   0.8120000  10.3180000  21.9340000   2.5230000
   7.9820000  21.2900000  -0.7130000   9.9790000  22.0990000   0.2620000
   7.1700000  29.0350000  49.0020000   6.1780000  28.4630000  49.8340000
   8.4010000  29.5230000  49.6060000   6.9910000  29.1370000  47.6140000
   6.3570000  28.3620000  51.2090000   5.3730000  28.1420000  49.4440000
   8.5570000  29.4040000  50.9980000   9.3820000  30.0800000  48.7750000
   7.9720000  29.6940000  46.7830000   6.1770000  28.8200000  47.2420000
   5.3610000  27.7770000  52.0720000   7.5820000  28.8380000  51.8070000
   9.3590000  29.7210000  51.3980000  10.1960000  30.3970000  49.1480000
   9.2030000  30.1820000  47.3880000   7.8160000  29.8140000  45.3920000
   5.5590000  27.6790000  53.4070000   4.5510000  27.4530000  51.6960000
   7.7450000  28.7130000  53.2300000  10.1950000  30.7540000  46.5560000
   8.7910000  30.3790000  44.5820000   7.0140000  29.4960000  44.9910000
   6.7660000  28.1620000  53.9920000   4.8910000  27.2880000  53.9570000
   8.5450000  29.0190000  53.6420000  11.0000000  31.0750000  46.9450000
  10.0160000  30.8550000  45.1810000   8.6280000  30.5040000  43.1600000
   6.8880000  28.0970000  54.9320000  11.0120000  31.4410000  44.3180000
   9.6070000  31.0550000  42.3980000   7.8280000  30.1980000  42.7480000
  10.8140000  31.5380000  42.9830000  11.8220000  31.7650000  44.6930000
   9.4860000  31.1200000  41.4570000  11.4830000  31.9300000  42.4330000
   9.7040000  33.4590000  61.4450000  10.6960000  34.0310000  60.6130000
   8.4730000  32.9710000  60.8400000   9.8830000  33.3570000  62.8320000
  10.5170000  34.1320000  59.2380000  11.5010000  34.3520000  61.0020000
   8.3170000  33.0910000  59.4490000   7.4920000  32.4140000  61.6710000
   8.9020000  32.8000000  63.6630000  10.6970000  33.6740000  63.2050000
  11.5130000  34.7180000  58.3750000   9.2930000  33.6560000  58.6390000
   7.5150000  32.7730000  59.0480000   6.6790000  32.0970000  61.2990000
   7.6710000  32.3120000  63.0580000   9.0590000  32.6800000  65.0550000
  11.3150000  34.8150000  57.0390000  12.3230000  35.0420000  58.7500000
   9.1290000  33.7810000  57.2160000   6.6800000  31.7400000  63.8910000
   8.0830000  32.1150000  65.8640000   9.8600000  32.9980000  65.4550000
  10.1080000  34.3320000  56.4550000  11.9840000  35.2070000  56.4900000
   8.3290000  33.4750000  56.8050000   5.8740000  31.4190000  63.5010000
   6.8580000  31.6390000  65.2650000   8.2470000  31.9900000  67.2870000
   9.9870000  34.3970000  55.5140000   5.8620000  31.0530000  66.1280000
   7.2680000  31.4390000  68.0490000   9.0460000  32.2960000  67.6990000
   6.0600000  30.9560000  67.4640000   5.0520000  30.7290000  65.7530000
   7.3890000  31.3740000  68.9890000   5.3920000  30.5640000  68.0130000
   6.6690000  25.7580000  34.9450000   5.6770000  25.1870000  35.7770000
   7.9000000  26.2460000  35.5490000   6.4900000  25.8600000  33.5570000
   5.8560000  25.0860000  37.1520000   4.8720000  24.8650000  35.3880000
   8.0560000  26.1270000  36.9410000   8.8810000  26.8030000  34.7190000
   7.4710000  26.4170000  32.7270000   5.6760000  25.5430000  33.1850000
   4.8600000  24.5000000  38.0150000   7.0800000  25.5610000  37.7510000
   8.8580000  26.4440000  37.3420000   9.6940000  27.1210000  35.0910000
   8.7020000  26.9050000  33.3310000   7.3140000  26.5370000  31.3350000
   5.0580000  24.4020000  39.3500000   4.0500000  24.1760000  37.6400000
   7.2440000  25.4360000  39.1730000   9.6930000  27.4770000  32.4990000
   8.2900000  27.1020000  30.5250000   6.5130000  26.2190000  30.9340000
   6.2650000  24.8850000  39.9350000   4.3890000  24.0110000  39.9000000
   8.0440000  25.7430000  39.5850000  10.4990000  27.7980000  32.8880000
   9.5150000  27.5780000  31.1240000   8.1260000  27.2270000  29.1030000
   6.3860000  24.8200000  40.8750000  10.5110000  28.1640000  30.2610000
   9.1050000  27.7790000  28.3410000   7.3270000  26.9210000  28.6910000
  10.3130000  28.2610000  28.9260000  11.3210000  28.4880000  30.6360000
   8.9840000  27.8430000  27.4010000  10.9810000  28.6530000  28.3760000
  30.5400000  26.8670000  19.0890000  31.5250000  26.8620000  18.0700000
  29.2960000  27.5960000  18.8570000  30.7110000  26.1870000  20.3020000
  31.3290000  27.5220000  16.8690000  32.3390000  26.3950000  18.2140000
  29.1260000  28.2730000  17.6320000  28.3200000  27.6010000  19.8600000
  29.7350000  26.1920000  21.3060000  31.5240000  25.7150000  20.4330000
  32.3130000  27.5050000  15.8320000  30.0980000  28.2460000  16.6430000
  28.3250000  28.7610000  17.4810000  27.5070000  28.0740000  19.7300000
  28.4910000  26.9210000  21.0740000  29.9050000  25.5160000  22.5300000
  32.1020000  28.1480000  14.6590000  33.1280000  27.0360000  15.9680000
  29.9260000  28.9060000  15.3890000  27.5070000  26.9260000  22.0930000
  28.9330000  25.5430000  23.5190000  30.7070000  25.0280000  22.6820000
  30.8840000  28.8630000  14.4300000  32.7680000  28.1250000  13.9830000
  29.1240000  29.3870000  15.2230000  26.6920000  27.3940000  21.9480000
  27.7020000  26.2670000  23.2930000  29.1050000  24.8830000  24.7730000
  30.7460000  29.3080000  13.6020000  26.7180000  26.2840000  24.3310000
  28.1470000  24.9260000  25.7320000  29.9070000  24.4020000  24.9390000
  26.9290000  25.6400000  25.5030000  25.9030000  26.7530000  24.1940000
  28.2850000  24.4810000  26.5600000  26.2630000  25.6640000  26.1790000
  28.9920000  30.1980000  35.1300000  28.0080000  30.2030000  36.1500000
  30.2360000  29.4690000  35.3620000  28.8220000  30.8780000  33.9170000
  28.2030000  29.5440000  37.3500000  27.1940000  30.6710000  36.0050000
  30.4070000  28.7920000  36.5870000  31.2120000  29.4640000  34.3590000
  29.7970000  30.8730000  32.9140000  28.0080000  31.3510000  33.7870000
  27.2190000  29.5610000  38.3870000  29.4340000  28.8200000  37.5760000
  31.2080000  28.3050000  36.7380000  32.0260000  28.9910000  34.4890000
  31.0410000  30.1440000  33.1460000  29.6270000  31.5500000  31.6890000
  27.4300000  28.9170000  39.5600000  26.4050000  30.0300000  38.2510000
  29.6060000  28.1600000  38.8300000  32.0260000  30.1390000  32.1260000
  30.6000000  31.5230000  30.7000000  28.8260000  32.0370000  31.5370000
  28.6480000  28.2030000  39.7890000  26.7640000  28.9400000  40.2360000
  30.4090000  27.6790000  38.9960000  32.8400000  29.6710000  32.2710000
  31.8300000  30.7980000  30.9260000  30.4280000  32.1830000  29.4460000
  28.7870000  27.7580000  40.6170000  32.8140000  30.7820000  29.8890000
  31.3850000  32.1390000  28.4870000  29.6250000  32.6640000  29.2800000
  32.6030000  31.4250000  28.7160000  33.6290000  30.3130000  30.0250000
  31.2470000  32.5850000  27.6590000  33.2700000  31.4020000  28.0400000
  30.0390000  23.5900000   5.0320000  31.0230000  23.5850000   4.0130000
  28.7950000  24.3190000   4.8000000  30.2100000  22.9100000   6.2450000
  30.8280000  24.2450000   2.8120000  31.8380000  23.1180000   4.1580000
  28.6240000  24.9960000   3.5760000  27.8190000  24.3250000   5.8040000
  29.2340000  22.9150000   7.2490000  31.0230000  22.4380000   6.3760000
  31.8120000  24.2280000   1.7750000  29.5970000  24.9690000   2.5860000
  27.8230000  25.4840000   3.4240000  27.0050000  24.7970000   5.6730000
  27.9900000  23.6450000   7.0170000  29.4040000  22.2390000   8.4730000
  31.6010000  24.8710000   0.6030000  32.6270000  23.7590000   1.9110000
  29.4250000  25.6290000   1.3320000  27.0050000  23.6490000   8.0360000
  28.4320000  22.2660000   9.4630000  30.2050000  21.7510000   8.6250000
  30.3830000  25.5860000   0.3740000  32.2670000  24.8480000  -0.0730000
  28.6230000  26.1100000   1.1660000  26.1910000  24.1170000   7.8910000
  27.2010000  22.9900000   9.2360000  28.6030000  21.6060000  10.7170000
  30.2440000  26.0310000  -0.4540000  26.2170000  23.0070000  10.2740000
  27.6460000  21.6490000  11.6750000  29.4060000  21.1250000  10.8820000
  26.4280000  22.3640000  11.4460000  25.4020000  23.4760000  10.1370000
  27.7840000  21.2040000  12.5030000  25.7610000  22.3870000  12.1220000
  29.9950000  36.7520000  63.2440000  29.0100000  36.7570000  64.2630000
  31.2390000  36.0230000  63.4760000  29.8240000  37.4320000  62.0310000
  29.2060000  36.0980000  65.4640000  28.1960000  37.2240000  64.1180000
  31.4090000  35.3460000  64.7000000  32.2150000  36.0180000  62.4720000
  30.8000000  37.4270000  61.0270000  29.0110000  37.9040000  61.9000000
  28.2220000  36.1140000  66.5010000  30.4370000  35.3730000  65.6900000
  32.2100000  34.8580000  64.8520000  33.0280000  35.5450000  62.6030000
  32.0440000  36.6980000  61.2590000  30.6290000  38.1040000  59.8030000
  28.4330000  35.4710000  67.6730000  27.4070000  36.5830000  66.3650000
  30.6090000  34.7130000  66.9440000  33.0280000  36.6930000  60.2400000
  31.6020000  38.0760000  58.8130000  29.8280000  38.5910000  59.6510000
  29.6510000  34.7560000  67.9020000  27.7660000  35.4940000  68.3490000
  31.4110000  34.2320000  67.1100000  33.8430000  36.2250000  60.3850000
  32.8330000  37.3520000  59.0400000  31.4300000  38.7360000  57.5590000
  29.7890000  34.3110000  68.7300000  33.8170000  37.3350000  58.0020000
  32.3880000  38.6930000  56.6010000  30.6280000  39.2170000  57.3940000
  33.6060000  37.9790000  56.8300000  34.6320000  36.8660000  58.1390000
  32.2500000  39.1380000  55.7730000  34.2720000  37.9550000  56.1540000
  29.4930000  33.4750000  49.1870000  28.5090000  33.4800000  50.2060000
  30.7380000  32.7460000  49.4190000  29.3230000  34.1550000  47.9740000
  28.7050000  32.8210000  51.4070000  27.6950000  33.9480000  50.0620000
  30.9080000  32.0690000  50.6430000  31.7130000  32.7410000  48.4150000
  30.2990000  34.1500000  46.9700000  28.5090000  34.6280000  47.8430000
  27.7210000  32.8380000  52.4440000  29.9350000  32.0960000  51.6330000
  31.7090000  31.5820000  50.7950000  32.5270000  32.2680000  48.5460000
  31.5430000  33.4210000  47.2020000  30.1280000  34.8270000  45.7460000
  27.9320000  32.1940000  53.6170000  26.9060000  33.3060000  52.3080000
  30.1070000  31.4370000  52.8870000  32.5270000  33.4160000  46.1830000
  31.1010000  34.8000000  44.7560000  29.3270000  35.3140000  45.5940000
  29.1500000  31.4800000  53.8460000  27.2650000  32.2170000  54.2930000
  30.9100000  30.9550000  53.0530000  33.3410000  32.9480000  46.3280000
  32.3310000  34.0750000  44.9830000  30.9290000  35.4590000  43.5030000
  29.2880000  31.0340000  54.6740000  33.3160000  34.0580000  43.9450000
  31.8870000  35.4160000  42.5440000  30.1260000  35.9410000  43.3370000
  33.1050000  34.7020000  42.7730000  34.1300000  33.5890000  44.0820000
  31.7480000  35.8610000  41.7160000  33.7710000  34.6790000  42.0970000
  31.4350000  57.6360000  21.0740000  30.4510000  57.6410000  22.0930000
  32.6800000  56.9070000  21.3060000  31.2650000  58.3160000  19.8600000
  30.6470000  56.9810000  23.2930000  29.6370000  58.1080000  21.9480000
  32.8500000  56.2300000  22.5300000  33.6550000  56.9010000  20.3020000
  32.2410000  58.3110000  18.8570000  30.4510000  58.7880000  19.7300000
  29.6620000  56.9980000  24.3310000  31.8770000  56.2570000  23.5190000
  33.6510000  55.7420000  22.6820000  34.4690000  56.4290000  20.4330000
  33.4850000  57.5820000  19.0890000  32.0700000  58.9870000  17.6320000
  29.8740000  56.3550000  25.5030000  28.8480000  57.4670000  24.1940000
  32.0490000  55.5970000  24.7730000  34.4690000  57.5770000  18.0700000
  33.0430000  58.9600000  16.6430000  31.2690000  59.4750000  17.4810000
  31.0920000  55.6400000  25.7320000  29.2070000  56.3780000  26.1790000
  32.8520000  55.1160000  24.9390000  35.2830000  57.1090000  18.2140000
  34.2730000  58.2360000  16.8690000  32.8710000  59.6200000  15.3890000
  31.2300000  55.1950000  26.5600000  35.2580000  58.2190000  15.8320000
  33.8290000  59.5770000  14.4300000  32.0680000  60.1010000  15.2230000
  35.0460000  58.8630000  14.6590000  36.0720000  57.7500000  15.9680000
  33.6900000  60.0220000  13.6020000  35.7130000  58.8390000  13.9830000
  31.9370000  60.9130000  35.1300000  30.9520000  60.9170000  36.1500000
  33.1810000  60.1830000  35.3620000  31.7660000  61.5930000  33.9170000
  31.1480000  60.2580000  37.3500000  30.1380000  61.3850000  36.0050000
  33.3510000  59.5070000  36.5870000  34.1570000  60.1780000  34.3590000
  32.7420000  61.5880000  32.9140000  30.9520000  62.0650000  33.7870000
  30.1640000  60.2750000  38.3870000  32.3790000  59.5340000  37.5760000
  34.1520000  59.0190000  36.7380000  34.9700000  59.7060000  34.4890000
  33.9860000  60.8580000  33.1460000  32.5710000  62.2640000  31.6890000
  30.3750000  59.6320000  39.5600000  29.3490000  60.7440000  38.2510000
  32.5500000  58.8740000  38.8300000  34.9700000  60.8530000  32.1260000
  33.5440000  62.2370000  30.7000000  31.7700000  62.7520000  31.5370000
  31.5930000  58.9170000  39.7890000  29.7080000  59.6550000  40.2360000
  33.3530000  58.3930000  38.9960000  35.7850000  60.3860000  32.2710000
  34.7750000  61.5130000  30.9260000  33.3720000  62.8970000  29.4460000
  31.7310000  58.4720000  40.6170000  35.7590000  61.4960000  29.8890000
  34.3300000  62.8540000  28.4870000  32.5700000  63.3780000  29.2800000
  35.5480000  62.1390000  28.7160000  36.5740000  61.0270000  30.0250000
  34.1910000  63.2990000  27.6590000  36.2140000  62.1160000  28.0400000
  32.9830000  54.3050000   5.0320000  33.9680000  54.3000000   4.0130000
  31.7390000  55.0340000   4.8000000  33.1540000  53.6250000   6.2450000
  33.7720000  54.9590000   2.8120000  34.7820000  53.8320000   4.1580000
  31.5690000  55.7110000   3.5760000  30.7640000  55.0390000   5.8040000
  32.1780000  53.6300000   7.2490000  33.9680000  53.1520000   6.3760000
  34.7560000  54.9420000   1.7750000  32.5410000  55.6830000   2.5860000
  30.7680000  56.1980000   3.4240000  29.9500000  55.5110000   5.6730000
  30.9340000  54.3590000   7.0170000  32.3490000  52.9530000   8.4730000
  34.5450000  55.5860000   0.6030000  35.5710000  54.4730000   1.9110000
  32.3700000  56.3430000   1.3320000  29.9500000  54.3640000   8.0360000
  31.3760000  52.9800000   9.4630000  33.1500000  52.4660000   8.6250000
  33.3270000  56.3000000   0.3740000  35.2120000  55.5630000  -0.0730000
  31.5670000  56.8240000   1.1660000  29.1360000  54.8310000   7.8910000
  30.1450000  53.7050000   9.2360000  31.5480000  52.3200000  10.7170000
  33.1890000  56.7450000  -0.4540000  29.1610000  53.7210000  10.2740000
  30.5900000  52.3630000  11.6750000  32.3510000  51.8390000  10.8820000
  29.3720000  53.0780000  11.4460000  28.3470000  54.1900000  10.1370000
  30.7290000  51.9180000  12.5030000  28.7060000  53.1010000  12.1220000
  32.9390000  67.4660000  63.2440000  31.9550000  67.4710000  64.2630000
  34.1830000  66.7370000  63.4760000  32.7690000  68.1460000  62.0310000
  32.1500000  66.8120000  65.4640000  31.1410000  67.9390000  64.1180000
  34.3540000  66.0600000  64.7000000  35.1590000  66.7320000  62.4720000
  33.7440000  68.1410000  61.0270000  31.9550000  68.6190000  61.9000000
  31.1660000  66.8290000  66.5010000  33.3810000  66.0880000  65.6900000
  35.1550000  65.5730000  64.8520000  35.9730000  66.2590000  62.6030000
  34.9880000  67.4120000  61.2590000  33.5740000  68.8180000  59.8030000
  31.3770000  66.1850000  67.6730000  30.3520000  67.2980000  66.3650000
  33.5530000  65.4280000  66.9440000  35.9730000  67.4070000  60.2400000
  34.5470000  68.7910000  58.8130000  32.7730000  69.3050000  59.6510000
  32.5950000  65.4710000  67.9020000  30.7110000  66.2080000  68.3490000
  34.3560000  64.9470000  67.1100000  36.7870000  66.9390000  60.3850000
  35.7770000  68.0660000  59.0400000  34.3750000  69.4510000  57.5590000
  32.7340000  65.0260000  68.7300000  36.7610000  68.0500000  58.0020000
  35.3320000  69.4080000  56.6010000  33.5720000  69.9320000  57.3940000
  36.5500000  68.6930000  56.8300000  37.5760000  67.5810000  58.1390000
  35.1940000  69.8530000  55.7730000  37.2170000  68.6700000  56.1540000
  10.4400000  41.1380000  61.4450000  11.4320000  41.7090000  60.6130000
   9.2090000  40.6500000  60.8400000  10.6200000  41.0360000  62.8320000
  11.2530000  41.8100000  59.2380000  12.2370000  42.0300000  61.0020000
   9.0530000  40.7690000  59.4490000   8.2280000  40.0920000  61.6710000
   9.6380000  40.4780000  63.6630000  11.4330000  41.3530000  63.2050000
  12.2490000  42.3960000  58.3750000  10.0290000  41.3340000  58.6390000
   8.2520000  40.4520000  59.0480000   7.4150000  39.7750000  61.2990000
   8.4080000  39.9900000  63.0580000   9.7950000  40.3590000  65.0550000
  12.0510000  42.4930000  57.0390000  13.0590000  42.7200000  58.7500000
   9.8650000  41.4600000  57.2160000   7.4160000  39.4190000  63.8910000
   8.8190000  39.7940000  65.8640000  10.5960000  40.6770000  65.4550000
  10.8440000  42.0110000  56.4550000  12.7200000  42.8850000  56.4900000
   9.0650000  41.1530000  56.8050000   6.6100000  39.0980000  63.5010000
   7.5940000  39.3180000  65.2650000   8.9830000  39.6680000  67.2870000
  10.7230000  42.0760000  55.5140000   6.5980000  38.7320000  66.1280000
   8.0040000  39.1170000  68.0490000   9.7830000  39.9750000  67.6990000
   6.7960000  38.6350000  67.4640000   5.7890000  38.4080000  65.7530000
   8.1250000  39.0520000  68.9890000   6.1280000  38.2430000  68.0130000
   8.9360000  31.3070000  19.2740000   9.9280000  31.8790000  18.4420000
   7.7060000  30.8190000  18.6700000   9.1160000  31.2050000  20.6620000
   9.7500000  31.9800000  17.0670000  10.7340000  32.2000000  18.8320000
   7.5490000  30.9390000  17.2780000   6.7240000  30.2620000  19.5010000
   8.1350000  30.6480000  21.4920000   9.9290000  31.5220000  21.0340000
  10.7460000  32.5660000  16.2040000   8.5250000  31.5040000  16.4690000
   6.7480000  30.6210000  16.8780000   5.9110000  29.9450000  19.1280000
   6.9040000  30.1600000  20.8880000   8.2910000  30.5290000  22.8840000
  10.5480000  32.6630000  14.8690000  11.5550000  32.8900000  16.5800000
   8.3610000  31.6290000  15.0460000   5.9120000  29.5880000  21.7200000
   7.3150000  29.9630000  23.6940000   9.0920000  30.8460000  23.2850000
   9.3400000  32.1800000  14.2840000  11.2160000  33.0550000  14.3190000
   7.5610000  31.3230000  14.6340000   5.1070000  29.2670000  21.3310000
   6.0910000  29.4870000  23.0950000   7.4790000  29.8380000  25.1160000
   9.2190000  32.2450000  13.3440000   5.0950000  28.9010000  23.9580000
   6.5000000  29.2870000  25.8780000   8.2790000  30.1440000  25.5280000
   5.2930000  28.8040000  25.2930000   4.2850000  28.5770000  23.5830000
   6.6210000  29.2220000  26.8190000   4.6240000  28.4130000  25.8430000
   7.4050000  33.4370000  34.9450000   6.4130000  32.8650000  35.7770000
   8.6360000  33.9250000  35.5490000   7.2260000  33.5390000  33.5570000
   6.5920000  32.7640000  37.1520000   5.6080000  32.5440000  35.3880000
   8.7920000  33.8050000  36.9410000   9.6170000  34.4820000  34.7190000
   8.2070000  34.0960000  32.7270000   6.4120000  33.2220000  33.1850000
   5.5960000  32.1780000  38.0150000   7.8160000  33.2400000  37.7510000
   9.5940000  34.1230000  37.3420000  10.4310000  34.7990000  35.0910000
   9.4380000  34.5840000  33.3310000   8.0500000  34.2150000  31.3350000
   5.7940000  32.0810000  39.3500000   4.7860000  31.8540000  37.6400000
   7.9800000  33.1150000  39.1730000  10.4300000  35.1560000  32.4990000
   9.0260000  34.7810000  30.5250000   7.2490000  33.8980000  30.9340000
   7.0010000  32.5640000  39.9350000   5.1250000  31.6890000  39.9000000
   8.7800000  33.4210000  39.5850000  11.2350000  35.4770000  32.8880000
  10.2510000  35.2570000  31.1240000   8.8630000  34.9060000  29.1030000
   7.1220000  32.4990000  40.8750000  11.2470000  35.8430000  30.2610000
   9.8410000  35.4570000  28.3410000   8.0630000  34.6000000  28.6910000
  11.0490000  35.9400000  28.9260000  12.0570000  36.1670000  30.6360000
   9.7200000  35.5220000  27.4010000  11.7170000  36.3310000  28.3760000
   9.9390000  37.8610000  47.3880000  10.9310000  38.4320000  46.5560000
   8.7080000  37.3730000  46.7830000  10.1180000  37.7590000  48.7750000
  10.7520000  38.5340000  45.1810000  11.7360000  38.7540000  46.9450000
   8.5520000  37.4920000  45.3920000   7.7270000  36.8160000  47.6140000
   9.1370000  37.2020000  49.6060000  10.9320000  38.0760000  49.1480000
  11.7480000  39.1190000  44.3180000   9.5280000  38.0580000  44.5820000
   7.7500000  37.1750000  44.9910000   6.9130000  36.4980000  47.2420000
   7.9060000  36.7140000  49.0020000   9.2940000  37.0820000  50.9980000
  11.5500000  39.2170000  42.9830000  12.5580000  39.4430000  44.6930000
   9.3640000  38.1830000  43.1600000   6.9140000  36.1420000  49.8340000
   8.3180000  36.5170000  51.8070000  10.0950000  37.4000000  51.3980000
  10.3430000  38.7340000  42.3980000  12.2190000  39.6080000  42.4330000
   8.5640000  37.8760000  42.7480000   6.1090000  35.8210000  49.4440000
   7.0930000  36.0410000  51.2090000   8.4810000  36.3920000  53.2300000
  10.2220000  38.7990000  41.4570000   6.0970000  35.4550000  52.0720000
   7.5030000  35.8410000  53.9920000   9.2810000  36.6980000  53.6420000
   6.2950000  35.3580000  53.4070000   5.2870000  35.1310000  51.6960000
   7.6240000  35.7760000  54.9320000   5.6270000  34.9660000  53.9570000
  29.2270000  34.6000000  21.0740000  28.2430000  34.6050000  22.0930000
  30.4710000  33.8710000  21.3060000  29.0560000  35.2800000  19.8600000
  28.4380000  33.9460000  23.2930000  27.4280000  35.0730000  21.9480000
  30.6420000  33.1940000  22.5300000  31.4470000  33.8660000  20.3020000
  30.0320000  35.2750000  18.8570000  28.2430000  35.7530000  19.7300000
  27.4540000  33.9620000  24.3310000  29.6690000  33.2210000  23.5190000
  31.4430000  32.7070000  22.6820000  32.2610000  33.3930000  20.4330000
  31.2760000  34.5460000  19.0890000  29.8620000  35.9520000  17.6320000
  27.6650000  33.3190000  25.5030000  26.6390000  34.4310000  24.1940000
  29.8410000  32.5610000  24.7730000  32.2610000  34.5410000  18.0700000
  30.8340000  35.9240000  16.6430000  29.0610000  36.4390000  17.4810000
  28.8830000  32.6040000  25.7320000  26.9990000  33.3420000  26.1790000
  30.6430000  32.0800000  24.9390000  33.0750000  34.0730000  18.2140000
  32.0650000  35.2000000  16.8690000  30.6630000  36.5840000  15.3890000
  29.0220000  32.1590000  26.5600000  33.0490000  35.1830000  15.8320000
  31.6200000  36.5410000  14.4300000  29.8600000  37.0650000  15.2230000
  32.8380000  35.8270000  14.6590000  33.8640000  34.7140000  15.9680000
  31.4820000  36.9860000  13.6020000  33.5050000  35.8040000  13.9830000
  29.7280000  37.8770000  35.1300000  28.7440000  37.8820000  36.1500000
  30.9720000  37.1480000  35.3620000  29.5580000  38.5570000  33.9170000
  28.9400000  37.2220000  37.3500000  27.9300000  38.3490000  36.0050000
  31.1430000  36.4710000  36.5870000  31.9480000  37.1430000  34.3590000
  30.5340000  38.5520000  32.9140000  28.7440000  39.0290000  33.7870000
  27.9550000  37.2390000  38.3870000  30.1700000  36.4980000  37.5760000
  31.9440000  35.9830000  36.7380000  32.7620000  36.6700000  34.4890000
  31.7780000  37.8230000  33.1460000  30.3630000  39.2280000  31.6890000
  28.1670000  36.5960000  39.5600000  27.1410000  37.7080000  38.2510000
  30.3420000  35.8380000  38.8300000  32.7620000  37.8180000  32.1260000
  31.3360000  39.2010000  30.7000000  29.5620000  39.7160000  31.5370000
  29.3840000  35.8810000  39.7890000  27.5000000  36.6190000  40.2360000
  31.1450000  35.3570000  38.9960000  33.5760000  37.3500000  32.2710000
  32.5660000  38.4770000  30.9260000  31.1640000  39.8610000  29.4460000
  29.5230000  35.4360000  40.6170000  33.5510000  38.4600000  29.8890000
  32.1220000  39.8180000  28.4870000  30.3610000  40.3420000  29.2800000
  33.3390000  39.1040000  28.7160000  34.3650000  37.9910000  30.0250000
  31.9830000  40.2630000  27.6590000  34.0060000  39.0800000  28.0400000
  30.2300000  41.1540000  49.1870000  29.2450000  41.1590000  50.2060000
  31.4740000  40.4240000  49.4190000  30.0590000  41.8340000  47.9740000
  29.4410000  40.4990000  51.4070000  28.4310000  41.6260000  50.0620000
  31.6440000  39.7480000  50.6430000  32.4490000  40.4190000  48.4150000
  31.0350000  41.8290000  46.9700000  29.2450000  42.3060000  47.8430000
  28.4570000  40.5160000  52.4440000  30.6720000  39.7750000  51.6330000
  32.4450000  39.2600000  50.7950000  33.2630000  39.9470000  48.5460000
  32.2790000  41.0990000  47.2020000  30.8640000  42.5050000  45.7460000
  28.6680000  39.8730000  53.6170000  27.6420000  40.9850000  52.3080000
  30.8430000  39.1150000  52.8870000  33.2630000  41.0950000  46.1830000
  31.8370000  42.4780000  44.7560000  30.0630000  42.9930000  45.5940000
  29.8860000  39.1580000  53.8460000  28.0010000  39.8960000  54.2930000
  31.6460000  38.6340000  53.0530000  34.0780000  40.6270000  46.3280000
  33.0680000  41.7540000  44.9830000  31.6650000  43.1380000  43.5030000
  30.0240000  38.7130000  54.6740000  34.0520000  41.7370000  43.9450000
  32.6230000  43.0950000  42.5440000  30.8620000  43.6190000  43.3370000
  33.8410000  42.3800000  42.7730000  34.8670000  41.2680000  44.0820000
  32.4840000  43.5400000  41.7160000  34.5070000  42.3570000  42.0970000
  30.7310000  44.4300000  63.2440000  29.7470000  44.4350000  64.2630000
  31.9750000  43.7010000  63.4760000  30.5600000  45.1110000  62.0310000
  29.9420000  43.7760000  65.4640000  28.9320000  44.9030000  64.1180000
  32.1450000  43.0250000  64.7000000  32.9510000  43.6960000  62.4720000
  31.5360000  45.1050000  61.0270000  29.7470000  45.5830000  61.9000000
  28.9580000  43.7930000  66.5010000  31.1730000  43.0520000  65.6900000
  32.9470000  42.5370000  64.8520000  33.7640000  43.2240000  62.6030000
  32.7800000  44.3760000  61.2590000  31.3660000  45.7820000  59.8030000
  29.1690000  43.1490000  67.6730000  28.1430000  44.2620000  66.3650000
  31.3450000  42.3920000  66.9440000  33.7650000  44.3710000  60.2400000
  32.3380000  45.7550000  58.8130000  30.5640000  46.2700000  59.6510000
  30.3870000  42.4350000  67.9020000  28.5030000  43.1730000  68.3490000
  32.1470000  41.9110000  67.1100000  34.5790000  43.9040000  60.3850000
  33.5690000  45.0310000  59.0400000  32.1660000  46.4150000  57.5590000
  30.5250000  41.9900000  68.7300000  34.5530000  45.0140000  58.0020000
  33.1240000  46.3720000  56.6010000  31.3640000  46.8960000  57.3940000
  34.3420000  45.6570000  56.8300000  35.3680000  44.5450000  58.1390000
  32.9860000  46.8170000  55.7730000  35.0080000  45.6340000  56.1540000
   7.1390000  34.5620000   6.8310000   6.1470000  33.9900000   7.6630000
   8.3690000  35.0500000   7.4360000   6.9590000  34.6640000   5.4440000
   6.3250000  33.8890000   9.0380000   5.3410000  33.6690000   7.2740000
   8.5260000  34.9300000   8.8270000   9.3510000  35.6070000   6.6050000
   7.9400000  35.2210000   4.6130000   6.1460000  34.3460000   5.0710000
   5.3290000  33.3030000   9.9010000   7.5500000  34.3650000   9.6370000
   9.3270000  35.2480000   9.2280000  10.1640000  35.9240000   6.9770000
   9.1710000  35.7090000   5.2170000   7.7840000  35.3400000   3.2210000
   5.5270000  33.2060000  11.2370000   4.5200000  32.9790000   9.5260000
   7.7140000  34.2400000  11.0590000  10.1630000  36.2810000   4.3850000
   8.7600000  35.9060000   2.4120000   6.9830000  35.0230000   2.8210000
   6.7350000  33.6890000  11.8210000   4.8590000  32.8140000  11.7860000
   8.5140000  34.5460000  11.4710000  10.9680000  36.6020000   4.7750000
   9.9850000  36.3820000   3.0110000   8.5960000  36.0310000   0.9890000
   6.8560000  33.6240000  12.7620000  10.9810000  36.9670000   2.1470000
   9.5750000  36.5820000   0.2270000   7.7960000  35.7250000   0.5770000
  10.7830000  37.0650000   0.8120000  11.7900000  37.2910000   2.5230000
   9.4540000  36.6470000  -0.7130000  11.4510000  37.4560000   0.2620000
  11.1760000  48.8160000  61.4450000  12.1680000  49.3880000  60.6130000
   9.9450000  48.3280000  60.8400000  11.3560000  48.7140000  62.8320000
  11.9900000  49.4890000  59.2380000  12.9740000  49.7090000  61.0020000
   9.7890000  48.4480000  59.4490000   8.9640000  47.7710000  61.6710000
  10.3750000  48.1570000  63.6630000  12.1690000  49.0320000  63.2050000
  12.9860000  50.0750000  58.3750000  10.7650000  49.0130000  58.6390000
   8.9880000  48.1300000  59.0480000   8.1510000  47.4540000  61.2990000
   9.1440000  47.6690000  63.0580000  10.5310000  48.0380000  65.0550000
  12.7880000  50.1720000  57.0390000  13.7950000  50.3990000  58.7500000
  10.6010000  49.1380000  57.2160000   8.1520000  47.0970000  63.8910000
   9.5550000  47.4720000  65.8640000  11.3320000  48.3550000  65.4550000
  11.5800000  49.6890000  56.4550000  13.4560000  50.5640000  56.4900000
   9.8010000  48.8320000  56.8050000   7.3460000  46.7760000  63.5010000
   8.3300000  46.9960000  65.2650000   9.7190000  47.3470000  67.2870000
  11.4590000  49.7540000  55.5140000   7.3340000  46.4110000  66.1280000
   8.7400000  46.7960000  68.0490000  10.5190000  47.6530000  67.6990000
   7.5320000  46.3130000  67.4640000   6.5250000  46.0870000  65.7530000
   8.8610000  46.7310000  68.9890000   6.8640000  45.9220000  68.0130000
   9.6730000  38.9860000  19.2740000  10.6640000  39.5570000  18.4420000
   8.4420000  38.4980000  18.6700000   9.8520000  38.8840000  20.6620000
  10.4860000  39.6580000  17.0670000  11.4700000  39.8780000  18.8320000
   8.2850000  38.6170000  17.2780000   7.4610000  37.9410000  19.5010000
   8.8710000  38.3270000  21.4920000  10.6650000  39.2010000  21.0340000
  11.4820000  40.2440000  16.2040000   9.2610000  39.1830000  16.4690000
   7.4840000  38.3000000  16.8780000   6.6470000  37.6230000  19.1280000
   7.6400000  37.8390000  20.8880000   9.0270000  38.2070000  22.8840000
  11.2840000  40.3420000  14.8690000  12.2920000  40.5680000  16.5800000
   9.0970000  39.3080000  15.0460000   6.6480000  37.2670000  21.7200000
   8.0510000  37.6420000  23.6940000   9.8290000  38.5250000  23.2850000
  10.0760000  39.8590000  14.2840000  11.9520000  40.7330000  14.3190000
   8.2980000  39.0010000  14.6340000   5.8430000  36.9460000  21.3310000
   6.8270000  37.1660000  23.0950000   8.2150000  37.5170000  25.1160000
   9.9550000  39.9240000  13.3440000   5.8310000  36.5800000  23.9580000
   7.2360000  36.9650000  25.8780000   9.0150000  37.8230000  25.5280000
   6.0290000  36.4830000  25.2930000   5.0210000  36.2560000  23.5830000
   7.3570000  36.9010000  26.8190000   5.3600000  36.0910000  25.8430000
   8.1410000  41.1150000  34.9450000   7.1490000  40.5440000  35.7770000
   9.3720000  41.6030000  35.5490000   7.9620000  41.2170000  33.5570000
   7.3280000  40.4430000  37.1520000   6.3440000  40.2230000  35.3880000
   9.5280000  41.4840000  36.9410000  10.3530000  42.1610000  34.7190000
   8.9430000  41.7750000  32.7270000   7.1480000  40.9000000  33.1850000
   6.3320000  39.8570000  38.0150000   8.5530000  40.9190000  37.7510000
  10.3300000  41.8020000  37.3420000  11.1670000  42.4780000  35.0910000
  10.1740000  42.2630000  33.3310000   8.7870000  41.8940000  31.3350000
   6.5300000  39.7600000  39.3500000   5.5220000  39.5330000  37.6400000
   8.7160000  40.7930000  39.1730000  11.1660000  42.8340000  32.4990000
   9.7620000  42.4590000  30.5250000   7.9850000  41.5760000  30.9340000
   7.7370000  40.2420000  39.9350000   5.8610000  39.3680000  39.9000000
   9.5160000  41.1000000  39.5850000  11.9710000  43.1550000  32.8880000
  10.9870000  42.9350000  31.1240000   9.5990000  42.5850000  29.1030000
   7.8590000  40.1770000  40.8750000  11.9830000  43.5210000  30.2610000
  10.5780000  43.1360000  28.3410000   8.7990000  42.2780000  28.6910000
  11.7850000  43.6180000  28.9260000  12.7930000  43.8450000  30.6360000
  10.4560000  43.2010000  27.4010000  12.4530000  44.0100000  28.3760000
   8.6420000  44.3920000  49.0020000   7.6510000  43.8210000  49.8340000
   9.8730000  44.8800000  49.6060000   8.4630000  44.4940000  47.6140000
   7.8290000  43.7200000  51.2090000   6.8450000  43.5000000  49.4440000
  10.0300000  44.7610000  50.9980000  10.8540000  45.4370000  48.7750000
   9.4440000  45.0510000  46.7830000   7.6500000  44.1770000  47.2420000
   6.8330000  43.1340000  52.0720000   9.0540000  44.1950000  51.8070000
  10.8310000  45.0780000  51.3980000  11.6680000  45.7550000  49.1480000
  10.6750000  45.5390000  47.3880000   9.2880000  45.1710000  45.3920000
   7.0310000  43.0360000  53.4070000   6.0230000  42.8100000  51.6960000
   9.2180000  44.0700000  53.2300000  11.6670000  46.1110000  46.5560000
  10.2640000  45.7360000  44.5820000   8.4860000  44.8530000  44.9910000
   8.2390000  43.5190000  53.9920000   6.3630000  42.6450000  53.9570000
  10.0170000  44.3770000  53.6420000  12.4720000  46.4320000  46.9450000
  11.4880000  46.2120000  45.1810000  10.1000000  45.8610000  43.1600000
   8.3600000  43.4540000  54.9320000  12.4840000  46.7980000  44.3180000
  11.0790000  46.4130000  42.3980000   9.3000000  45.5550000  42.7480000
  12.2860000  46.8950000  42.9830000  13.2940000  47.1220000  44.6930000
  10.9580000  46.4770000  41.4570000  12.9550000  47.2870000  42.4330000
  32.0120000  42.2240000  19.0890000  32.9970000  42.2190000  18.0700000
  30.7680000  42.9540000  18.8570000  32.1830000  41.5440000  20.3020000
  32.8010000  42.8790000  16.8690000  33.8110000  41.7520000  18.2140000
  30.5980000  43.6300000  17.6320000  29.7930000  42.9590000  19.8600000
  31.2070000  41.5490000  21.3060000  32.9970000  41.0720000  20.4330000
  33.7850000  42.8620000  15.8320000  31.5710000  43.6030000  16.6430000
  29.7970000  44.1180000  17.4810000  28.9790000  43.4310000  19.7300000
  29.9630000  42.2790000  21.0740000  31.3780000  40.8730000  22.5300000
  33.5740000  43.5050000  14.6590000  34.6000000  42.3930000  15.9680000
  31.3990000  44.2630000  15.3890000  28.9790000  42.2830000  22.0930000
  30.4050000  40.9000000  23.5190000  32.1790000  40.3850000  22.6820000
  32.3560000  44.2200000  14.4300000  34.2410000  43.4820000  13.9830000
  30.5960000  44.7440000  15.2230000  28.1650000  42.7510000  21.9480000
  29.1740000  41.6240000  23.2930000  30.5770000  40.2400000  24.7730000
  32.2180000  44.6650000  13.6020000  28.1900000  41.6410000  24.3310000
  29.6190000  40.2830000  25.7320000  31.3800000  39.7590000  24.9390000
  28.4010000  40.9980000  25.5030000  27.3760000  42.1100000  24.1940000
  29.7580000  39.8380000  26.5600000  27.7350000  41.0210000  26.1790000
  30.9660000  48.8320000  49.1870000  29.9810000  48.8370000  50.2060000
  32.2100000  48.1030000  49.4190000  30.7950000  49.5120000  47.9740000
  30.1770000  48.1780000  51.4070000  29.1670000  49.3050000  50.0620000
  32.3800000  47.4260000  50.6430000  33.1860000  48.0980000  48.4150000
  31.7710000  49.5070000  46.9700000  29.9810000  49.9850000  47.8430000
  29.1930000  48.1950000  52.4440000  31.4080000  47.4540000  51.6330000
  33.1810000  46.9390000  50.7950000  33.9990000  47.6250000  48.5460000
  33.0150000  48.7780000  47.2020000  31.6000000  50.1840000  45.7460000
  29.4040000  47.5510000  53.6170000  28.3780000  48.6640000  52.3080000
  31.5790000  46.7940000  52.8870000  33.9990000  48.7730000  46.1830000
  32.5730000  50.1570000  44.7560000  30.7990000  50.6710000  45.5940000
  30.6220000  46.8370000  53.8460000  28.7370000  47.5740000  54.2930000
  32.3820000  46.3130000  53.0530000  34.8140000  48.3050000  46.3280000
  33.8040000  49.4320000  44.9830000  32.4010000  50.8170000  43.5030000
  30.7600000  46.3920000  54.6740000  34.7880000  49.4160000  43.9450000
  33.3590000  50.7740000  42.5440000  31.5990000  51.2980000  43.3370000
  34.5770000  50.0590000  42.7730000  35.6030000  48.9470000  44.0820000
  33.2200000  51.2190000  41.7160000  35.2430000  50.0360000  42.0970000
  30.4640000  45.5550000  35.1300000  29.4800000  45.5600000  36.1500000
  31.7090000  44.8260000  35.3620000  30.2940000  46.2350000  33.9170000
  29.6760000  44.9010000  37.3500000  28.6660000  46.0280000  36.0050000
  31.8790000  44.1500000  36.5870000  32.6840000  44.8210000  34.3590000
  31.2700000  46.2300000  32.9140000  29.4800000  46.7080000  33.7870000
  28.6920000  44.9180000  38.3870000  30.9060000  44.1770000  37.5760000
  32.6800000  43.6620000  36.7380000  33.4980000  44.3490000  34.4890000
  32.5140000  45.5010000  33.1460000  31.0990000  46.9070000  31.6890000
  28.9030000  44.2740000  39.5600000  27.8770000  45.3870000  38.2510000
  31.0780000  43.5170000  38.8300000  33.4980000  45.4960000  32.1260000
  32.0720000  46.8800000  30.7000000  30.2980000  47.3950000  31.5370000
  30.1210000  43.5600000  39.7890000  28.2360000  44.2980000  40.2360000
  31.8810000  43.0360000  38.9960000  34.3120000  45.0290000  32.2710000
  33.3020000  46.1560000  30.9260000  31.9000000  47.5400000  29.4460000
  30.2590000  43.1150000  40.6170000  34.2870000  46.1390000  29.8890000
  32.8580000  47.4970000  28.4870000  31.0970000  48.0210000  29.2800000
  34.0750000  46.7820000  28.7160000  35.1010000  45.6700000  30.0250000
  32.7190000  47.9420000  27.6590000  34.7420000  46.7590000  28.0400000
  31.4670000  52.1090000  63.2440000  30.4830000  52.1140000  64.2630000
  32.7110000  51.3800000  63.4760000  31.2960000  52.7890000  62.0310000
  30.6780000  51.4550000  65.4640000  29.6680000  52.5820000  64.1180000
  32.8820000  50.7030000  64.7000000  33.6870000  51.3750000  62.4720000
  32.2720000  52.7840000  61.0270000  30.4830000  53.2620000  61.9000000
  29.6940000  51.4720000  66.5010000  31.9090000  50.7300000  65.6900000
  33.6830000  50.2160000  64.8520000  34.5000000  50.9020000  62.6030000
  33.5160000  52.0550000  61.2590000  32.1020000  53.4610000  59.8030000
  29.9050000  50.8280000  67.6730000  28.8790000  51.9400000  66.3650000
  32.0810000  50.0710000  66.9440000  34.5010000  52.0500000  60.2400000
  33.0740000  53.4340000  58.8130000  31.3010000  53.9480000  59.6510000
  31.1230000  50.1140000  67.9020000  29.2390000  50.8510000  68.3490000
  32.8830000  49.5890000  67.1100000  35.3150000  51.5820000  60.3850000
  34.3050000  52.7090000  59.0400000  32.9020000  54.0930000  57.5590000
  31.2610000  49.6680000  68.7300000  35.2890000  52.6920000  58.0020000
  33.8600000  54.0500000  56.6010000  32.1000000  54.5750000  57.3940000
  35.0780000  53.3360000  56.8300000  36.1040000  52.2240000  58.1390000
  33.7220000  54.4950000  55.7730000  35.7450000  53.3130000  56.1540000
   7.8750000  42.2400000   6.8310000   6.8830000  41.6690000   7.6630000
   9.1060000  42.7280000   7.4360000   7.6950000  42.3420000   5.4440000
   7.0620000  41.5680000   9.0380000   6.0780000  41.3480000   7.2740000
   9.2620000  42.6090000   8.8270000  10.0870000  43.2860000   6.6050000
   8.6770000  42.9000000   4.6130000   6.8820000  42.0250000   5.0710000
   6.0660000  40.9820000   9.9010000   8.2860000  42.0440000   9.6370000
  10.0630000  42.9260000   9.2280000  10.9000000  43.6030000   6.9770000
   9.9070000  43.3880000   5.2170000   8.5200000  43.0190000   3.2210000
   6.2640000  40.8850000  11.2370000   5.2560000  40.6580000   9.5260000
   8.4500000  41.9180000  11.0590000  10.8990000  43.9590000   4.3850000
   9.4960000  43.5840000   2.4120000   7.7190000  42.7010000   2.8210000
   7.4710000  41.3670000  11.8210000   5.5950000  40.4930000  11.7860000
   9.2500000  42.2250000  11.4710000  11.7050000  44.2800000   4.7750000
  10.7210000  44.0600000   3.0110000   9.3320000  43.7100000   0.9890000
   7.5920000  41.3020000  12.7620000  11.7170000  44.6460000   2.1470000
  10.3110000  44.2610000   0.2270000   8.5320000  43.4030000   0.5770000
  11.5190000  44.7430000   0.8120000  12.5260000  44.9700000   2.5230000
  10.1900000  44.3260000  -0.7130000  12.1870000  45.1350000   0.2620000
   8.3760000  45.5170000  20.8880000   7.3840000  44.9460000  21.7200000
   9.6070000  46.0050000  21.4920000   8.1970000  45.6190000  19.5010000
   7.5630000  44.8440000  23.0950000   6.5790000  44.6240000  21.3310000
   9.7630000  45.8860000  22.8840000  10.5880000  46.5620000  20.6620000
   9.1780000  46.1760000  18.6700000   7.3830000  45.3020000  19.1280000
   6.5670000  44.2590000  23.9580000   8.7870000  45.3200000  23.6940000
  10.5650000  46.2030000  23.2850000  11.4020000  46.8800000  21.0340000
  10.4090000  46.6640000  19.2740000   9.0210000  46.2960000  17.2780000
   6.7650000  44.1610000  25.2930000   5.7570000  43.9350000  23.5830000
   8.9510000  45.1950000  25.1160000  11.4010000  47.2360000  18.4420000
   9.9970000  46.8610000  16.4690000   8.2200000  45.9780000  16.8780000
   7.9720000  44.6440000  25.8780000   6.0960000  43.7700000  25.8430000
   9.7510000  45.5020000  25.5280000  12.2060000  47.5570000  18.8320000
  11.2220000  47.3370000  17.0670000   9.8340000  46.9860000  15.0460000
   8.0930000  44.5790000  26.8190000  12.2180000  47.9230000  16.2040000
  10.8120000  47.5370000  14.2840000   9.0340000  46.6800000  14.6340000
  12.0200000  48.0200000  14.8690000  13.0280000  48.2470000  16.5800000
  10.6910000  47.6020000  13.3440000  12.6880000  48.4120000  14.3190000
   8.8770000  48.7940000  34.9450000   7.8850000  48.2220000  35.7770000
  10.1080000  49.2820000  35.5490000   8.6980000  48.8960000  33.5570000
   8.0640000  48.1210000  37.1520000   7.0800000  47.9010000  35.3880000
  10.2650000  49.1630000  36.9410000  11.0890000  49.8390000  34.7190000
   9.6790000  49.4530000  32.7270000   7.8840000  48.5790000  33.1850000
   7.0680000  47.5350000  38.0150000   9.2890000  48.5970000  37.7510000
  11.0660000  49.4800000  37.3420000  11.9030000  50.1560000  35.0910000
  10.9100000  49.9410000  33.3310000   9.5230000  49.5730000  31.3350000
   7.2660000  47.4380000  39.3500000   6.2580000  47.2110000  37.6400000
   9.4520000  48.4720000  39.1730000  11.9020000  50.5130000  32.4990000
  10.4990000  50.1380000  30.5250000   8.7210000  49.2550000  30.9340000
   8.4730000  47.9210000  39.9350000   6.5980000  47.0470000  39.9000000
  10.2520000  48.7780000  39.5850000  12.7070000  50.8340000  32.8880000
  11.7230000  50.6140000  31.1240000  10.3350000  50.2630000  29.1030000
   8.5950000  47.8560000  40.8750000  12.7190000  51.2000000  30.2610000
  11.3140000  50.8140000  28.3410000   9.5350000  49.9570000  28.6910000
  12.5210000  51.2970000  28.9260000  13.5290000  51.5240000  30.6360000
  11.1930000  50.8790000  27.4010000  13.1900000  51.6890000  28.3760000
   9.3790000  52.0710000  49.0020000   8.3870000  51.4990000  49.8340000
  10.6090000  52.5590000  49.6060000   9.1990000  52.1730000  47.6140000
   8.5650000  51.3980000  51.2090000   7.5810000  51.1780000  49.4440000
  10.7660000  52.4390000  50.9980000  11.5910000  53.1160000  48.7750000
  10.1800000  52.7300000  46.7830000   8.3860000  51.8560000  47.2420000
   7.5690000  50.8120000  52.0720000   9.7900000  51.8740000  51.8070000
  11.5670000  52.7570000  51.3980000  12.4040000  53.4330000  49.1480000
  11.4110000  53.2180000  47.3880000  10.0240000  52.8490000  45.3920000
   7.7670000  50.7150000  53.4070000   6.7600000  50.4880000  51.6960000
   9.9540000  51.7490000  53.2300000  12.4030000  53.7900000  46.5560000
  11.0000000  53.4150000  44.5820000   9.2230000  52.5320000  44.9910000
   8.9750000  51.1980000  53.9920000   7.0990000  50.3230000  53.9570000
  10.7540000  52.0550000  53.6420000  13.2080000  54.1110000  46.9450000
  12.2240000  53.8910000  45.1810000  10.8360000  53.5400000  43.1600000
   9.0960000  51.1330000  54.9320000  13.2200000  54.4770000  44.3180000
  11.8150000  54.0910000  42.3980000  10.0360000  53.2340000  42.7480000
  13.0220000  54.5740000  42.9830000  14.0300000  54.8010000  44.6930000
  11.6940000  54.1560000  41.4570000  13.6910000  54.9650000  42.4330000
  11.9120000  56.4950000  61.4450000  12.9040000  57.0660000  60.6130000
  10.6820000  56.0070000  60.8400000  12.0920000  56.3930000  62.8320000
  12.7260000  57.1680000  59.2380000  13.7100000  57.3880000  61.0020000
  10.5250000  56.1260000  59.4490000   9.7000000  55.4500000  61.6710000
  11.1110000  55.8360000  63.6630000  12.9050000  56.7100000  63.2050000
  13.7220000  57.7530000  58.3750000  11.5010000  56.6920000  58.6390000
   9.7240000  55.8090000  59.0480000   8.8870000  55.1320000  61.2990000
   9.8800000  55.3480000  63.0580000  11.2670000  55.7160000  65.0550000
  13.5240000  57.8510000  57.0390000  14.5310000  58.0770000  58.7500000
  11.3370000  56.8170000  57.2160000   8.8880000  54.7760000  63.8910000
  10.2910000  55.1510000  65.8640000  12.0680000  56.0340000  65.4550000
  12.3160000  57.3680000  56.4550000  14.1920000  58.2420000  56.4900000
  10.5370000  56.5100000  56.8050000   8.0830000  54.4550000  63.5010000
   9.0670000  54.6750000  65.2650000  10.4550000  55.0260000  67.2870000
  12.1950000  57.4330000  55.5140000   8.0710000  54.0890000  66.1280000
   9.4760000  54.4750000  68.0490000  11.2550000  55.3320000  67.6990000
   8.2690000  53.9920000  67.4640000   7.2610000  53.7650000  65.7530000
   9.5970000  54.4100000  68.9890000   7.6000000  53.6000000  68.0130000
  31.2010000  53.2340000  35.1300000  30.2160000  53.2390000  36.1500000
  32.4450000  52.5050000  35.3620000  31.0300000  53.9140000  33.9170000
  30.4120000  52.5800000  37.3500000  29.4020000  53.7070000  36.0050000
  32.6150000  51.8280000  36.5870000  33.4200000  52.5000000  34.3590000
  32.0060000  53.9090000  32.9140000  30.2160000  54.3870000  33.7870000
  29.4280000  52.5960000  38.3870000  31.6430000  51.8550000  37.5760000
  33.4160000  51.3410000  36.7380000  34.2340000  52.0270000  34.4890000
  33.2500000  53.1800000  33.1460000  31.8350000  54.5860000  31.6890000
  29.6390000  51.9530000  39.5600000  28.6130000  53.0650000  38.2510000
  31.8140000  51.1950000  38.8300000  34.2340000  53.1750000  32.1260000
  32.8080000  54.5580000  30.7000000  31.0340000  55.0730000  31.5370000
  30.8570000  51.2390000  39.7890000  28.9720000  51.9760000  40.2360000
  32.6170000  50.7140000  38.9960000  35.0490000  52.7070000  32.2710000
  34.0390000  53.8340000  30.9260000  32.6360000  55.2180000  29.4460000
  30.9950000  50.7930000  40.6170000  35.0230000  53.8170000  29.8890000
  33.5940000  55.1750000  28.4870000  31.8330000  55.6990000  29.2800000
  34.8120000  54.4610000  28.7160000  35.8380000  53.3480000  30.0250000
  33.4550000  55.6200000  27.6590000  35.4780000  54.4380000  28.0400000
  30.1980000  46.6800000   7.0170000  29.2140000  46.6850000   8.0360000
  31.4420000  45.9510000   7.2490000  30.0270000  47.3600000   5.8040000
  29.4090000  46.0260000   9.2360000  28.3990000  47.1530000   7.8910000
  31.6130000  45.2740000   8.4730000  32.4180000  45.9460000   6.2450000
  31.0030000  47.3550000   4.8000000  29.2140000  47.8330000   5.6730000
  28.4250000  46.0430000  10.2740000  30.6400000  45.3020000   9.4630000
  32.4140000  44.7870000   8.6250000  33.2320000  45.4740000   6.3760000
  32.2470000  46.6260000   5.0320000  30.8330000  48.0320000   3.5760000
  28.6360000  45.3990000  11.4460000  27.6100000  46.5120000  10.1370000
  30.8120000  44.6420000  10.7170000  33.2320000  46.6210000   4.0130000
  31.8050000  48.0050000   2.5860000  30.0320000  48.5200000   3.4240000
  29.8540000  44.6850000  11.6750000  27.9700000  45.4230000  12.1220000
  31.6140000  44.1610000  10.8820000  34.0460000  46.1540000   4.1580000
  33.0360000  47.2800000   2.8120000  31.6340000  48.6650000   1.3320000
  29.9930000  44.2400000  12.5030000  34.0200000  47.2640000   1.7750000
  32.5910000  48.6220000   0.3740000  30.8310000  49.1460000   1.1660000
  33.8090000  47.9070000   0.6030000  34.8350000  46.7950000   1.9110000
  32.4530000  49.0670000  -0.4540000  34.4760000  47.8840000  -0.0730000
  32.2030000  59.7880000  63.2440000  31.2190000  59.7930000  64.2630000
  33.4470000  59.0590000  63.4760000  32.0330000  60.4680000  62.0310000
  31.4140000  59.1330000  65.4640000  30.4040000  60.2600000  64.1180000
  33.6180000  58.3820000  64.7000000  34.4230000  59.0530000  62.4720000
  33.0080000  60.4630000  61.0270000  31.2190000  60.9400000  61.9000000
  30.4300000  59.1500000  66.5010000  32.6450000  58.4090000  65.6900000
  34.4190000  57.8940000  64.8520000  35.2370000  58.5810000  62.6030000
  34.2520000  59.7330000  61.2590000  32.8380000  61.1390000  59.8030000
  30.6410000  58.5070000  67.6730000  29.6150000  59.6190000  66.3650000
  32.8170000  57.7490000  66.9440000  35.2370000  59.7290000  60.2400000
  33.8100000  61.1120000  58.8130000  32.0370000  61.6270000  59.6510000
  31.8590000  57.7920000  67.9020000  29.9750000  58.5300000  68.3490000
  33.6190000  57.2680000  67.1100000  36.0510000  59.2610000  60.3850000
  35.0410000  60.3880000  59.0400000  33.6390000  61.7720000  57.5590000
  31.9980000  57.3470000  68.7300000  36.0250000  60.3710000  58.0020000
  34.5960000  61.7290000  56.6010000  32.8360000  62.2530000  57.3940000
  35.8140000  61.0140000  56.8300000  36.8400000  59.9020000  58.1390000
  34.4580000  62.1740000  55.7730000  36.4810000  60.9910000  56.1540000
  32.7490000  49.9030000  19.0890000  33.7330000  49.8980000  18.0700000
  31.5040000  50.6320000  18.8570000  32.9190000  49.2230000  20.3020000
  33.5370000  50.5570000  16.8690000  34.5470000  49.4300000  18.2140000
  31.3340000  51.3090000  17.6320000  30.5290000  50.6370000  19.8600000
  31.9430000  49.2280000  21.3060000  33.7330000  48.7500000  20.4330000
  34.5220000  50.5400000  15.8320000  32.3070000  51.2820000  16.6430000
  30.5330000  51.7960000  17.4810000  29.7150000  51.1100000  19.7300000
  30.6990000  49.9570000  21.0740000  32.1140000  48.5510000  22.5300000
  34.3100000  51.1840000  14.6590000  35.3360000  50.0720000  15.9680000
  32.1350000  51.9410000  15.3890000  29.7150000  49.9620000  22.0930000
  31.1410000  48.5780000  23.5190000  32.9150000  48.0640000  22.6820000
  33.0920000  51.8980000  14.4300000  34.9770000  51.1610000  13.9830000
  31.3320000  52.4230000  15.2230000  28.9010000  50.4300000  21.9480000
  29.9110000  49.3030000  23.2930000  31.3130000  47.9190000  24.7730000
  32.9540000  52.3440000  13.6020000  28.9260000  49.3200000  24.3310000
  30.3550000  47.9620000  25.7320000  32.1160000  47.4370000  24.9390000
  29.1380000  48.6760000  25.5030000  28.1120000  49.7890000  24.1940000
  30.4940000  47.5170000  26.5600000  28.4710000  48.6990000  26.1790000
  31.7020000  56.5110000  49.1870000  30.7170000  56.5160000  50.2060000
  32.9460000  55.7820000  49.4190000  31.5310000  57.1910000  47.9740000
  30.9130000  55.8560000  51.4070000  29.9030000  56.9830000  50.0620000
  33.1160000  55.1050000  50.6430000  33.9220000  55.7770000  48.4150000
  32.5070000  57.1860000  46.9700000  30.7180000  57.6630000  47.8430000
  29.9290000  55.8730000  52.4440000  32.1440000  55.1320000  51.6330000
  33.9180000  54.6170000  50.7950000  34.7350000  55.3040000  48.5460000
  33.7510000  56.4570000  47.2020000  32.3370000  57.8620000  45.7460000
  30.1400000  55.2300000  53.6170000  29.1140000  56.3420000  52.3080000
  32.3160000  54.4720000  52.8870000  34.7350000  56.4520000  46.1830000
  33.3090000  57.8350000  44.7560000  31.5350000  58.3500000  45.5940000
  31.3580000  54.5150000  53.8460000  29.4740000  55.2530000  54.2930000
  33.1180000  53.9910000  53.0530000  35.5500000  55.9840000  46.3280000
  34.5400000  57.1110000  44.9830000  33.1370000  58.4950000  43.5030000
  31.4960000  54.0700000  54.6740000  35.5240000  57.0940000  43.9450000
  34.0950000  58.4520000  42.5440000  32.3350000  58.9760000  43.3370000
  35.3130000  57.7380000  42.7730000  36.3390000  56.6250000  44.0820000
  33.9570000  58.8970000  41.7160000  35.9790000  57.7140000  42.0970000
  10.6430000  51.0660000   5.2170000  11.6350000  51.6380000   4.3850000
   9.4130000  50.5780000   4.6130000  10.8230000  50.9640000   6.6050000
  11.4570000  51.7390000   3.0110000  12.4410000  51.9590000   4.7750000
   9.2560000  50.6980000   3.2210000   8.4320000  50.0210000   5.4440000
   9.8420000  50.4070000   7.4360000  11.6360000  51.2810000   6.9770000
  12.4530000  52.3250000   2.1470000  10.2320000  51.2630000   2.4120000
   8.4550000  50.3800000   2.8210000   7.6180000  49.7040000   5.0710000
   8.6110000  49.9190000   6.8310000   9.9980000  50.2870000   8.8270000
  12.2550000  52.4220000   0.8120000  13.2630000  52.6490000   2.5230000
  10.0680000  51.3880000   0.9890000   7.6190000  49.3470000   7.6630000
   9.0220000  49.7220000   9.6370000  10.8000000  50.6050000   9.2280000
  11.0470000  51.9390000   0.2270000  12.9230000  52.8140000   0.2620000
   9.2690000  51.0820000   0.5770000   6.8140000  49.0260000   7.2740000
   7.7980000  49.2460000   9.0380000   9.1860000  49.5970000  11.0590000
  10.9260000  52.0040000  -0.7130000   6.8020000  48.6600000   9.9010000
   8.2070000  49.0460000  11.8210000   9.9860000  49.9030000  11.4710000
   7.0000000  48.5630000  11.2370000   5.9920000  48.3360000   9.5260000
   8.3280000  48.9810000  12.7620000   6.3310000  48.1710000  11.7860000
  10.1150000  59.7490000  49.0020000   9.1230000  59.1780000  49.8340000
  11.3460000  60.2370000  49.6060000   9.9350000  59.8510000  47.6140000
   9.3010000  59.0770000  51.2090000   8.3170000  58.8570000  49.4440000
  11.5020000  60.1180000  50.9980000  12.3270000  60.7950000  48.7750000
  10.9160000  60.4090000  46.7830000   9.1220000  59.5340000  47.2420000
   8.3050000  58.4910000  52.0720000  10.5260000  59.5530000  51.8070000
  12.3030000  60.4360000  51.3980000  13.1400000  61.1120000  49.1480000
  12.1470000  60.8970000  47.3880000  10.7600000  60.5280000  45.3920000
   8.5030000  58.3940000  53.4070000   7.4960000  58.1670000  51.6960000
  10.6900000  59.4270000  53.2300000  13.1390000  61.4680000  46.5560000
  11.7360000  61.0930000  44.5820000   9.9590000  60.2100000  44.9910000
   9.7110000  58.8760000  53.9920000   7.8350000  58.0020000  53.9570000
  11.4900000  59.7340000  53.6420000  13.9450000  61.7890000  46.9450000
  12.9610000  61.5690000  45.1810000  11.5720000  61.2190000  43.1600000
   9.8320000  58.8110000  54.9320000  13.9570000  62.1550000  44.3180000
  12.5510000  61.7700000  42.3980000  10.7720000  60.9120000  42.7480000
  13.7590000  62.2520000  42.9830000  14.7660000  62.4790000  44.6930000
  12.4300000  61.8350000  41.4570000  14.4270000  62.6440000  42.4330000
  11.1450000  54.3430000  19.2740000  12.1370000  54.9150000  18.4420000
   9.9140000  53.8550000  18.6700000  11.3240000  54.2410000  20.6620000
  11.9580000  55.0160000  17.0670000  12.9420000  55.2360000  18.8320000
   9.7580000  53.9740000  17.2780000   8.9330000  53.2980000  19.5010000
  10.3430000  53.6840000  21.4920000  12.1380000  54.5580000  21.0340000
  12.9540000  55.6010000  16.2040000  10.7330000  54.5400000  16.4690000
   8.9560000  53.6570000  16.8780000   8.1190000  52.9810000  19.1280000
   9.1120000  53.1960000  20.8880000  10.4990000  53.5640000  22.8840000
  12.7560000  55.6990000  14.8690000  13.7640000  55.9250000  16.5800000
  10.5700000  54.6650000  15.0460000   8.1200000  52.6240000  21.7200000
   9.5230000  52.9990000  23.6940000  11.3010000  53.8820000  23.2850000
  11.5490000  55.2160000  14.2840000  13.4240000  56.0900000  14.3190000
   9.7700000  54.3590000  14.6340000   7.3150000  52.3030000  21.3310000
   8.2990000  52.5230000  23.0950000   9.6870000  52.8740000  25.1160000
  11.4270000  55.2810000  13.3440000   7.3030000  51.9370000  23.9580000
   8.7080000  52.3230000  25.8780000  10.4870000  53.1800000  25.5280000
   7.5010000  51.8400000  25.2930000   6.4930000  51.6130000  23.5830000
   8.8290000  52.2580000  26.8190000   6.8320000  51.4480000  25.8430000
   9.6130000  56.4730000  34.9450000   8.6220000  55.9010000  35.7770000
  10.8440000  56.9610000  35.5490000   9.4340000  56.5750000  33.5570000
   8.8000000  55.8000000  37.1520000   7.8160000  55.5800000  35.3880000
  11.0010000  56.8410000  36.9410000  11.8250000  57.5180000  34.7190000
  10.4150000  57.1320000  32.7270000   8.6210000  56.2570000  33.1850000
   7.8040000  55.2140000  38.0150000  10.0250000  56.2760000  37.7510000
  11.8020000  57.1590000  37.3420000  12.6390000  57.8350000  35.0910000
  11.6460000  57.6200000  33.3310000  10.2590000  57.2510000  31.3350000
   8.0020000  55.1170000  39.3500000   6.9940000  54.8900000  37.6400000
  10.1890000  56.1510000  39.1730000  12.6380000  58.1910000  32.4990000
  11.2350000  57.8170000  30.5250000   9.4570000  56.9340000  30.9340000
   9.2100000  55.5990000  39.9350000   7.3340000  54.7250000  39.9000000
  10.9880000  56.4570000  39.5850000  13.4430000  58.5130000  32.8880000
  12.4590000  58.2920000  31.1240000  11.0710000  57.9420000  29.1030000
   9.3310000  55.5350000  40.8750000  13.4550000  58.8780000  30.2610000
  12.0500000  58.4930000  28.3410000  10.2710000  57.6350000  28.6910000
  13.2570000  58.9760000  28.9260000  14.2650000  59.2020000  30.6360000
  11.9290000  58.5580000  27.4010000  13.9260000  59.3670000  28.3760000
  12.6490000  64.1730000  61.4450000  13.6400000  64.7450000  60.6130000
  11.4180000  63.6860000  60.8400000  12.8280000  64.0720000  62.8320000
  13.4620000  64.8460000  59.2380000  14.4460000  65.0660000  61.0020000
  11.2610000  63.8050000  59.4490000  10.4370000  63.1280000  61.6710000
  11.8470000  63.5140000  63.6630000  13.6410000  64.3890000  63.2050000
  14.4580000  65.4320000  58.3750000  12.2370000  64.3700000  58.6390000
  10.4600000  63.4870000  59.0480000   9.6230000  62.8110000  61.2990000
  10.6160000  63.0260000  63.0580000  12.0030000  63.3950000  65.0550000
  14.2600000  65.5290000  57.0390000  15.2680000  65.7560000  58.7500000
  12.0730000  64.4950000  57.2160000   9.6240000  62.4550000  63.8910000
  11.0270000  62.8290000  65.8640000  12.8050000  63.7120000  65.4550000
  13.0520000  65.0470000  56.4550000  14.9280000  65.9210000  56.4900000
  11.2740000  64.1890000  56.8050000   8.8190000  62.1340000  63.5010000
   9.8030000  62.3540000  65.2650000  11.1910000  62.7040000  67.2870000
  12.9310000  65.1110000  55.5140000   8.8070000  61.7680000  66.1280000
  10.2120000  62.1530000  68.0490000  11.9910000  63.0110000  67.6990000
   9.0050000  61.6710000  67.4640000   7.9970000  61.4440000  65.7530000
  10.3330000  62.0880000  68.9890000   8.3360000  61.2790000  68.0130000
  27.2540000  15.9660000   7.0170000  26.2690000  15.9710000   8.0360000
  28.4980000  15.2370000   7.2490000  27.0830000  16.6460000   5.8040000
  26.4650000  15.3120000   9.2360000  25.4550000  16.4390000   7.8910000
  28.6680000  14.5600000   8.4730000  29.4730000  15.2320000   6.2450000
  28.0590000  16.6410000   4.8000000  26.2690000  17.1190000   5.6730000
  25.4810000  15.3280000  10.2740000  27.6960000  14.5870000   9.4630000
  29.4690000  14.0730000   8.6250000  30.2870000  14.7590000   6.3760000
  29.3030000  15.9120000   5.0320000  27.8880000  17.3180000   3.5760000
  25.6920000  14.6850000  11.4460000  24.6660000  15.7970000  10.1370000
  27.8670000  13.9270000  10.7170000  30.2870000  15.9070000   4.0130000
  28.8610000  17.2900000   2.5860000  27.0870000  17.8050000   3.4240000
  26.9100000  13.9700000  11.6750000  25.0250000  14.7080000  12.1220000
  28.6700000  13.4460000  10.8820000  31.1020000  15.4390000   4.1580000
  30.0920000  16.5660000   2.8120000  28.6890000  17.9500000   1.3320000
  27.0480000  13.5250000  12.5030000  31.0760000  16.5490000   1.7750000
  29.6470000  17.9070000   0.3740000  27.8860000  18.4310000   1.1660000
  30.8650000  17.1930000   0.6030000  31.8910000  16.0800000   1.9110000
  29.5080000  18.3520000  -0.4540000  31.5310000  17.1700000  -0.0730000
  32.4380000  64.1890000  49.1870000  31.4540000  64.1940000  50.2060000
  33.6820000  63.4600000  49.4190000  32.2670000  64.8700000  47.9740000
  31.6490000  63.5350000  51.4070000  30.6390000  64.6620000  50.0620000
  33.8520000  62.7840000  50.6430000  34.6580000  63.4550000  48.4150000
  33.2430000  64.8640000  46.9700000  31.4540000  65.3420000  47.8430000
  30.6650000  63.5520000  52.4440000  32.8800000  62.8110000  51.6330000
  34.6540000  62.2960000  50.7950000  35.4710000  62.9830000  48.5460000
  34.4870000  64.1350000  47.2020000  33.0730000  65.5410000  45.7460000
  30.8760000  62.9080000  53.6170000  29.8500000  64.0210000  52.3080000
  33.0520000  62.1510000  52.8870000  35.4720000  64.1300000  46.1830000
  34.0450000  65.5140000  44.7560000  32.2720000  66.0290000  45.5940000
  32.0940000  62.1940000  53.8460000  30.2100000  62.9320000  54.2930000
  33.8540000  61.6700000  53.0530000  36.2860000  63.6630000  46.3280000
  35.2760000  64.7900000  44.9830000  33.8730000  66.1740000  43.5030000
  32.2320000  61.7490000  54.6740000  36.2600000  64.7730000  43.9450000
  34.8310000  66.1310000  42.5440000  33.0710000  66.6550000  43.3370000
  36.0490000  65.4160000  42.7730000  37.0750000  64.3040000  44.0820000
  34.6930000  66.5760000  41.7160000  36.7150000  65.3930000  42.0970000
  28.7260000  31.3230000   7.0170000  27.7410000  31.3280000   8.0360000
  29.9700000  30.5940000   7.2490000  28.5550000  32.0030000   5.8040000
  27.9370000  30.6690000   9.2360000  26.9270000  31.7960000   7.8910000
  30.1400000  29.9170000   8.4730000  30.9460000  30.5890000   6.2450000
  29.5310000  31.9980000   4.8000000  27.7420000  32.4760000   5.6730000
  26.9530000  30.6860000  10.2740000  29.1680000  29.9440000   9.4630000
  30.9420000  29.4300000   8.6250000  31.7590000  30.1160000   6.3760000
  30.7750000  31.2690000   5.0320000  29.3610000  32.6750000   3.5760000
  27.1640000  30.0420000  11.4460000  26.1380000  31.1540000  10.1370000
  29.3400000  29.2850000  10.7170000  31.7590000  31.2640000   4.0130000
  30.3330000  32.6480000   2.5860000  28.5590000  33.1620000   3.4240000
  28.3820000  29.3280000  11.6750000  26.4980000  30.0650000  12.1220000
  30.1420000  28.8030000  10.8820000  32.5740000  30.7960000   4.1580000
  31.5640000  31.9230000   2.8120000  30.1610000  33.3070000   1.3320000
  28.5200000  28.8830000  12.5030000  32.5480000  31.9060000   1.7750000
  31.1190000  33.2640000   0.3740000  29.3590000  33.7890000   1.1660000
  32.3370000  32.5500000   0.6030000  33.3630000  31.4380000   1.9110000
  30.9810000  33.7100000  -0.4540000  33.0030000  32.5270000  -0.0730000
  29.4620000  39.0020000   7.0170000  28.4780000  39.0070000   8.0360000
  30.7060000  38.2730000   7.2490000  29.2910000  39.6820000   5.8040000
  28.6730000  38.3470000   9.2360000  27.6630000  39.4740000   7.8910000
  30.8760000  37.5960000   8.4730000  31.6820000  38.2670000   6.2450000
  30.2670000  39.6770000   4.8000000  28.4780000  40.1540000   5.6730000
  27.6890000  38.3640000  10.2740000  29.9040000  37.6230000   9.4630000
  31.6780000  37.1080000   8.6250000  32.4950000  37.7950000   6.3760000
  31.5110000  38.9480000   5.0320000  30.0970000  40.3530000   3.5760000
  27.9000000  37.7210000  11.4460000  26.8740000  38.8330000  10.1370000
  30.0760000  36.9630000  10.7170000  32.4960000  38.9430000   4.0130000
  31.0690000  40.3260000   2.5860000  29.2950000  40.8410000   3.4240000
  29.1180000  37.0060000  11.6750000  27.2340000  37.7440000  12.1220000
  30.8780000  36.4820000  10.8820000  33.3100000  38.4750000   4.1580000
  32.3000000  39.6020000   2.8120000  30.8970000  40.9860000   1.3320000
  29.2560000  36.5610000  12.5030000  33.2840000  39.5850000   1.7750000
  31.8550000  40.9430000   0.3740000  30.0950000  41.4670000   1.1660000
  33.0730000  40.2290000   0.6030000  34.0990000  39.1160000   1.9110000
  31.7170000  41.3880000  -0.4540000  33.7390000  40.2050000  -0.0730000
  32.9760000  42.2400000   6.8310000  31.9840000  41.6690000   7.6630000
  34.2070000  42.7280000   7.4360000  32.7970000  42.3420000   5.4440000
  32.1630000  41.5680000   9.0380000  31.1790000  41.3480000   7.2740000
  34.3630000  42.6090000   8.8270000  35.1880000  43.2860000   6.6050000
  33.7780000  42.9000000   4.6130000  31.9830000  42.0250000   5.0710000
  31.1670000  40.9820000   9.9010000  33.3870000  42.0440000   9.6370000
  35.1650000  42.9260000   9.2280000  36.0010000  43.6030000   6.9770000
  35.0090000  43.3880000   5.2170000  33.6210000  43.0190000   3.2210000
  31.3650000  40.8850000  11.2370000  30.3570000  40.6580000   9.5260000
  33.5510000  41.9180000  11.0590000  36.0000000  43.9590000   4.3850000
  34.5970000  43.5840000   2.4120000  32.8200000  42.7010000   2.8210000
  32.5720000  41.3670000  11.8210000  30.6960000  40.4930000  11.7860000
  34.3510000  42.2250000  11.4710000  36.8060000  44.2800000   4.7750000
  35.8220000  44.0600000   3.0110000  34.4330000  43.7100000   0.9890000
  32.6930000  41.3020000  12.7620000  36.8180000  44.6460000   2.1470000
  35.4120000  44.2610000   0.2270000  33.6340000  43.4030000   0.5770000
  36.6200000  44.7430000   0.8120000  37.6280000  44.9700000   2.5230000
  35.2910000  44.3260000  -0.7130000  37.2880000  45.1350000   0.2620000
  31.8290000   8.2710000  19.2740000  32.8210000   8.8430000  18.4420000
  30.5980000   7.7830000  18.6700000  32.0090000   8.1690000  20.6620000
  32.6420000   8.9440000  17.0670000  33.6260000   9.1640000  18.8320000
  30.4420000   7.9030000  17.2780000  29.6170000   7.2260000  19.5010000
  31.0270000   7.6120000  21.4920000  32.8220000   8.4870000  21.0340000
  33.6390000   9.5300000  16.2040000  31.4180000   8.4680000  16.4690000
  29.6410000   7.5850000  16.8780000  28.8040000   6.9090000  19.1280000
  29.7970000   7.1240000  20.8880000  31.1840000   7.4930000  22.8840000
  33.4410000   9.6270000  14.8690000  34.4480000   9.8540000  16.5800000
  31.2540000   8.5930000  15.0460000  28.8050000   6.5530000  21.7200000
  30.2080000   6.9270000  23.6940000  31.9850000   7.8100000  23.2850000
  32.2330000   9.1440000  14.2840000  34.1090000  10.0190000  14.3190000
  30.4540000   8.2870000  14.6340000  27.9990000   6.2310000  21.3310000
  28.9830000   6.4520000  23.0950000  30.3720000   6.8020000  25.1160000
  32.1120000   9.2090000  13.3440000  27.9870000   5.8660000  23.9580000
  29.3930000   6.2510000  25.8780000  31.1720000   7.1090000  25.5280000
  28.1850000   5.7680000  25.2930000  27.1780000   5.5420000  23.5830000
  29.5140000   6.1860000  26.8190000  27.5170000   5.3770000  25.8430000
  29.2950000   3.8470000   6.8310000  28.3030000   3.2760000   7.6630000
  30.5260000   4.3350000   7.4360000  29.1160000   3.9490000   5.4440000
  28.4820000   3.1750000   9.0380000  27.4980000   2.9550000   7.2740000
  30.6830000   4.2160000   8.8270000  31.5070000   4.8930000   6.6050000
  30.0970000   4.5070000   4.6130000  28.3030000   3.6320000   5.0710000
  27.4860000   2.5890000   9.9010000  29.7070000   3.6510000   9.6370000
  31.4840000   4.5330000   9.2280000  32.3210000   5.2100000   6.9770000
  31.3280000   4.9950000   5.2170000  29.9410000   4.6260000   3.2210000
  27.6840000   2.4920000  11.2370000  26.6760000   2.2650000   9.5260000
  29.8710000   3.5250000  11.0590000  32.3200000   5.5660000   4.3850000
  30.9170000   5.1910000   2.4120000  29.1390000   4.3080000   2.8210000
  28.8920000   2.9740000  11.8210000  27.0160000   2.1000000  11.7860000
  30.6700000   3.8320000  11.4710000  33.1250000   5.8870000   4.7750000
  32.1410000   5.6670000   3.0110000  30.7530000   5.3170000   0.9890000
  29.0130000   2.9090000  12.7620000  33.1370000   6.2530000   2.1470000
  31.7320000   5.8680000   0.2270000  29.9530000   5.0100000   0.5770000
  32.9390000   6.3500000   0.8120000  33.9470000   6.5770000   2.5230000
  31.6110000   5.9330000  -0.7130000  33.6080000   6.7420000   0.2620000
  30.0320000  11.5260000   6.8310000  29.0400000  10.9540000   7.6630000
  31.2620000  12.0140000   7.4360000  29.8520000  11.6280000   5.4440000
  29.2180000  10.8530000   9.0380000  28.2340000  10.6330000   7.2740000
  31.4190000  11.8940000   8.8270000  32.2430000  12.5710000   6.6050000
  30.8330000  12.1850000   4.6130000  29.0390000  11.3110000   5.0710000
  28.2220000  10.2670000   9.9010000  30.4430000  11.3290000   9.6370000
  32.2200000  12.2120000   9.2280000  33.0570000  12.8880000   6.9770000
  32.0640000  12.6730000   5.2170000  30.6770000  12.3050000   3.2210000
  28.4200000  10.1700000  11.2370000  27.4120000   9.9430000   9.5260000
  30.6070000  11.2040000  11.0590000  33.0560000  13.2450000   4.3850000
  31.6530000  12.8700000   2.4120000  29.8750000  11.9870000   2.8210000
  29.6280000  10.6530000  11.8210000  27.7520000   9.7780000  11.7860000
  31.4060000  11.5100000  11.4710000  33.8610000  13.5660000   4.7750000
  32.8770000  13.3460000   3.0110000  31.4890000  12.9950000   0.9890000
  29.7490000  10.5880000  12.7620000  33.8730000  13.9320000   2.1470000
  32.4680000  13.5460000   0.2270000  30.6890000  12.6890000   0.5770000
  33.6750000  14.0290000   0.8120000  34.6830000  14.2560000   2.5230000
  32.3470000  13.6110000  -0.7130000  34.3440000  14.4210000   0.2620000
  31.2690000  22.4810000  20.8880000  30.2770000  21.9100000  21.7200000
  32.5000000  22.9690000  21.4920000  31.0900000  22.5830000  19.5010000
  30.4560000  21.8090000  23.0950000  29.4720000  21.5890000  21.3310000
  32.6560000  22.8500000  22.8840000  33.4810000  23.5270000  20.6620000
  32.0710000  23.1410000  18.6700000  30.2760000  22.2660000  19.1280000
  29.4600000  21.2230000  23.9580000  31.6800000  22.2850000  23.6940000
  33.4580000  23.1680000  23.2850000  34.2940000  23.8440000  21.0340000
  33.3010000  23.6290000  19.2740000  31.9140000  23.2600000  17.2780000
  29.6580000  21.1260000  25.2930000  28.6500000  20.8990000  23.5830000
  31.8440000  22.1590000  25.1160000  34.2930000  24.2000000  18.4420000
  32.8900000  23.8250000  16.4690000  31.1130000  22.9420000  16.8780000
  30.8650000  21.6080000  25.8780000  28.9890000  20.7340000  25.8430000
  32.6440000  22.4660000  25.5280000  35.0990000  24.5210000  18.8320000
  34.1150000  24.3010000  17.0670000  32.7260000  23.9510000  15.0460000
  30.9860000  21.5430000  26.8190000  35.1110000  24.8870000  16.2040000
  33.7050000  24.5020000  14.2840000  31.9270000  23.6440000  14.6340000
  34.9130000  24.9840000  14.8690000  35.9210000  25.2110000  16.5800000
  33.5840000  24.5670000  13.3440000  35.5810000  25.3760000  14.3190000
  31.7700000  25.7580000  34.9450000  30.7780000  25.1870000  35.7770000
  33.0010000  26.2460000  35.5490000  31.5910000  25.8600000  33.5570000
  30.9570000  25.0860000  37.1520000  29.9730000  24.8650000  35.3880000
  33.1570000  26.1270000  36.9410000  33.9820000  26.8030000  34.7190000
  32.5720000  26.4170000  32.7270000  30.7770000  25.5430000  33.1850000
  29.9610000  24.5000000  38.0150000  32.1810000  25.5610000  37.7510000
  33.9590000  26.4440000  37.3420000  34.7960000  27.1210000  35.0910000
  33.8030000  26.9050000  33.3310000  32.4150000  26.5370000  31.3350000
  30.1590000  24.4020000  39.3500000  29.1510000  24.1760000  37.6400000
  32.3450000  25.4360000  39.1730000  34.7950000  27.4770000  32.4990000
  33.3910000  27.1020000  30.5250000  31.6140000  26.2190000  30.9340000
  31.3660000  24.8850000  39.9350000  29.4900000  24.0110000  39.9000000
  33.1450000  25.7430000  39.5850000  35.6000000  27.7980000  32.8880000
  34.6160000  27.5780000  31.1240000  33.2280000  27.2270000  29.1030000
  31.4870000  24.8200000  40.8750000  35.6120000  28.1640000  30.2610000
  34.2070000  27.7790000  28.3410000  32.4280000  26.9210000  28.6910000
  35.4140000  28.2610000  28.9260000  36.4220000  28.4880000  30.6360000
  34.0850000  27.8430000  27.4010000  36.0820000  28.6530000  28.3760000
  34.3040000  30.1820000  47.3880000  35.2960000  30.7540000  46.5560000
  33.0730000  29.6940000  46.7830000  34.4830000  30.0800000  48.7750000
  35.1170000  30.8550000  45.1810000  36.1010000  31.0750000  46.9450000
  32.9170000  29.8140000  45.3920000  32.0920000  29.1370000  47.6140000
  33.5020000  29.5230000  49.6060000  35.2970000  30.3970000  49.1480000
  36.1130000  31.4410000  44.3180000  33.8930000  30.3790000  44.5820000
  32.1150000  29.4960000  44.9910000  31.2790000  28.8200000  47.2420000
  32.2710000  29.0350000  49.0020000  33.6590000  29.4040000  50.9980000
  35.9150000  31.5380000  42.9830000  36.9230000  31.7650000  44.6930000
  33.7290000  30.5040000  43.1600000  31.2800000  28.4630000  49.8340000
  32.6830000  28.8380000  51.8070000  34.4600000  29.7210000  51.3980000
  34.7080000  31.0550000  42.3980000  36.5840000  31.9300000  42.4330000
  32.9290000  30.1980000  42.7480000  30.4740000  28.1420000  49.4440000
  31.4580000  28.3620000  51.2090000  32.8470000  28.7130000  53.2300000
  34.5870000  31.1200000  41.4570000  30.4620000  27.7770000  52.0720000
  31.8680000  28.1620000  53.9920000  33.6460000  29.0190000  53.6420000
  30.6600000  27.6790000  53.4070000  29.6520000  27.4530000  51.6960000
  31.9890000  28.0970000  54.9320000  29.9920000  27.2880000  53.9570000
  34.8050000  33.4590000  61.4450000  35.7970000  34.0310000  60.6130000
  33.5740000  32.9710000  60.8400000  34.9850000  33.3570000  62.8320000
  35.6190000  34.1320000  59.2380000  36.6030000  34.3520000  61.0020000
  33.4180000  33.0910000  59.4490000  32.5930000  32.4140000  61.6710000
  34.0030000  32.8000000  63.6630000  35.7980000  33.6740000  63.2050000
  36.6150000  34.7180000  58.3750000  34.3940000  33.6560000  58.6390000
  32.6170000  32.7730000  59.0480000  31.7800000  32.0970000  61.2990000
  32.7730000  32.3120000  63.0580000  34.1600000  32.6800000  65.0550000
  36.4170000  34.8150000  57.0390000  37.4240000  35.0420000  58.7500000
  34.2300000  33.7810000  57.2160000  31.7810000  31.7400000  63.8910000
  33.1840000  32.1150000  65.8640000  34.9610000  32.9980000  65.4550000
  35.2090000  34.3320000  56.4550000  37.0850000  35.2070000  56.4900000
  33.4300000  33.4750000  56.8050000  30.9750000  31.4190000  63.5010000
  31.9590000  31.6390000  65.2650000  33.3480000  31.9900000  67.2870000
  35.0880000  34.3970000  55.5140000  30.9630000  31.0530000  66.1280000
  32.3690000  31.4390000  68.0490000  34.1480000  32.2960000  67.6990000
  31.1610000  30.9560000  67.4640000  30.1540000  30.7290000  65.7530000
  32.4900000  31.3740000  68.9890000  30.4930000  30.5640000  68.0130000
  32.0050000  30.1600000  20.8880000  31.0130000  29.5880000  21.7200000
  33.2360000  30.6480000  21.4920000  31.8260000  30.2620000  19.5010000
  31.1920000  29.4870000  23.0950000  30.2080000  29.2670000  21.3310000
  33.3920000  30.5290000  22.8840000  34.2170000  31.2050000  20.6620000
  32.8070000  30.8190000  18.6700000  31.0120000  29.9450000  19.1280000
  30.1960000  28.9010000  23.9580000  32.4160000  29.9630000  23.6940000
  34.1940000  30.8460000  23.2850000  35.0300000  31.5220000  21.0340000
  34.0380000  31.3070000  19.2740000  32.6500000  30.9390000  17.2780000
  30.3940000  28.8040000  25.2930000  29.3860000  28.5770000  23.5830000
  32.5800000  29.8380000  25.1160000  35.0300000  31.8790000  18.4420000
  33.6260000  31.5040000  16.4690000  31.8490000  30.6210000  16.8780000
  31.6010000  29.2870000  25.8780000  29.7250000  28.4130000  25.8430000
  33.3800000  30.1440000  25.5280000  35.8350000  32.2000000  18.8320000
  34.8510000  31.9800000  17.0670000  33.4620000  31.6290000  15.0460000
  31.7220000  29.2220000  26.8190000  35.8470000  32.5660000  16.2040000
  34.4410000  32.1800000  14.2840000  32.6630000  31.3230000  14.6340000
  35.6490000  32.6630000  14.8690000  36.6570000  32.8900000  16.5800000
  34.3200000  32.2450000  13.3440000  36.3170000  33.0550000  14.3190000
  31.5040000  26.8830000   6.8310000  30.5120000  26.3120000   7.6630000
  32.7350000  27.3710000   7.4360000  31.3240000  26.9850000   5.4440000
  30.6910000  26.2100000   9.0380000  29.7070000  25.9900000   7.2740000
  32.8910000  27.2520000   8.8270000  33.7160000  27.9280000   6.6050000
  32.3060000  27.5420000   4.6130000  30.5110000  26.6680000   5.0710000
  29.6940000  25.6250000   9.9010000  31.9150000  26.6860000   9.6370000
  33.6920000  27.5690000   9.2280000  34.5290000  28.2460000   6.9770000
  33.5360000  28.0300000   5.2170000  32.1490000  27.6620000   3.2210000
  29.8920000  25.5270000  11.2370000  28.8850000  25.3010000   9.5260000
  32.0790000  26.5610000  11.0590000  34.5280000  28.6020000   4.3850000
  33.1250000  28.2270000   2.4120000  31.3480000  27.3440000   2.8210000
  31.1000000  26.0100000  11.8210000  29.2240000  25.1360000  11.7860000
  32.8790000  26.8680000  11.4710000  35.3340000  28.9230000   4.7750000
  34.3500000  28.7030000   3.0110000  32.9610000  28.3520000   0.9890000
  31.2210000  25.9450000  12.7620000  35.3460000  29.2890000   2.1470000
  33.9400000  28.9030000   0.2270000  32.1610000  28.0460000   0.5770000
  35.1480000  29.3860000   0.8120000  36.1550000  29.6130000   2.5230000
  33.8190000  28.9680000  -0.7130000  35.8160000  29.7780000   0.2620000
  34.2720000  35.7090000   5.2170000  35.2640000  36.2810000   4.3850000
  33.0420000  35.2210000   4.6130000  34.4520000  35.6070000   6.6050000
  35.0860000  36.3820000   3.0110000  36.0700000  36.6020000   4.7750000
  32.8850000  35.3400000   3.2210000  32.0600000  34.6640000   5.4440000
  33.4710000  35.0500000   7.4360000  35.2650000  35.9240000   6.9770000
  36.0820000  36.9670000   2.1470000  33.8610000  35.9060000   2.4120000
  32.0840000  35.0230000   2.8210000  31.2470000  34.3460000   5.0710000
  32.2400000  34.5620000   6.8310000  33.6270000  34.9300000   8.8270000
  35.8840000  37.0650000   0.8120000  36.8920000  37.2910000   2.5230000
  33.6970000  36.0310000   0.9890000  31.2480000  33.9900000   7.6630000
  32.6510000  34.3650000   9.6370000  34.4280000  35.2480000   9.2280000
  34.6760000  36.5820000   0.2270000  36.5520000  37.4560000   0.2620000
  32.8980000  35.7250000   0.5770000  30.4430000  33.6690000   7.2740000
  31.4270000  33.8890000   9.0380000  32.8150000  34.2400000  11.0590000
  34.5550000  36.6470000  -0.7130000  30.4310000  33.3030000   9.9010000
  31.8360000  33.6890000  11.8210000  33.6150000  34.5460000  11.4710000
  30.6290000  33.2060000  11.2370000  29.6210000  32.9790000   9.5260000
  31.9570000  33.6240000  12.7620000  29.9600000  32.8140000  11.7860000
  35.5100000  46.6640000  19.2740000  36.5020000  47.2360000  18.4420000
  34.2790000  46.1760000  18.6700000  35.6890000  46.5620000  20.6620000
  36.3230000  47.3370000  17.0670000  37.3070000  47.5570000  18.8320000
  34.1230000  46.2960000  17.2780000  33.2980000  45.6190000  19.5010000
  34.7080000  46.0050000  21.4920000  36.5030000  46.8800000  21.0340000
  37.3190000  47.9230000  16.2040000  35.0990000  46.8610000  16.4690000
  33.3210000  45.9780000  16.8780000  32.4840000  45.3020000  19.1280000
  33.4770000  45.5170000  20.8880000  34.8640000  45.8860000  22.8840000
  37.1210000  48.0200000  14.8690000  38.1290000  48.2470000  16.5800000
  34.9350000  46.9860000  15.0460000  32.4850000  44.9460000  21.7200000
  33.8890000  45.3200000  23.6940000  35.6660000  46.2030000  23.2850000
  35.9140000  47.5370000  14.2840000  37.7900000  48.4120000  14.3190000
  34.1350000  46.6800000  14.6340000  31.6800000  44.6240000  21.3310000
  32.6640000  44.8440000  23.0950000  34.0520000  45.1950000  25.1160000
  35.7930000  47.6020000  13.3440000  31.6680000  44.2590000  23.9580000
  33.0730000  44.6440000  25.8780000  34.8520000  45.5020000  25.5280000
  31.8660000  44.1610000  25.2930000  30.8580000  43.9350000  23.5830000
  33.1950000  44.5790000  26.8190000  31.1980000  43.7700000  25.8430000
  33.7120000  49.9190000   6.8310000  32.7200000  49.3470000   7.6630000
  34.9430000  50.4070000   7.4360000  33.5330000  50.0210000   5.4440000
  32.8990000  49.2460000   9.0380000  31.9150000  49.0260000   7.2740000
  35.0990000  50.2870000   8.8270000  35.9240000  50.9640000   6.6050000
  34.5140000  50.5780000   4.6130000  32.7190000  49.7040000   5.0710000
  31.9030000  48.6600000   9.9010000  34.1230000  49.7220000   9.6370000
  35.9010000  50.6050000   9.2280000  36.7380000  51.2810000   6.9770000
  35.7450000  51.0660000   5.2170000  34.3570000  50.6980000   3.2210000
  32.1010000  48.5630000  11.2370000  31.0930000  48.3360000   9.5260000
  34.2870000  49.5970000  11.0590000  36.7370000  51.6380000   4.3850000
  35.3330000  51.2630000   2.4120000  33.5560000  50.3800000   2.8210000
  33.3080000  49.0460000  11.8210000  31.4320000  48.1710000  11.7860000
  35.0870000  49.9030000  11.4710000  37.5420000  51.9590000   4.7750000
  36.5580000  51.7390000   3.0110000  35.1700000  51.3880000   0.9890000
  33.4290000  48.9810000  12.7620000  37.5540000  52.3250000   2.1470000
  36.1490000  51.9390000   0.2270000  34.3700000  51.0820000   0.5770000
  37.3560000  52.4220000   0.8120000  38.3640000  52.6490000   2.5230000
  36.0270000  52.0040000  -0.7130000  38.0240000  52.8140000   0.2620000
  32.8320000  14.8250000  47.3880000  33.8240000  15.3970000  46.5560000
  31.6010000  14.3370000  46.7830000  33.0110000  14.7230000  48.7750000
  33.6450000  15.4980000  45.1810000  34.6290000  15.7180000  46.9450000
  31.4450000  14.4570000  45.3920000  30.6200000  13.7800000  47.6140000
  32.0300000  14.1660000  49.6060000  33.8250000  15.0400000  49.1480000
  34.6410000  16.0840000  44.3180000  32.4200000  15.0220000  44.5820000
  30.6430000  14.1390000  44.9910000  29.8060000  13.4630000  47.2420000
  30.7990000  13.6780000  49.0020000  32.1860000  14.0460000  50.9980000
  34.4430000  16.1810000  42.9830000  35.4510000  16.4080000  44.6930000
  32.2570000  15.1470000  43.1600000  29.8070000  13.1060000  49.8340000
  31.2110000  13.4810000  51.8070000  32.9880000  14.3640000  51.3980000
  33.2360000  15.6980000  42.3980000  35.1110000  16.5720000  42.4330000
  31.4570000  14.8410000  42.7480000  29.0020000  12.7850000  49.4440000
  29.9860000  13.0050000  51.2090000  31.3740000  13.3560000  53.2300000
  33.1140000  15.7630000  41.4570000  28.9900000  12.4190000  52.0720000
  30.3950000  12.8050000  53.9920000  32.1740000  13.6620000  53.6420000
  29.1880000  12.3220000  53.4070000  28.1800000  12.0950000  51.6960000
  30.5160000  12.7400000  54.9320000  28.5190000  11.9300000  53.9570000
  33.3330000  18.1020000  61.4450000  34.3250000  18.6730000  60.6130000
  32.1020000  17.6140000  60.8400000  33.5120000  18.0000000  62.8320000
  34.1460000  18.7750000  59.2380000  35.1300000  18.9950000  61.0020000
  31.9460000  17.7330000  59.4490000  31.1210000  17.0570000  61.6710000
  32.5310000  17.4430000  63.6630000  34.3260000  18.3170000  63.2050000
  35.1420000  19.3600000  58.3750000  32.9220000  18.2990000  58.6390000
  31.1440000  17.4160000  59.0480000  30.3080000  16.7390000  61.2990000
  31.3000000  16.9550000  63.0580000  32.6880000  17.3230000  65.0550000
  34.9440000  19.4580000  57.0390000  35.9520000  19.6840000  58.7500000
  32.7580000  18.4240000  57.2160000  30.3090000  16.3830000  63.8910000
  31.7120000  16.7580000  65.8640000  33.4890000  17.6410000  65.4550000
  33.7370000  18.9750000  56.4550000  35.6130000  19.8490000  56.4900000
  31.9580000  18.1170000  56.8050000  29.5030000  16.0620000  63.5010000
  30.4870000  16.2820000  65.2650000  31.8760000  16.6330000  67.2870000
  33.6160000  19.0400000  55.5140000  29.4910000  15.6960000  66.1280000
  30.8970000  16.0820000  68.0490000  32.6750000  16.9390000  67.6990000
  29.6890000  15.5990000  67.4640000  28.6810000  15.3720000  65.7530000
  31.0180000  16.0170000  68.9890000  29.0210000  15.2070000  68.0130000
  30.2980000  10.4010000  34.9450000  29.3060000   9.8290000  35.7770000
  31.5290000  10.8890000  35.5490000  30.1190000  10.5030000  33.5570000
  29.4850000   9.7280000  37.1520000  28.5010000   9.5080000  35.3880000
  31.6850000  10.7700000  36.9410000  32.5100000  11.4460000  34.7190000
  31.1000000  11.0600000  32.7270000  29.3050000  10.1860000  33.1850000
  28.4890000   9.1420000  38.0150000  30.7090000  10.2040000  37.7510000
  32.4870000  11.0870000  37.3420000  33.3230000  11.7630000  35.0910000
  32.3310000  11.5480000  33.3310000  30.9430000  11.1800000  31.3350000
  28.6870000   9.0450000  39.3500000  27.6790000   8.8180000  37.6400000
  30.8730000  10.0790000  39.1730000  33.3220000  12.1200000  32.4990000
  31.9190000  11.7450000  30.5250000  30.1420000  10.8620000  30.9340000
  29.8940000   9.5280000  39.9350000  28.0180000   8.6540000  39.9000000
  31.6730000  10.3850000  39.5850000  34.1280000  12.4410000  32.8880000
  33.1440000  12.2210000  31.1240000  31.7550000  11.8700000  29.1030000
  30.0150000   9.4630000  40.8750000  34.1400000  12.8070000  30.2610000
  32.7340000  12.4210000  28.3410000  30.9560000  11.5640000  28.6910000
  33.9420000  12.9040000  28.9260000  34.9500000  13.1310000  30.6360000
  32.6130000  12.4860000  27.4010000  34.6100000  13.2960000  28.3760000
  34.0690000  25.7810000  61.4450000  35.0610000  26.3520000  60.6130000
  32.8380000  25.2930000  60.8400000  34.2490000  25.6790000  62.8320000
  34.8820000  26.4530000  59.2380000  35.8660000  26.6730000  61.0020000
  32.6820000  25.4120000  59.4490000  31.8570000  24.7350000  61.6710000
  33.2670000  25.1210000  63.6630000  35.0620000  25.9960000  63.2050000
  35.8780000  27.0390000  58.3750000  33.6580000  25.9770000  58.6390000
  31.8810000  25.0940000  59.0480000  31.0440000  24.4180000  61.2990000
  32.0370000  24.6330000  63.0580000  33.4240000  25.0020000  65.0550000
  35.6800000  27.1360000  57.0390000  36.6880000  27.3630000  58.7500000
  33.4940000  26.1020000  57.2160000  31.0450000  24.0620000  63.8910000
  32.4480000  24.4370000  65.8640000  34.2250000  25.3190000  65.4550000
  34.4730000  26.6540000  56.4550000  36.3490000  27.5280000  56.4900000
  32.6940000  25.7960000  56.8050000  30.2390000  23.7410000  63.5010000
  31.2230000  23.9610000  65.2650000  32.6120000  24.3110000  67.2870000
  34.3520000  26.7180000  55.5140000  30.2270000  23.3750000  66.1280000
  31.6330000  23.7600000  68.0490000  33.4120000  24.6180000  67.6990000
  30.4250000  23.2780000  67.4640000  29.4180000  23.0510000  65.7530000
  31.7540000  23.6950000  68.9890000  29.7570000  22.8860000  68.0130000
  32.5650000  15.9500000  19.2740000  33.5570000  16.5220000  18.4420000
  31.3350000  15.4620000  18.6700000  32.7450000  15.8480000  20.6620000
  33.3790000  16.6230000  17.0670000  34.3630000  16.8430000  18.8320000
  31.1780000  15.5810000  17.2780000  30.3530000  14.9050000  19.5010000
  31.7640000  15.2910000  21.4920000  33.5580000  16.1650000  21.0340000
  34.3750000  17.2090000  16.2040000  32.1540000  16.1470000  16.4690000
  30.3770000  15.2640000  16.8780000  29.5400000  14.5880000  19.1280000
  30.5330000  14.8030000  20.8880000  31.9200000  15.1710000  22.8840000
  34.1770000  17.3060000  14.8690000  35.1840000  17.5330000  16.5800000
  31.9900000  16.2720000  15.0460000  29.5410000  14.2310000  21.7200000
  30.9440000  14.6060000  23.6940000  32.7210000  15.4890000  23.2850000
  32.9690000  16.8230000  14.2840000  34.8450000  17.6970000  14.3190000
  31.1900000  15.9660000  14.6340000  28.7360000  13.9100000  21.3310000
  29.7200000  14.1300000  23.0950000  31.1080000  14.4810000  25.1160000
  32.8480000  16.8880000  13.3440000  28.7240000  13.5440000  23.9580000
  30.1290000  13.9300000  25.8780000  31.9080000  14.7870000  25.5280000
  28.9210000  13.4470000  25.2930000  27.9140000  13.2200000  23.5830000
  30.2500000  13.8650000  26.8190000  28.2530000  13.0550000  25.8430000
  31.5350000  21.3560000  49.0020000  30.5430000  20.7850000  49.8340000
  32.7660000  21.8440000  49.6060000  31.3560000  21.4580000  47.6140000
  30.7220000  20.6840000  51.2090000  29.7380000  20.4640000  49.4440000
  32.9230000  21.7250000  50.9980000  33.7470000  22.4020000  48.7750000
  32.3370000  22.0160000  46.7830000  30.5420000  21.1410000  47.2420000
  29.7260000  20.0980000  52.0720000  31.9470000  21.1600000  51.8070000
  33.7240000  22.0430000  51.3980000  34.5610000  22.7190000  49.1480000
  33.5680000  22.5040000  47.3880000  32.1810000  22.1350000  45.3920000
  29.9240000  20.0010000  53.4070000  28.9160000  19.7740000  51.6960000
  32.1100000  21.0340000  53.2300000  34.5600000  23.0750000  46.5560000
  33.1570000  22.7000000  44.5820000  31.3790000  21.8180000  44.9910000
  31.1310000  20.4830000  53.9920000  29.2560000  19.6090000  53.9570000
  32.9100000  21.3410000  53.6420000  35.3650000  23.3960000  46.9450000
  34.3810000  23.1760000  45.1810000  32.9930000  22.8260000  43.1600000
  31.2530000  20.4180000  54.9320000  35.3770000  23.7620000  44.3180000
  33.9720000  23.3770000  42.3980000  32.1930000  22.5190000  42.7480000
  35.1790000  23.8590000  42.9830000  36.1870000  24.0860000  44.6930000
  33.8510000  23.4420000  41.4570000  35.8480000  24.2510000  42.4330000
  31.0340000  18.0800000  34.9450000  30.0420000  17.5080000  35.7770000
  32.2650000  18.5680000  35.5490000  30.8550000  18.1820000  33.5570000
  30.2210000  17.4070000  37.1520000  29.2370000  17.1870000  35.3880000
  32.4210000  18.4480000  36.9410000  33.2460000  19.1250000  34.7190000
  31.8360000  18.7390000  32.7270000  30.0410000  17.8640000  33.1850000
  29.2250000  16.8210000  38.0150000  31.4450000  17.8830000  37.7510000
  33.2230000  18.7660000  37.3420000  34.0600000  19.4420000  35.0910000
  33.0670000  19.2270000  33.3310000  31.6790000  18.8580000  31.3350000
  29.4230000  16.7240000  39.3500000  28.4150000  16.4970000  37.6400000
  31.6090000  17.7580000  39.1730000  34.0590000  19.7980000  32.4990000
  32.6550000  19.4240000  30.5250000  30.8780000  18.5410000  30.9340000
  30.6300000  17.2060000  39.9350000  28.7540000  16.3320000  39.9000000
  32.4090000  18.0640000  39.5850000  34.8640000  20.1200000  32.8880000
  33.8800000  19.8990000  31.1240000  32.4910000  19.5490000  29.1030000
  30.7510000  17.1420000  40.8750000  34.8760000  20.4850000  30.2610000
  33.4700000  20.1000000  28.3410000  31.6920000  19.2420000  28.6910000
  34.6780000  20.5830000  28.9260000  35.6860000  20.8090000  30.6360000
  33.3490000  20.1650000  27.4010000  35.3460000  20.9740000  28.3760000
  30.7680000  19.2050000   6.8310000  29.7760000  18.6330000   7.6630000
  31.9980000  19.6920000   7.4360000  30.5880000  19.3060000   5.4440000
  29.9540000  18.5320000   9.0380000  28.9700000  18.3120000   7.2740000
  32.1550000  19.5730000   8.8270000  32.9800000  20.2500000   6.6050000
  31.5690000  19.8640000   4.6130000  29.7750000  18.9890000   5.0710000
  28.9580000  17.9460000   9.9010000  31.1790000  19.0080000   9.6370000
  32.9560000  19.8910000   9.2280000  33.7930000  20.5670000   6.9770000
  32.8000000  20.3520000   5.2170000  31.4130000  19.9830000   3.2210000
  29.1560000  17.8490000  11.2370000  28.1490000  17.6220000   9.5260000
  31.3430000  18.8830000  11.0590000  33.7920000  20.9230000   4.3850000
  32.3890000  20.5480000   2.4120000  30.6120000  19.6660000   2.8210000
  30.3640000  18.3310000  11.8210000  28.4880000  17.4570000  11.7860000
  32.1430000  19.1890000  11.4710000  34.5970000  21.2440000   4.7750000
  33.6130000  21.0240000   3.0110000  32.2250000  20.6740000   0.9890000
  30.4850000  18.2670000  12.7620000  34.6090000  21.6100000   2.1470000
  33.2040000  21.2250000   0.2270000  31.4250000  20.3670000   0.5770000
  34.4120000  21.7070000   0.8120000  35.4190000  21.9340000   2.5230000
  33.0830000  21.2900000  -0.7130000  35.0800000  22.0990000   0.2620000
  34.5390000  34.5840000  33.3310000  35.5310000  35.1560000  32.4990000
  33.3080000  34.0960000  32.7270000  34.7180000  34.4820000  34.7190000
  35.3520000  35.2570000  31.1240000  36.3360000  35.4770000  32.8880000
  33.1520000  34.2150000  31.3350000  32.3270000  33.5390000  33.5570000
  33.7370000  33.9250000  35.5490000  35.5320000  34.7990000  35.0910000
  36.3480000  35.8430000  30.2610000  34.1280000  34.7810000  30.5250000
  32.3500000  33.8980000  30.9340000  31.5130000  33.2220000  33.1850000
  32.5060000  33.4370000  34.9450000  33.8940000  33.8050000  36.9410000
  36.1500000  35.9400000  28.9260000  37.1580000  36.1670000  30.6360000
  33.9640000  34.9060000  29.1030000  31.5140000  32.8650000  35.7770000
  32.9180000  33.2400000  37.7510000  34.6950000  34.1230000  37.3420000
  34.9430000  35.4570000  28.3410000  36.8190000  36.3310000  28.3760000
  33.1640000  34.6000000  28.6910000  30.7090000  32.5440000  35.3880000
  31.6930000  32.7640000  37.1520000  33.0810000  33.1150000  39.1730000
  34.8220000  35.5220000  27.4010000  30.6970000  32.1780000  38.0150000
  32.1020000  32.5640000  39.9350000  33.8810000  33.4210000  39.5850000
  30.8950000  32.0810000  39.3500000  29.8870000  31.8540000  37.6400000
  32.2240000  32.4990000  40.8750000  30.2270000  31.6890000  39.9000000
  35.0400000  37.8610000  47.3880000  36.0320000  38.4320000  46.5560000
  33.8090000  37.3730000  46.7830000  35.2200000  37.7590000  48.7750000
  35.8530000  38.5340000  45.1810000  36.8370000  38.7540000  46.9450000
  33.6530000  37.4920000  45.3920000  32.8280000  36.8160000  47.6140000
  34.2380000  37.2020000  49.6060000  36.0330000  38.0760000  49.1480000
  36.8490000  39.1190000  44.3180000  34.6290000  38.0580000  44.5820000
  32.8520000  37.1750000  44.9910000  32.0150000  36.4980000  47.2420000
  33.0080000  36.7140000  49.0020000  34.3950000  37.0820000  50.9980000
  36.6510000  39.2170000  42.9830000  37.6590000  39.4430000  44.6930000
  34.4650000  38.1830000  43.1600000  32.0160000  36.1420000  49.8340000
  33.4190000  36.5170000  51.8070000  35.1960000  37.4000000  51.3980000
  35.4440000  38.7340000  42.3980000  37.3200000  39.6080000  42.4330000
  33.6650000  37.8760000  42.7480000  31.2100000  35.8210000  49.4440000
  32.1940000  36.0410000  51.2090000  33.5830000  36.3920000  53.2300000
  35.3230000  38.7990000  41.4570000  31.1980000  35.4550000  52.0720000
  32.6040000  35.8410000  53.9920000  34.3820000  36.6980000  53.6420000
  31.3960000  35.3580000  53.4070000  30.3880000  35.1310000  51.6960000
  32.7250000  35.7760000  54.9320000  30.7280000  34.9660000  53.9570000
  33.5090000  39.9900000  63.0580000  32.5170000  39.4190000  63.8910000
  34.7400000  40.4780000  63.6630000  33.3290000  40.0920000  61.6710000
  32.6960000  39.3180000  65.2650000  31.7120000  39.0980000  63.5010000
  34.8960000  40.3590000  65.0550000  35.7210000  41.0360000  62.8320000
  34.3110000  40.6500000  60.8400000  32.5160000  39.7750000  61.2990000
  31.7000000  38.7320000  66.1280000  33.9200000  39.7940000  65.8640000
  35.6970000  40.6770000  65.4550000  36.5340000  41.3530000  63.2050000
  35.5410000  41.1380000  61.4450000  34.1540000  40.7690000  59.4490000
  31.8980000  38.6350000  67.4640000  30.8900000  38.4080000  65.7530000
  34.0840000  39.6680000  67.2870000  36.5330000  41.7090000  60.6130000
  35.1300000  41.3340000  58.6390000  33.3530000  40.4520000  59.0480000
  33.1050000  39.1170000  68.0490000  31.2290000  38.2430000  68.0130000
  34.8840000  39.9750000  67.6990000  37.3390000  42.0300000  61.0020000
  36.3550000  41.8100000  59.2380000  34.9660000  41.4600000  57.2160000
  33.2260000  39.0520000  68.9890000  37.3510000  42.3960000  58.3750000
  35.9450000  42.0110000  56.4550000  34.1660000  41.1530000  56.8050000
  37.1530000  42.4930000  57.0390000  38.1600000  42.7200000  58.7500000
  35.8240000  42.0760000  55.5140000  37.8210000  42.8850000  56.4900000
  32.7410000  37.8390000  20.8880000  31.7490000  37.2670000  21.7200000
  33.9720000  38.3270000  21.4920000  32.5620000  37.9410000  19.5010000
  31.9280000  37.1660000  23.0950000  30.9440000  36.9460000  21.3310000
  34.1280000  38.2070000  22.8840000  34.9530000  38.8840000  20.6620000
  33.5430000  38.4980000  18.6700000  31.7480000  37.6230000  19.1280000
  30.9320000  36.5800000  23.9580000  33.1520000  37.6420000  23.6940000
  34.9300000  38.5250000  23.2850000  35.7670000  39.2010000  21.0340000
  34.7740000  38.9860000  19.2740000  33.3860000  38.6170000  17.2780000
  31.1300000  36.4830000  25.2930000  30.1220000  36.2560000  23.5830000
  33.3160000  37.5170000  25.1160000  35.7660000  39.5570000  18.4420000
  34.3620000  39.1830000  16.4690000  32.5850000  38.3000000  16.8780000
  32.3370000  36.9650000  25.8780000  30.4610000  36.0910000  25.8430000
  34.1160000  37.8230000  25.5280000  36.5710000  39.8780000  18.8320000
  35.5870000  39.6580000  17.0670000  34.1990000  39.3080000  15.0460000
  32.4580000  36.9010000  26.8190000  36.5830000  40.2440000  16.2040000
  35.1780000  39.8590000  14.2840000  33.3990000  39.0010000  14.6340000
  36.3850000  40.3420000  14.8690000  37.3930000  40.5680000  16.5800000
  35.0560000  39.9240000  13.3440000  37.0530000  40.7330000  14.3190000
  33.7440000  44.3920000  49.0020000  32.7520000  43.8210000  49.8340000
  34.9740000  44.8800000  49.6060000  33.5640000  44.4940000  47.6140000
  32.9300000  43.7200000  51.2090000  31.9460000  43.5000000  49.4440000
  35.1310000  44.7610000  50.9980000  35.9560000  45.4370000  48.7750000
  34.5450000  45.0510000  46.7830000  32.7510000  44.1770000  47.2420000
  31.9340000  43.1340000  52.0720000  34.1550000  44.1950000  51.8070000
  35.9320000  45.0780000  51.3980000  36.7690000  45.7550000  49.1480000
  35.7760000  45.5390000  47.3880000  34.3890000  45.1710000  45.3920000
  32.1320000  43.0360000  53.4070000  31.1250000  42.8100000  51.6960000
  34.3190000  44.0700000  53.2300000  36.7680000  46.1110000  46.5560000
  35.3650000  45.7360000  44.5820000  33.5880000  44.8530000  44.9910000
  33.3400000  43.5190000  53.9920000  31.4640000  42.6450000  53.9570000
  35.1190000  44.3770000  53.6420000  37.5730000  46.4320000  46.9450000
  36.5890000  46.2120000  45.1810000  35.2010000  45.8610000  43.1600000
  33.4610000  43.4540000  54.9320000  37.5850000  46.7980000  44.3180000
  36.1800000  46.4130000  42.3980000  34.4010000  45.5550000  42.7480000
  37.3880000  46.8950000  42.9830000  38.3950000  47.1220000  44.6930000
  36.0590000  46.4770000  41.4570000  38.0560000  47.2870000  42.4330000
  36.2780000  48.8160000  61.4450000  37.2690000  49.3880000  60.6130000
  35.0470000  48.3280000  60.8400000  36.4570000  48.7140000  62.8320000
  37.0910000  49.4890000  59.2380000  38.0750000  49.7090000  61.0020000
  34.8900000  48.4480000  59.4490000  34.0660000  47.7710000  61.6710000
  35.4760000  48.1570000  63.6630000  37.2700000  49.0320000  63.2050000
  38.0870000  50.0750000  58.3750000  35.8660000  49.0130000  58.6390000
  34.0890000  48.1300000  59.0480000  33.2520000  47.4540000  61.2990000
  34.2450000  47.6690000  63.0580000  35.6320000  48.0380000  65.0550000
  37.8890000  50.1720000  57.0390000  38.8970000  50.3990000  58.7500000
  35.7020000  49.1380000  57.2160000  33.2530000  47.0970000  63.8910000
  34.6560000  47.4720000  65.8640000  36.4340000  48.3550000  65.4550000
  36.6810000  49.6890000  56.4550000  38.5570000  50.5640000  56.4900000
  34.9030000  48.8320000  56.8050000  32.4480000  46.7760000  63.5010000
  33.4320000  46.9960000  65.2650000  34.8200000  47.3470000  67.2870000
  36.5600000  49.7540000  55.5140000  32.4360000  46.4110000  66.1280000
  33.8410000  46.7960000  68.0490000  35.6200000  47.6530000  67.6990000
  32.6340000  46.3130000  67.4640000  31.6260000  46.0870000  65.7530000
  33.9620000  46.7310000  68.9890000  31.9650000  45.9220000  68.0130000
  35.2750000  42.2630000  33.3310000  36.2670000  42.8340000  32.4990000
  34.0440000  41.7750000  32.7270000  35.4540000  42.1610000  34.7190000
  36.0880000  42.9350000  31.1240000  37.0720000  43.1550000  32.8880000
  33.8880000  41.8940000  31.3350000  33.0630000  41.2170000  33.5570000
  34.4730000  41.6030000  35.5490000  36.2680000  42.4780000  35.0910000
  37.0840000  43.5210000  30.2610000  34.8640000  42.4590000  30.5250000
  33.0860000  41.5760000  30.9340000  32.2500000  40.9000000  33.1850000
  33.2420000  41.1150000  34.9450000  34.6300000  41.4840000  36.9410000
  36.8860000  43.6180000  28.9260000  37.8940000  43.8450000  30.6360000
  34.7000000  42.5850000  29.1030000  32.2500000  40.5440000  35.7770000
  33.6540000  40.9190000  37.7510000  35.4310000  41.8020000  37.3420000
  35.6790000  43.1360000  28.3410000  37.5550000  44.0100000  28.3760000
  33.9000000  42.2780000  28.6910000  31.4450000  40.2230000  35.3880000
  32.4290000  40.4430000  37.1520000  33.8180000  40.7930000  39.1730000
  35.5580000  43.2010000  27.4010000  31.4330000  39.8570000  38.0150000
  32.8390000  40.2420000  39.9350000  34.6170000  41.1000000  39.5850000
  31.6310000  39.7600000  39.3500000  30.6230000  39.5330000  37.6400000
  32.9600000  40.1770000  40.8750000  30.9630000  39.3680000  39.9000000
  33.9790000  48.7940000  34.9450000  32.9870000  48.2220000  35.7770000
  35.2090000  49.2820000  35.5490000  33.7990000  48.8960000  33.5570000
  33.1650000  48.1210000  37.1520000  32.1810000  47.9010000  35.3880000
  35.3660000  49.1630000  36.9410000  36.1900000  49.8390000  34.7190000
  34.7800000  49.4530000  32.7270000  32.9860000  48.5790000  33.1850000
  32.1690000  47.5350000  38.0150000  34.3900000  48.5970000  37.7510000
  36.1670000  49.4800000  37.3420000  37.0040000  50.1560000  35.0910000
  36.0110000  49.9410000  33.3310000  34.6240000  49.5730000  31.3350000
  32.3670000  47.4380000  39.3500000  31.3590000  47.2110000  37.6400000
  34.5540000  48.4720000  39.1730000  37.0030000  50.5130000  32.4990000
  35.6000000  50.1380000  30.5250000  33.8220000  49.2550000  30.9340000
  33.5750000  47.9210000  39.9350000  31.6990000  47.0470000  39.9000000
  35.3530000  48.7780000  39.5850000  37.8080000  50.8340000  32.8880000
  36.8240000  50.6140000  31.1240000  35.4360000  50.2630000  29.1030000
  33.6960000  47.8560000  40.8750000  37.8200000  51.2000000  30.2610000
  36.4150000  50.8140000  28.3410000  34.6360000  49.9570000  28.6910000
  37.6220000  51.2970000  28.9260000  38.6300000  51.5240000  30.6360000
  36.2940000  50.8790000  27.4010000  38.2910000  51.6890000  28.3760000
  34.4800000  52.0710000  49.0020000  33.4880000  51.4990000  49.8340000
  35.7110000  52.5590000  49.6060000  34.3000000  52.1730000  47.6140000
  33.6670000  51.3980000  51.2090000  32.6830000  51.1780000  49.4440000
  35.8670000  52.4390000  50.9980000  36.6920000  53.1160000  48.7750000
  35.2820000  52.7300000  46.7830000  33.4870000  51.8560000  47.2420000
  32.6710000  50.8120000  52.0720000  34.8910000  51.8740000  51.8070000
  36.6680000  52.7570000  51.3980000  37.5050000  53.4330000  49.1480000
  36.5120000  53.2180000  47.3880000  35.1250000  52.8490000  45.3920000
  32.8680000  50.7150000  53.4070000  31.8610000  50.4880000  51.6960000
  35.0550000  51.7490000  53.2300000  37.5040000  53.7900000  46.5560000
  36.1010000  53.4150000  44.5820000  34.3240000  52.5320000  44.9910000
  34.0760000  51.1980000  53.9920000  32.2000000  50.3230000  53.9570000
  35.8550000  52.0550000  53.6420000  38.3100000  54.1110000  46.9450000
  37.3260000  53.8910000  45.1810000  35.9370000  53.5400000  43.1600000
  34.1970000  51.1330000  54.9320000  38.3220000  54.4770000  44.3180000
  36.9160000  54.0910000  42.3980000  35.1370000  53.2340000  42.7480000
  38.1240000  54.5740000  42.9830000  39.1310000  54.8010000  44.6930000
  36.7950000  54.1560000  41.4570000  38.7920000  54.9650000  42.4330000
  37.0140000  56.4950000  61.4450000  38.0060000  57.0660000  60.6130000
  35.7830000  56.0070000  60.8400000  37.1930000  56.3930000  62.8320000
  37.8270000  57.1680000  59.2380000  38.8110000  57.3880000  61.0020000
  35.6260000  56.1260000  59.4490000  34.8020000  55.4500000  61.6710000
  36.2120000  55.8360000  63.6630000  38.0070000  56.7100000  63.2050000
  38.8230000  57.7530000  58.3750000  36.6020000  56.6920000  58.6390000
  34.8250000  55.8090000  59.0480000  33.9880000  55.1320000  61.2990000
  34.9810000  55.3480000  63.0580000  36.3680000  55.7160000  65.0550000
  38.6250000  57.8510000  57.0390000  39.6330000  58.0770000  58.7500000
  36.4380000  56.8170000  57.2160000  33.9890000  54.7760000  63.8910000
  35.3920000  55.1510000  65.8640000  37.1700000  56.0340000  65.4550000
  37.4170000  57.3680000  56.4550000  39.2930000  58.2420000  56.4900000
  35.6390000  56.5100000  56.8050000  33.1840000  54.4550000  63.5010000
  34.1680000  54.6750000  65.2650000  35.5560000  55.0260000  67.2870000
  37.2960000  57.4330000  55.5140000  33.1720000  54.0890000  66.1280000
  34.5770000  54.4750000  68.0490000  36.3560000  55.3320000  67.6990000
  33.3700000  53.9920000  67.4640000  32.3620000  53.7650000  65.7530000
  34.6980000  54.4100000  68.9890000  32.7010000  53.6000000  68.0130000
  36.2460000  54.3430000  19.2740000  37.2380000  54.9150000  18.4420000
  35.0150000  53.8550000  18.6700000  36.4250000  54.2410000  20.6620000
  37.0590000  55.0160000  17.0670000  38.0430000  55.2360000  18.8320000
  34.8590000  53.9740000  17.2780000  34.0340000  53.2980000  19.5010000
  35.4440000  53.6840000  21.4920000  37.2390000  54.5580000  21.0340000
  38.0550000  55.6010000  16.2040000  35.8350000  54.5400000  16.4690000
  34.0570000  53.6570000  16.8780000  33.2200000  52.9810000  19.1280000
  34.2130000  53.1960000  20.8880000  35.6010000  53.5640000  22.8840000
  37.8570000  55.6990000  14.8690000  38.8650000  55.9250000  16.5800000
  35.6710000  54.6650000  15.0460000  33.2210000  52.6240000  21.7200000
  34.6250000  52.9990000  23.6940000  36.4020000  53.8820000  23.2850000
  36.6500000  55.2160000  14.2840000  38.5260000  56.0900000  14.3190000
  34.8710000  54.3590000  14.6340000  32.4160000  52.3030000  21.3310000
  33.4000000  52.5230000  23.0950000  34.7890000  52.8740000  25.1160000
  36.5290000  55.2810000  13.3440000  32.4040000  51.9370000  23.9580000
  33.8100000  52.3230000  25.8780000  35.5880000  53.1800000  25.5280000
  32.6020000  51.8400000  25.2930000  31.5940000  51.6130000  23.5830000
  33.9310000  52.2580000  26.8190000  31.9340000  51.4480000  25.8430000
  36.7470000  57.6200000  33.3310000  37.7390000  58.1910000  32.4990000
  35.5160000  57.1320000  32.7270000  36.9270000  57.5180000  34.7190000
  37.5600000  58.2920000  31.1240000  38.5440000  58.5130000  32.8880000
  35.3600000  57.2510000  31.3350000  34.5350000  56.5750000  33.5570000
  35.9450000  56.9610000  35.5490000  37.7400000  57.8350000  35.0910000
  38.5560000  58.8780000  30.2610000  36.3360000  57.8170000  30.5250000
  34.5590000  56.9340000  30.9340000  33.7220000  56.2570000  33.1850000
  34.7150000  56.4730000  34.9450000  36.1020000  56.8410000  36.9410000
  38.3590000  58.9760000  28.9260000  39.3660000  59.2020000  30.6360000
  36.1720000  57.9420000  29.1030000  33.7230000  55.9010000  35.7770000
  35.1260000  56.2760000  37.7510000  36.9030000  57.1590000  37.3420000
  37.1510000  58.4930000  28.3410000  39.0270000  59.3670000  28.3760000
  35.3720000  57.6350000  28.6910000  32.9170000  55.5800000  35.3880000
  33.9010000  55.8000000  37.1520000  35.2900000  56.1510000  39.1730000
  37.0300000  58.5580000  27.4010000  32.9050000  55.2140000  38.0150000
  34.3110000  55.5990000  39.9350000  36.0900000  56.4570000  39.5850000
  33.1030000  55.1170000  39.3500000  32.0960000  54.8900000  37.6400000
  34.4320000  55.5350000  40.8750000  32.4350000  54.7250000  39.9000000
  37.2480000  60.8970000  47.3880000  38.2400000  61.4680000  46.5560000
  36.0180000  60.4090000  46.7830000  37.4280000  60.7950000  48.7750000
  38.0620000  61.5690000  45.1810000  39.0460000  61.7890000  46.9450000
  35.8610000  60.5280000  45.3920000  35.0370000  59.8510000  47.6140000
  36.4470000  60.2370000  49.6060000  38.2410000  61.1120000  49.1480000
  39.0580000  62.1550000  44.3180000  36.8370000  61.0930000  44.5820000
  35.0600000  60.2100000  44.9910000  34.2230000  59.5340000  47.2420000
  35.2160000  59.7490000  49.0020000  36.6030000  60.1180000  50.9980000
  38.8600000  62.2520000  42.9830000  39.8680000  62.4790000  44.6930000
  36.6730000  61.2190000  43.1600000  34.2240000  59.1780000  49.8340000
  35.6270000  59.5530000  51.8070000  37.4050000  60.4360000  51.3980000
  37.6520000  61.7700000  42.3980000  39.5280000  62.6440000  42.4330000
  35.8740000  60.9120000  42.7480000  33.4190000  58.8570000  49.4440000
  34.4030000  59.0770000  51.2090000  35.7910000  59.4270000  53.2300000
  37.5310000  61.8350000  41.4570000  33.4070000  58.4910000  52.0720000
  34.8120000  58.8760000  53.9920000  36.5910000  59.7340000  53.6420000
  33.6050000  58.3940000  53.4070000  32.5970000  58.1670000  51.6960000
  34.9330000  58.8110000  54.9320000  32.9360000  58.0020000  53.9570000
  35.7170000  63.0260000  63.0580000  34.7250000  62.4550000  63.8910000
  36.9480000  63.5140000  63.6630000  35.5380000  63.1280000  61.6710000
  34.9040000  62.3540000  65.2650000  33.9200000  62.1340000  63.5010000
  37.1040000  63.3950000  65.0550000  37.9290000  64.0720000  62.8320000
  36.5190000  63.6860000  60.8400000  34.7240000  62.8110000  61.2990000
  33.9080000  61.7680000  66.1280000  36.1280000  62.8290000  65.8640000
  37.9060000  63.7120000  65.4550000  38.7430000  64.3890000  63.2050000
  37.7500000  64.1730000  61.4450000  36.3620000  63.8050000  59.4490000
  34.1060000  61.6710000  67.4640000  33.0980000  61.4440000  65.7530000
  36.2920000  62.7040000  67.2870000  38.7420000  64.7450000  60.6130000
  37.3380000  64.3700000  58.6390000  35.5610000  63.4870000  59.0480000
  35.3130000  62.1530000  68.0490000  33.4370000  61.2790000  68.0130000
  37.0920000  63.0110000  67.6990000  39.5470000  65.0660000  61.0020000
  38.5630000  64.8460000  59.2380000  37.1750000  64.4950000  57.2160000
  35.4340000  62.0880000  68.9890000  39.5590000  65.4320000  58.3750000
  38.1540000  65.0470000  56.4550000  36.3750000  64.1890000  56.8050000
  39.3610000  65.5290000  57.0390000  40.3690000  65.7560000  58.7500000
  38.0320000  65.1110000  55.5140000  40.0290000  65.9210000  56.4900000
  36.0790000  19.1890000  19.0890000  37.0640000  19.1840000  18.0700000
  34.8350000  19.9180000  18.8570000  36.2500000  18.5080000  20.3020000
  36.8680000  19.8430000  16.8690000  37.8780000  18.7160000  18.2140000
  34.6650000  20.5940000  17.6320000  33.8600000  19.9230000  19.8600000
  35.2740000  18.5140000  21.3060000  37.0640000  18.0360000  20.4330000
  37.8520000  19.8260000  15.8320000  35.6370000  20.5670000  16.6430000
  33.8640000  21.0820000  17.4810000  33.0460000  20.3950000  19.7300000
  34.0300000  19.2430000  21.0740000  35.4450000  17.8370000  22.5300000
  37.6410000  20.4700000  14.6590000  38.6670000  19.3570000  15.9680000
  35.4660000  21.2270000  15.3890000  33.0460000  19.2480000  22.0930000
  34.4720000  17.8640000  23.5190000  36.2460000  17.3490000  22.6820000
  36.4230000  21.1840000  14.4300000  38.3080000  20.4460000  13.9830000
  34.6630000  21.7080000  15.2230000  32.2310000  19.7150000  21.9480000
  33.2410000  18.5880000  23.2930000  34.6440000  17.2040000  24.7730000
  36.2850000  21.6290000  13.6020000  32.2570000  18.6050000  24.3310000
  33.6860000  17.2470000  25.7320000  35.4470000  16.7230000  24.9390000
  32.4680000  17.9620000  25.5030000  31.4420000  19.0740000  24.1940000
  33.8250000  16.8020000  26.5600000  31.8020000  17.9850000  26.1790000
  34.5310000  22.5200000  35.1300000  33.5470000  22.5250000  36.1500000
  35.7760000  21.7900000  35.3620000  34.3610000  23.2000000  33.9170000
  33.7430000  21.8650000  37.3500000  32.7330000  22.9920000  36.0050000
  35.9460000  21.1140000  36.5870000  36.7510000  21.7850000  34.3590000
  35.3370000  23.1950000  32.9140000  33.5470000  23.6720000  33.7870000
  32.7580000  21.8820000  38.3870000  34.9730000  21.1410000  37.5760000
  36.7470000  20.6260000  36.7380000  37.5650000  21.3130000  34.4890000
  36.5810000  22.4650000  33.1460000  35.1660000  23.8710000  31.6890000
  32.9700000  21.2390000  39.5600000  31.9440000  22.3510000  38.2510000
  35.1450000  20.4810000  38.8300000  37.5650000  22.4610000  32.1260000
  36.1390000  23.8440000  30.7000000  34.3650000  24.3590000  31.5370000
  34.1880000  20.5240000  39.7890000  32.3030000  21.2620000  40.2360000
  35.9480000  20.0000000  38.9960000  38.3790000  21.9930000  32.2710000
  37.3690000  23.1200000  30.9260000  35.9670000  24.5040000  29.4460000
  34.3260000  20.0790000  40.6170000  38.3540000  23.1030000  29.8890000
  36.9250000  24.4610000  28.4870000  35.1640000  24.9850000  29.2800000
  38.1420000  23.7460000  28.7160000  39.1680000  22.6340000  30.0250000
  36.7860000  24.9060000  27.6590000  38.8090000  23.7230000  28.0400000
  35.0330000  25.7960000  49.1870000  34.0480000  25.8010000  50.2060000
  36.2770000  25.0670000  49.4190000  34.8620000  26.4770000  47.9740000
  34.2440000  25.1420000  51.4070000  33.2340000  26.2690000  50.0620000
  36.4470000  24.3910000  50.6430000  37.2530000  25.0620000  48.4150000
  35.8380000  26.4710000  46.9700000  34.0480000  26.9490000  47.8430000
  33.2600000  25.1590000  52.4440000  35.4750000  24.4180000  51.6330000
  37.2480000  23.9030000  50.7950000  38.0660000  24.5900000  48.5460000
  37.0820000  25.7420000  47.2020000  35.6670000  27.1480000  45.7460000
  33.4710000  24.5150000  53.6170000  32.4450000  25.6280000  52.3080000
  35.6460000  23.7580000  52.8870000  38.0660000  25.7370000  46.1830000
  36.6400000  27.1210000  44.7560000  34.8660000  27.6360000  45.5940000
  34.6890000  23.8010000  53.8460000  32.8040000  24.5390000  54.2930000
  36.4490000  23.2770000  53.0530000  38.8810000  25.2700000  46.3280000
  37.8710000  26.3970000  44.9830000  36.4680000  27.7810000  43.5030000
  34.8270000  23.3560000  54.6740000  38.8550000  26.3800000  43.9450000
  37.4260000  27.7380000  42.5440000  35.6660000  28.2620000  43.3370000
  38.6440000  27.0230000  42.7730000  39.6700000  25.9110000  44.0820000
  37.2870000  28.1830000  41.7160000  39.3100000  27.0000000  42.0970000
  37.7420000  52.1090000  63.2440000  36.7580000  52.1140000  64.2630000
  38.9860000  51.3800000  63.4760000  37.5720000  52.7890000  62.0310000
  36.9540000  51.4550000  65.4640000  35.9440000  52.5820000  64.1180000
  39.1570000  50.7030000  64.7000000  39.9620000  51.3750000  62.4720000
  38.5470000  52.7840000  61.0270000  36.7580000  53.2620000  61.9000000
  35.9690000  51.4720000  66.5010000  38.1840000  50.7300000  65.6900000
  39.9580000  50.2160000  64.8520000  40.7760000  50.9020000  62.6030000
  39.7920000  52.0550000  61.2590000  38.3770000  53.4610000  59.8030000
  36.1810000  50.8280000  67.6730000  35.1550000  51.9400000  66.3650000
  38.3560000  50.0710000  66.9440000  40.7760000  52.0500000  60.2400000
  39.3500000  53.4340000  58.8130000  37.5760000  53.9480000  59.6510000
  37.3980000  50.1140000  67.9020000  35.5140000  50.8510000  68.3490000
  39.1590000  49.5890000  67.1100000  41.5900000  51.5820000  60.3850000
  40.5800000  52.7090000  59.0400000  39.1780000  54.0930000  57.5590000
  37.5370000  49.6680000  68.7300000  41.5650000  52.6920000  58.0020000
  40.1350000  54.0500000  56.6010000  38.3750000  54.5750000  57.3940000
  41.3530000  53.3360000  56.8300000  42.3790000  52.2240000  58.1390000
  39.9970000  54.4950000  55.7730000  42.0200000  53.3130000  56.1540000
  35.0010000  31.3230000   7.0170000  34.0170000  31.3280000   8.0360000
  36.2450000  30.5940000   7.2490000  34.8310000  32.0030000   5.8040000
  34.2120000  30.6690000   9.2360000  33.2020000  31.7960000   7.8910000
  36.4160000  29.9170000   8.4730000  37.2210000  30.5890000   6.2450000
  35.8060000  31.9980000   4.8000000  34.0170000  32.4760000   5.6730000
  33.2280000  30.6860000  10.2740000  35.4430000  29.9440000   9.4630000
  37.2170000  29.4300000   8.6250000  38.0350000  30.1160000   6.3760000
  37.0500000  31.2690000   5.0320000  35.6360000  32.6750000   3.5760000
  33.4390000  30.0420000  11.4460000  32.4130000  31.1540000  10.1370000
  35.6150000  29.2850000  10.7170000  38.0350000  31.2640000   4.0130000
  36.6080000  32.6480000   2.5860000  34.8350000  33.1620000   3.4240000
  34.6570000  29.3280000  11.6750000  32.7730000  30.0650000  12.1220000
  36.4180000  28.8030000  10.8820000  38.8490000  30.7960000   4.1580000
  37.8390000  31.9230000   2.8120000  36.4370000  33.3070000   1.3320000
  34.7960000  28.8830000  12.5030000  38.8230000  31.9060000   1.7750000
  37.3940000  33.2640000   0.3740000  35.6340000  33.7890000   1.1660000
  38.6120000  32.5500000   0.6030000  39.6380000  31.4380000   1.9110000
  37.2560000  33.7100000  -0.4540000  39.2790000  32.5270000  -0.0730000
  35.7370000  39.0020000   7.0170000  34.7530000  39.0070000   8.0360000
  36.9810000  38.2730000   7.2490000  35.5670000  39.6820000   5.8040000
  34.9490000  38.3470000   9.2360000  33.9390000  39.4740000   7.8910000
  37.1520000  37.5960000   8.4730000  37.9570000  38.2670000   6.2450000
  36.5420000  39.6770000   4.8000000  34.7530000  40.1540000   5.6730000
  33.9640000  38.3640000  10.2740000  36.1790000  37.6230000   9.4630000
  37.9530000  37.1080000   8.6250000  38.7710000  37.7950000   6.3760000
  37.7870000  38.9480000   5.0320000  36.3720000  40.3530000   3.5760000
  34.1750000  37.7210000  11.4460000  33.1500000  38.8330000  10.1370000
  36.3510000  36.9630000  10.7170000  38.7710000  38.9430000   4.0130000
  37.3450000  40.3260000   2.5860000  35.5710000  40.8410000   3.4240000
  35.3930000  37.0060000  11.6750000  33.5090000  37.7440000  12.1220000
  37.1540000  36.4820000  10.8820000  39.5850000  38.4750000   4.1580000
  38.5750000  39.6020000   2.8120000  37.1730000  40.9860000   1.3320000
  35.5320000  36.5610000  12.5030000  39.5590000  39.5850000   1.7750000
  38.1300000  40.9430000   0.3740000  36.3700000  41.4670000   1.1660000
  39.3480000  40.2290000   0.6030000  40.3740000  39.1160000   1.9110000
  37.9920000  41.3880000  -0.4540000  40.0150000  40.2050000  -0.0730000
  32.7930000   8.2870000   7.0170000  31.8080000   8.2920000   8.0360000
  34.0370000   7.5580000   7.2490000  32.6220000   8.9670000   5.8040000
  32.0040000   7.6330000   9.2360000  30.9940000   8.7600000   7.8910000
  34.2070000   6.8810000   8.4730000  35.0130000   7.5530000   6.2450000
  33.5980000   8.9620000   4.8000000  31.8090000   9.4400000   5.6730000
  31.0200000   7.6500000  10.2740000  33.2350000   6.9090000   9.4630000
  35.0080000   6.3940000   8.6250000  35.8260000   7.0810000   6.3760000
  34.8420000   8.2330000   5.0320000  33.4280000   9.6390000   3.5760000
  31.2310000   7.0060000  11.4460000  30.2050000   8.1190000  10.1370000
  33.4070000   6.2490000  10.7170000  35.8260000   8.2280000   4.0130000
  34.4000000   9.6120000   2.5860000  32.6260000  10.1270000   3.4240000
  32.4490000   6.2920000  11.6750000  30.5650000   7.0300000  12.1220000
  34.2090000   5.7680000  10.8820000  36.6410000   7.7610000   4.1580000
  35.6310000   8.8870000   2.8120000  34.2280000  10.2720000   1.3320000
  32.5870000   5.8470000  12.5030000  36.6150000   8.8710000   1.7750000
  35.1860000  10.2290000   0.3740000  33.4260000  10.7530000   1.1660000
  36.4040000   9.5140000   0.6030000  37.4300000   8.4020000   1.9110000
  35.0480000  10.6740000  -0.4540000  37.0700000   9.4910000  -0.0730000
  34.2970000  18.1180000  49.1870000  33.3120000  18.1230000  50.2060000
  35.5410000  17.3890000  49.4190000  34.1260000  18.7980000  47.9740000
  33.5080000  17.4630000  51.4070000  32.4980000  18.5900000  50.0620000
  35.7110000  16.7120000  50.6430000  36.5160000  17.3840000  48.4150000
  35.1020000  18.7930000  46.9700000  33.3120000  19.2700000  47.8430000
  32.5240000  17.4800000  52.4440000  34.7380000  16.7390000  51.6330000
  36.5120000  16.2240000  50.7950000  37.3300000  16.9110000  48.5460000
  36.3460000  18.0640000  47.2020000  34.9310000  19.4700000  45.7460000
  32.7350000  16.8370000  53.6170000  31.7090000  17.9490000  52.3080000
  34.9100000  16.0790000  52.8870000  37.3300000  18.0590000  46.1830000
  35.9040000  19.4420000  44.7560000  34.1300000  19.9570000  45.5940000
  33.9530000  16.1220000  53.8460000  32.0680000  16.8600000  54.2930000
  35.7130000  15.5980000  53.0530000  38.1440000  17.5910000  46.3280000
  37.1350000  18.7180000  44.9830000  35.7320000  20.1020000  43.5030000
  34.0910000  15.6770000  54.6740000  38.1190000  18.7010000  43.9450000
  36.6900000  20.0590000  42.5440000  34.9290000  20.5830000  43.3370000
  37.9080000  19.3450000  42.7730000  38.9330000  18.2320000  44.0820000
  36.5510000  20.5040000  41.7160000  38.5740000  19.3210000  42.0970000
  34.7980000  21.3950000  63.2440000  33.8130000  21.4000000  64.2630000
  36.0420000  20.6660000  63.4760000  34.6270000  22.0750000  62.0310000
  34.0090000  20.7400000  65.4640000  32.9990000  21.8670000  64.1180000
  36.2120000  19.9890000  64.7000000  37.0180000  20.6600000  62.4720000
  35.6030000  22.0700000  61.0270000  33.8140000  22.5470000  61.9000000
  33.0250000  20.7570000  66.5010000  35.2400000  20.0160000  65.6900000
  37.0140000  19.5010000  64.8520000  37.8310000  20.1880000  62.6030000
  36.8470000  21.3400000  61.2590000  35.4330000  22.7460000  59.8030000
  33.2360000  20.1140000  67.6730000  32.2100000  21.2260000  66.3650000
  35.4120000  19.3560000  66.9440000  37.8310000  21.3360000  60.2400000
  36.4050000  22.7190000  58.8130000  34.6310000  23.2340000  59.6510000
  34.4540000  19.3990000  67.9020000  32.5700000  20.1370000  68.3490000
  36.2140000  18.8750000  67.1100000  38.6460000  20.8680000  60.3850000
  37.6360000  21.9950000  59.0400000  36.2330000  23.3790000  57.5590000
  34.5920000  18.9540000  68.7300000  38.6200000  21.9780000  58.0020000
  37.1910000  23.3360000  56.6010000  35.4310000  23.8600000  57.3940000
  38.4090000  22.6220000  56.8300000  39.4350000  21.5090000  58.1390000
  37.0530000  23.7810000  55.7730000  39.0750000  22.5980000  56.1540000
  35.3430000  11.5100000  19.0890000  36.3280000  11.5050000  18.0700000
  34.0990000  12.2390000  18.8570000  35.5140000  10.8300000  20.3020000
  36.1320000  12.1640000  16.8690000  37.1420000  11.0370000  18.2140000
  33.9290000  12.9160000  17.6320000  33.1230000  12.2440000  19.8600000
  34.5380000  10.8350000  21.3060000  36.3280000  10.3570000  20.4330000
  37.1160000  12.1470000  15.8320000  34.9010000  12.8890000  16.6430000
  33.1280000  13.4030000  17.4810000  32.3100000  12.7170000  19.7300000
  33.2940000  11.5640000  21.0740000  34.7090000  10.1580000  22.5300000
  36.9050000  12.7910000  14.6590000  37.9310000  11.6790000  15.9680000
  34.7300000  13.5480000  15.3890000  32.3100000  11.5690000  22.0930000
  33.7360000  10.1860000  23.5190000  35.5100000   9.6710000  22.6820000
  35.6870000  13.5050000  14.4300000  37.5720000  12.7680000  13.9830000
  33.9270000  14.0300000  15.2230000  31.4950000  12.0370000  21.9480000
  32.5050000  10.9100000  23.2930000  33.9080000   9.5260000  24.7730000
  35.5490000  13.9510000  13.6020000  31.5210000  10.9270000  24.3310000
  32.9500000   9.5690000  25.7320000  34.7100000   9.0440000  24.9390000
  31.7320000  10.2830000  25.5030000  30.7060000  11.3960000  24.1940000
  33.0890000   9.1240000  26.5600000  31.0660000  10.3060000  26.1790000
  33.7950000  14.8410000  35.1300000  32.8110000  14.8460000  36.1500000
  35.0390000  14.1120000  35.3620000  33.6250000  15.5210000  33.9170000
  33.0070000  14.1870000  37.3500000  31.9970000  15.3140000  36.0050000
  35.2100000  13.4350000  36.5870000  36.0150000  14.1070000  34.3590000
  34.6000000  15.5160000  32.9140000  32.8110000  15.9940000  33.7870000
  32.0220000  14.2040000  38.3870000  34.2370000  13.4620000  37.5760000
  36.0110000  12.9480000  36.7380000  36.8290000  13.6340000  34.4890000
  35.8450000  14.7870000  33.1460000  34.4300000  16.1930000  31.6890000
  32.2340000  13.5600000  39.5600000  31.2080000  14.6720000  38.2510000
  34.4090000  12.8020000  38.8300000  36.8290000  14.7820000  32.1260000
  35.4030000  16.1650000  30.7000000  33.6290000  16.6800000  31.5370000
  33.4510000  12.8460000  39.7890000  31.5670000  13.5830000  40.2360000
  35.2120000  12.3210000  38.9960000  37.6430000  14.3140000  32.2710000
  36.6330000  15.4410000  30.9260000  35.2310000  16.8250000  29.4460000
  33.5900000  12.4000000  40.6170000  37.6180000  15.4240000  29.8890000
  36.1880000  16.7820000  28.4870000  34.4280000  17.3070000  29.2800000
  37.4060000  16.0680000  28.7160000  38.4320000  14.9550000  30.0250000
  36.0500000  17.2270000  27.6590000  38.0730000  16.0450000  28.0400000
  35.5340000  29.0730000  63.2440000  34.5500000  29.0780000  64.2630000
  36.7780000  28.3440000  63.4760000  35.3630000  29.7530000  62.0310000
  34.7450000  28.4190000  65.4640000  33.7350000  29.5460000  64.1180000
  36.9480000  27.6670000  64.7000000  37.7540000  28.3390000  62.4720000
  36.3390000  29.7480000  61.0270000  34.5500000  30.2260000  61.9000000
  33.7610000  28.4360000  66.5010000  35.9760000  27.6950000  65.6900000
  37.7500000  27.1800000  64.8520000  38.5670000  27.8670000  62.6030000
  37.5830000  29.0190000  61.2590000  36.1690000  30.4250000  59.8030000
  33.9720000  27.7920000  67.6730000  32.9460000  28.9050000  66.3650000
  36.1480000  27.0350000  66.9440000  38.5680000  29.0140000  60.2400000
  37.1410000  30.3980000  58.8130000  35.3670000  30.9120000  59.6510000
  35.1900000  27.0780000  67.9020000  33.3060000  27.8150000  68.3490000
  36.9500000  26.5540000  67.1100000  39.3820000  28.5470000  60.3850000
  38.3720000  29.6730000  59.0400000  36.9690000  31.0580000  57.5590000
  35.3280000  26.6330000  68.7300000  39.3560000  29.6570000  58.0020000
  37.9270000  31.0150000  56.6010000  36.1670000  31.5390000  57.3940000
  39.1450000  30.3000000  56.8300000  40.1710000  29.1880000  58.1390000
  37.7890000  31.4600000  55.7730000  39.8110000  30.2770000  56.1540000
  33.5290000  15.9660000   7.0170000  32.5450000  15.9710000   8.0360000
  34.7730000  15.2370000   7.2490000  33.3580000  16.6460000   5.8040000
  32.7400000  15.3120000   9.2360000  31.7300000  16.4390000   7.8910000
  34.9430000  14.5600000   8.4730000  35.7490000  15.2320000   6.2450000
  34.3340000  16.6410000   4.8000000  32.5450000  17.1190000   5.6730000
  31.7560000  15.3280000  10.2740000  33.9710000  14.5870000   9.4630000
  35.7450000  14.0730000   8.6250000  36.5620000  14.7590000   6.3760000
  35.5780000  15.9120000   5.0320000  34.1640000  17.3180000   3.5760000
  31.9670000  14.6850000  11.4460000  30.9410000  15.7970000  10.1370000
  34.1430000  13.9270000  10.7170000  36.5630000  15.9070000   4.0130000
  35.1360000  17.2900000   2.5860000  33.3620000  17.8050000   3.4240000
  33.1850000  13.9700000  11.6750000  31.3010000  14.7080000  12.1220000
  34.9450000  13.4460000  10.8820000  37.3770000  15.4390000   4.1580000
  36.3670000  16.5660000   2.8120000  34.9640000  17.9500000   1.3320000
  33.3230000  13.5250000  12.5030000  37.3510000  16.5490000   1.7750000
  35.9220000  17.9070000   0.3740000  34.1620000  18.4310000   1.1660000
  37.1400000  17.1930000   0.6030000  38.1660000  16.0800000   1.9110000
  35.7840000  18.3520000  -0.4540000  37.8060000  17.1700000  -0.0730000
  34.7660000  26.9210000  21.0740000  33.7820000  26.9260000  22.0930000
  36.0100000  26.1920000  21.3060000  34.5960000  27.6010000  19.8600000
  33.9780000  26.2670000  23.2930000  32.9680000  27.3940000  21.9480000
  36.1810000  25.5160000  22.5300000  36.9860000  26.1870000  20.3020000
  35.5710000  27.5960000  18.8570000  33.7820000  28.0740000  19.7300000
  32.9930000  26.2840000  24.3310000  35.2080000  25.5430000  23.5190000
  36.9820000  25.0280000  22.6820000  37.8000000  25.7150000  20.4330000
  36.8160000  26.8670000  19.0890000  35.4010000  28.2730000  17.6320000
  33.2050000  25.6400000  25.5030000  32.1790000  26.7530000  24.1940000
  35.3800000  24.8830000  24.7730000  37.8000000  26.8620000  18.0700000
  36.3740000  28.2460000  16.6430000  34.6000000  28.7610000  17.4810000
  34.4220000  24.9260000  25.7320000  32.5380000  25.6640000  26.1790000
  36.1830000  24.4020000  24.9390000  38.6140000  26.3950000  18.2140000
  37.6040000  27.5220000  16.8690000  36.2020000  28.9060000  15.3890000
  34.5610000  24.4810000  26.5600000  38.5880000  27.5050000  15.8320000
  37.1590000  28.8630000  14.4300000  35.3990000  29.3870000  15.2230000
  38.3770000  28.1480000  14.6590000  39.4030000  27.0360000  15.9680000
  37.0210000  29.3080000  13.6020000  39.0440000  28.1250000  13.9830000
  35.2680000  30.1980000  35.1300000  34.2830000  30.2030000  36.1500000
  36.5120000  29.4690000  35.3620000  35.0970000  30.8780000  33.9170000
  34.4790000  29.5440000  37.3500000  33.4690000  30.6710000  36.0050000
  36.6820000  28.7920000  36.5870000  37.4870000  29.4640000  34.3590000
  36.0730000  30.8730000  32.9140000  34.2830000  31.3510000  33.7870000
  33.4950000  29.5610000  38.3870000  35.7090000  28.8200000  37.5760000
  37.4830000  28.3050000  36.7380000  38.3010000  28.9910000  34.4890000
  37.3170000  30.1440000  33.1460000  35.9020000  31.5500000  31.6890000
  33.7060000  28.9170000  39.5600000  32.6800000  30.0300000  38.2510000
  35.8810000  28.1600000  38.8300000  38.3010000  30.1390000  32.1260000
  36.8750000  31.5230000  30.7000000  35.1010000  32.0370000  31.5370000
  34.9240000  28.2030000  39.7890000  33.0390000  28.9400000  40.2360000
  36.6840000  27.6790000  38.9960000  39.1150000  29.6710000  32.2710000
  38.1060000  30.7980000  30.9260000  36.7030000  32.1830000  29.4460000
  35.0620000  27.7580000  40.6170000  39.0900000  30.7820000  29.8890000
  37.6610000  32.1390000  28.4870000  35.9000000  32.6640000  29.2800000
  38.8790000  31.4250000  28.7160000  39.9040000  30.3130000  30.0250000
  37.5220000  32.5850000  27.6590000  39.5450000  31.4020000  28.0400000
  36.3140000  23.5900000   5.0320000  37.2990000  23.5850000   4.0130000
  35.0700000  24.3190000   4.8000000  36.4850000  22.9100000   6.2450000
  37.1030000  24.2450000   2.8120000  38.1130000  23.1180000   4.1580000
  34.9000000  24.9960000   3.5760000  34.0940000  24.3250000   5.8040000
  35.5090000  22.9150000   7.2490000  37.2990000  22.4380000   6.3760000
  38.0870000  24.2280000   1.7750000  35.8720000  24.9690000   2.5860000
  34.0990000  25.4840000   3.4240000  33.2810000  24.7970000   5.6730000
  34.2650000  23.6450000   7.0170000  35.6800000  22.2390000   8.4730000
  37.8760000  24.8710000   0.6030000  38.9020000  23.7590000   1.9110000
  35.7010000  25.6290000   1.3320000  33.2810000  23.6490000   8.0360000
  34.7070000  22.2660000   9.4630000  36.4810000  21.7510000   8.6250000
  36.6580000  25.5860000   0.3740000  38.5430000  24.8480000  -0.0730000
  34.8980000  26.1100000   1.1660000  32.4660000  24.1170000   7.8910000
  33.4760000  22.9900000   9.2360000  34.8790000  21.6060000  10.7170000
  36.5200000  26.0310000  -0.4540000  32.4920000  23.0070000  10.2740000
  33.9210000  21.6490000  11.6750000  35.6810000  21.1250000  10.8820000
  32.7030000  22.3640000  11.4460000  31.6770000  23.4760000  10.1370000
  34.0600000  21.2040000  12.5030000  32.0370000  22.3870000  12.1220000
  36.2700000  36.7520000  63.2440000  35.2860000  36.7570000  64.2630000
  37.5140000  36.0230000  63.4760000  36.0990000  37.4320000  62.0310000
  35.4810000  36.0980000  65.4640000  34.4710000  37.2240000  64.1180000
  37.6850000  35.3460000  64.7000000  38.4900000  36.0180000  62.4720000
  37.0750000  37.4270000  61.0270000  35.2860000  37.9040000  61.9000000
  34.4970000  36.1140000  66.5010000  36.7120000  35.3730000  65.6900000
  38.4860000  34.8580000  64.8520000  39.3040000  35.5450000  62.6030000
  38.3190000  36.6980000  61.2590000  36.9050000  38.1040000  59.8030000
  34.7080000  35.4710000  67.6730000  33.6820000  36.5830000  66.3650000
  36.8840000  34.7130000  66.9440000  39.3040000  36.6930000  60.2400000
  37.8770000  38.0760000  58.8130000  36.1040000  38.5910000  59.6510000
  35.9260000  34.7560000  67.9020000  34.0420000  35.4940000  68.3490000
  37.6860000  34.2320000  67.1100000  40.1180000  36.2250000  60.3850000
  39.1080000  37.3520000  59.0400000  37.7060000  38.7360000  57.5590000
  36.0650000  34.3110000  68.7300000  40.0920000  37.3350000  58.0020000
  38.6630000  38.6930000  56.6010000  36.9030000  39.2170000  57.3940000
  39.8810000  37.9790000  56.8300000  40.9070000  36.8660000  58.1390000
  38.5250000  39.1380000  55.7730000  40.5480000  37.9550000  56.1540000
  35.7690000  33.4750000  49.1870000  34.7840000  33.4800000  50.2060000
  37.0130000  32.7460000  49.4190000  35.5980000  34.1550000  47.9740000
  34.9800000  32.8210000  51.4070000  33.9700000  33.9480000  50.0620000
  37.1830000  32.0690000  50.6430000  37.9890000  32.7410000  48.4150000
  36.5740000  34.1500000  46.9700000  34.7850000  34.6280000  47.8430000
  33.9960000  32.8380000  52.4440000  36.2110000  32.0960000  51.6330000
  37.9850000  31.5820000  50.7950000  38.8020000  32.2680000  48.5460000
  37.8180000  33.4210000  47.2020000  36.4040000  34.8270000  45.7460000
  34.2070000  32.1940000  53.6170000  33.1810000  33.3060000  52.3080000
  36.3830000  31.4370000  52.8870000  38.8020000  33.4160000  46.1830000
  37.3760000  34.8000000  44.7560000  35.6020000  35.3140000  45.5940000
  35.4250000  31.4800000  53.8460000  33.5410000  32.2170000  54.2930000
  37.1850000  30.9550000  53.0530000  39.6170000  32.9480000  46.3280000
  38.6070000  34.0750000  44.9830000  37.2040000  35.4590000  43.5030000
  35.5630000  31.0340000  54.6740000  39.5910000  34.0580000  43.9450000
  38.1620000  35.4160000  42.5440000  36.4020000  35.9410000  43.3370000
  39.3800000  34.7020000  42.7730000  40.4060000  33.5890000  44.0820000
  38.0240000  35.8610000  41.7160000  40.0460000  34.6790000  42.0970000
  37.7110000  57.6360000  21.0740000  36.7260000  57.6410000  22.0930000
  38.9550000  56.9070000  21.3060000  37.5400000  58.3160000  19.8600000
  36.9220000  56.9810000  23.2930000  35.9120000  58.1080000  21.9480000
  39.1250000  56.2300000  22.5300000  39.9310000  56.9010000  20.3020000
  38.5160000  58.3110000  18.8570000  36.7260000  58.7880000  19.7300000
  35.9380000  56.9980000  24.3310000  38.1530000  56.2570000  23.5190000
  39.9260000  55.7420000  22.6820000  40.7440000  56.4290000  20.4330000
  39.7600000  57.5820000  19.0890000  38.3450000  58.9870000  17.6320000
  36.1490000  56.3550000  25.5030000  35.1230000  57.4670000  24.1940000
  38.3250000  55.5970000  24.7730000  40.7440000  57.5770000  18.0700000
  39.3180000  58.9600000  16.6430000  37.5440000  59.4750000  17.4810000
  37.3670000  55.6400000  25.7320000  35.4820000  56.3780000  26.1790000
  39.1270000  55.1160000  24.9390000  41.5590000  57.1090000  18.2140000
  40.5490000  58.2360000  16.8690000  39.1460000  59.6200000  15.3890000
  37.5050000  55.1950000  26.5600000  41.5330000  58.2190000  15.8320000
  40.1040000  59.5770000  14.4300000  38.3440000  60.1010000  15.2230000
  41.3220000  58.8630000  14.6590000  42.3480000  57.7500000  15.9680000
  39.9650000  60.0220000  13.6020000  41.9880000  58.8390000  13.9830000
  38.2120000  60.9130000  35.1300000  37.2280000  60.9170000  36.1500000
  39.4560000  60.1830000  35.3620000  38.0410000  61.5930000  33.9170000
  37.4230000  60.2580000  37.3500000  36.4130000  61.3850000  36.0050000
  39.6270000  59.5070000  36.5870000  40.4320000  60.1780000  34.3590000
  39.0170000  61.5880000  32.9140000  37.2280000  62.0650000  33.7870000
  36.4390000  60.2750000  38.3870000  38.6540000  59.5340000  37.5760000
  40.4280000  59.0190000  36.7380000  41.2460000  59.7060000  34.4890000
  40.2610000  60.8580000  33.1460000  38.8470000  62.2640000  31.6890000
  36.6500000  59.6320000  39.5600000  35.6240000  60.7440000  38.2510000
  38.8260000  58.8740000  38.8300000  41.2460000  60.8530000  32.1260000
  39.8190000  62.2370000  30.7000000  38.0460000  62.7520000  31.5370000
  37.8680000  58.9170000  39.7890000  35.9840000  59.6550000  40.2360000
  39.6280000  58.3930000  38.9960000  42.0600000  60.3860000  32.2710000
  41.0500000  61.5130000  30.9260000  39.6480000  62.8970000  29.4460000
  38.0070000  58.4720000  40.6170000  42.0340000  61.4960000  29.8890000
  40.6050000  62.8540000  28.4870000  38.8450000  63.3780000  29.2800000
  41.8230000  62.1390000  28.7160000  42.8490000  61.0270000  30.0250000
  40.4670000  63.2990000  27.6590000  42.4900000  62.1160000  28.0400000
  38.7130000  64.1890000  49.1870000  37.7290000  64.1940000  50.2060000
  39.9570000  63.4600000  49.4190000  38.5430000  64.8700000  47.9740000
  37.9250000  63.5350000  51.4070000  36.9150000  64.6620000  50.0620000
  40.1280000  62.7840000  50.6430000  40.9330000  63.4550000  48.4150000
  39.5180000  64.8640000  46.9700000  37.7290000  65.3420000  47.8430000
  36.9400000  63.5520000  52.4440000  39.1550000  62.8110000  51.6330000
  40.9290000  62.2960000  50.7950000  41.7470000  62.9830000  48.5460000
  40.7630000  64.1350000  47.2020000  39.3480000  65.5410000  45.7460000
  37.1520000  62.9080000  53.6170000  36.1260000  64.0210000  52.3080000
  39.3270000  62.1510000  52.8870000  41.7470000  64.1300000  46.1830000
  40.3210000  65.5140000  44.7560000  38.5470000  66.0290000  45.5940000
  38.3690000  62.1940000  53.8460000  36.4850000  62.9320000  54.2930000
  40.1300000  61.6700000  53.0530000  42.5610000  63.6630000  46.3280000
  41.5510000  64.7900000  44.9830000  40.1490000  66.1740000  43.5030000
  38.5080000  61.7490000  54.6740000  42.5350000  64.7730000  43.9450000
  41.1060000  66.1310000  42.5440000  39.3460000  66.6550000  43.3370000
  42.3240000  65.4160000  42.7730000  43.3500000  64.3040000  44.0820000
  40.9680000  66.5760000  41.7160000  42.9910000  65.3930000  42.0970000
  39.2150000  67.4660000  63.2440000  38.2300000  67.4710000  64.2630000
  40.4590000  66.7370000  63.4760000  39.0440000  68.1460000  62.0310000
  38.4260000  66.8120000  65.4640000  37.4160000  67.9390000  64.1180000
  40.6290000  66.0600000  64.7000000  41.4340000  66.7320000  62.4720000
  40.0200000  68.1410000  61.0270000  38.2300000  68.6190000  61.9000000
  37.4420000  66.8290000  66.5010000  39.6560000  66.0880000  65.6900000
  41.4300000  65.5730000  64.8520000  42.2480000  66.2590000  62.6030000
  41.2640000  67.4120000  61.2590000  39.8490000  68.8180000  59.8030000
  37.6530000  66.1850000  67.6730000  36.6270000  67.2980000  66.3650000
  39.8280000  65.4280000  66.9440000  42.2480000  67.4070000  60.2400000
  40.8220000  68.7910000  58.8130000  39.0480000  69.3050000  59.6510000
  38.8710000  65.4710000  67.9020000  36.9860000  66.2080000  68.3490000
  40.6310000  64.9470000  67.1100000  43.0620000  66.9390000  60.3850000
  42.0530000  68.0660000  59.0400000  40.6500000  69.4510000  57.5590000
  39.0090000  65.0260000  68.7300000  43.0370000  68.0500000  58.0020000
  41.6080000  69.4080000  56.6010000  39.8470000  69.9320000  57.3940000
  42.8260000  68.6930000  56.8300000  43.8510000  67.5810000  58.1390000
  41.4690000  69.8530000  55.7730000  43.4920000  68.6700000  56.1540000
  35.5020000  34.6000000  21.0740000  34.5180000  34.6050000  22.0930000
  36.7460000  33.8710000  21.3060000  35.3320000  35.2800000  19.8600000
  34.7140000  33.9460000  23.2930000  33.7040000  35.0730000  21.9480000
  36.9170000  33.1940000  22.5300000  37.7220000  33.8660000  20.3020000
  36.3080000  35.2750000  18.8570000  34.5180000  35.7530000  19.7300000
  33.7290000  33.9620000  24.3310000  35.9440000  33.2210000  23.5190000
  37.7180000  32.7070000  22.6820000  38.5360000  33.3930000  20.4330000
  37.5520000  34.5460000  19.0890000  36.1370000  35.9520000  17.6320000
  33.9410000  33.3190000  25.5030000  32.9150000  34.4310000  24.1940000
  36.1160000  32.5610000  24.7730000  38.5360000  34.5410000  18.0700000
  37.1100000  35.9240000  16.6430000  35.3360000  36.4390000  17.4810000
  35.1580000  32.6040000  25.7320000  33.2740000  33.3420000  26.1790000
  36.9190000  32.0800000  24.9390000  39.3500000  34.0730000  18.2140000
  38.3400000  35.2000000  16.8690000  36.9380000  36.5840000  15.3890000
  35.2970000  32.1590000  26.5600000  39.3250000  35.1830000  15.8320000
  37.8960000  36.5410000  14.4300000  36.1350000  37.0650000  15.2230000
  39.1130000  35.8270000  14.6590000  40.1390000  34.7140000  15.9680000
  37.7570000  36.9860000  13.6020000  39.7800000  35.8040000  13.9830000
  36.0040000  37.8770000  35.1300000  35.0190000  37.8820000  36.1500000
  37.2480000  37.1480000  35.3620000  35.8330000  38.5570000  33.9170000
  35.2150000  37.2220000  37.3500000  34.2050000  38.3490000  36.0050000
  37.4180000  36.4710000  36.5870000  38.2240000  37.1430000  34.3590000
  36.8090000  38.5520000  32.9140000  35.0190000  39.0290000  33.7870000
  34.2310000  37.2390000  38.3870000  36.4460000  36.4980000  37.5760000
  38.2190000  35.9830000  36.7380000  39.0370000  36.6700000  34.4890000
  38.0530000  37.8230000  33.1460000  36.6380000  39.2280000  31.6890000
  34.4420000  36.5960000  39.5600000  33.4160000  37.7080000  38.2510000
  36.6170000  35.8380000  38.8300000  39.0370000  37.8180000  32.1260000
  37.6110000  39.2010000  30.7000000  35.8370000  39.7160000  31.5370000
  35.6600000  35.8810000  39.7890000  33.7750000  36.6190000  40.2360000
  37.4200000  35.3570000  38.9960000  39.8520000  37.3500000  32.2710000
  38.8420000  38.4770000  30.9260000  37.4390000  39.8610000  29.4460000
  35.7980000  35.4360000  40.6170000  39.8260000  38.4600000  29.8890000
  38.3970000  39.8180000  28.4870000  36.6370000  40.3420000  29.2800000
  39.6150000  39.1040000  28.7160000  40.6410000  37.9910000  30.0250000
  38.2580000  40.2630000  27.6590000  40.2810000  39.0800000  28.0400000
  36.5050000  41.1540000  49.1870000  35.5210000  41.1590000  50.2060000
  37.7490000  40.4240000  49.4190000  36.3340000  41.8340000  47.9740000
  35.7160000  40.4990000  51.4070000  34.7060000  41.6260000  50.0620000
  37.9190000  39.7480000  50.6430000  38.7250000  40.4190000  48.4150000
  37.3100000  41.8290000  46.9700000  35.5210000  42.3060000  47.8430000
  34.7320000  40.5160000  52.4440000  36.9470000  39.7750000  51.6330000
  38.7210000  39.2600000  50.7950000  39.5380000  39.9470000  48.5460000
  38.5540000  41.0990000  47.2020000  37.1400000  42.5050000  45.7460000
  34.9430000  39.8730000  53.6170000  33.9170000  40.9850000  52.3080000
  37.1190000  39.1150000  52.8870000  39.5390000  41.0950000  46.1830000
  38.1120000  42.4780000  44.7560000  36.3380000  42.9930000  45.5940000
  36.1610000  39.1580000  53.8460000  34.2770000  39.8960000  54.2930000
  37.9210000  38.6340000  53.0530000  40.3530000  40.6270000  46.3280000
  39.3430000  41.7540000  44.9830000  37.9400000  43.1380000  43.5030000
  36.2990000  38.7130000  54.6740000  40.3270000  41.7370000  43.9450000
  38.8980000  43.0950000  42.5440000  37.1380000  43.6190000  43.3370000
  40.1160000  42.3800000  42.7730000  41.1420000  41.2680000  44.0820000
  38.7600000  43.5400000  41.7160000  40.7820000  42.3570000  42.0970000
  37.0060000  44.4300000  63.2440000  36.0220000  44.4350000  64.2630000
  38.2500000  43.7010000  63.4760000  36.8360000  45.1110000  62.0310000
  36.2170000  43.7760000  65.4640000  35.2080000  44.9030000  64.1180000
  38.4210000  43.0250000  64.7000000  39.2260000  43.6960000  62.4720000
  37.8110000  45.1050000  61.0270000  36.0220000  45.5830000  61.9000000
  35.2330000  43.7930000  66.5010000  37.4480000  43.0520000  65.6900000
  39.2220000  42.5370000  64.8520000  40.0400000  43.2240000  62.6030000
  39.0550000  44.3760000  61.2590000  37.6410000  45.7820000  59.8030000
  35.4440000  43.1490000  67.6730000  34.4190000  44.2620000  66.3650000
  37.6200000  42.3920000  66.9440000  40.0400000  44.3710000  60.2400000
  38.6130000  45.7550000  58.8130000  36.8400000  46.2700000  59.6510000
  36.6620000  42.4350000  67.9020000  34.7780000  43.1730000  68.3490000
  38.4230000  41.9110000  67.1100000  40.8540000  43.9040000  60.3850000
  39.8440000  45.0310000  59.0400000  38.4420000  46.4150000  57.5590000
  36.8010000  41.9900000  68.7300000  40.8280000  45.0140000  58.0020000
  39.3990000  46.3720000  56.6010000  37.6390000  46.8960000  57.3940000
  40.6170000  45.6570000  56.8300000  41.6430000  44.5450000  58.1390000
  39.2610000  46.8170000  55.7730000  41.2840000  45.6340000  56.1540000
  38.2880000  42.2240000  19.0890000  39.2720000  42.2190000  18.0700000
  37.0440000  42.9540000  18.8570000  38.4580000  41.5440000  20.3020000
  39.0770000  42.8790000  16.8690000  40.0860000  41.7520000  18.2140000
  36.8730000  43.6300000  17.6320000  36.0680000  42.9590000  19.8600000
  37.4830000  41.5490000  21.3060000  39.2720000  41.0720000  20.4330000
  40.0610000  42.8620000  15.8320000  37.8460000  43.6030000  16.6430000
  36.0720000  44.1180000  17.4810000  35.2540000  43.4310000  19.7300000
  36.2380000  42.2790000  21.0740000  37.6530000  40.8730000  22.5300000
  39.8500000  43.5050000  14.6590000  40.8750000  42.3930000  15.9680000
  37.6740000  44.2630000  15.3890000  35.2540000  42.2830000  22.0930000
  36.6800000  40.9000000  23.5190000  38.4540000  40.3850000  22.6820000
  38.6320000  44.2200000  14.4300000  40.5160000  43.4820000  13.9830000
  36.8710000  44.7440000  15.2230000  34.4400000  42.7510000  21.9480000
  35.4500000  41.6240000  23.2930000  36.8520000  40.2400000  24.7730000
  38.4930000  44.6650000  13.6020000  34.4660000  41.6410000  24.3310000
  35.8950000  40.2830000  25.7320000  37.6550000  39.7590000  24.9390000
  34.6770000  40.9980000  25.5030000  33.6510000  42.1100000  24.1940000
  36.0330000  39.8380000  26.5600000  34.0100000  41.0210000  26.1790000
  37.2410000  48.8320000  49.1870000  36.2570000  48.8370000  50.2060000
  38.4850000  48.1030000  49.4190000  37.0700000  49.5120000  47.9740000
  36.4520000  48.1780000  51.4070000  35.4420000  49.3050000  50.0620000
  38.6560000  47.4260000  50.6430000  39.4610000  48.0980000  48.4150000
  38.0460000  49.5070000  46.9700000  36.2570000  49.9850000  47.8430000
  35.4680000  48.1950000  52.4440000  37.6830000  47.4540000  51.6330000
  39.4570000  46.9390000  50.7950000  40.2750000  47.6250000  48.5460000
  39.2900000  48.7780000  47.2020000  37.8760000  50.1840000  45.7460000
  35.6790000  47.5510000  53.6170000  34.6530000  48.6640000  52.3080000
  37.8550000  46.7940000  52.8870000  40.2750000  48.7730000  46.1830000
  38.8480000  50.1570000  44.7560000  37.0750000  50.6710000  45.5940000
  36.8970000  46.8370000  53.8460000  35.0130000  47.5740000  54.2930000
  38.6570000  46.3130000  53.0530000  41.0890000  48.3050000  46.3280000
  40.0790000  49.4320000  44.9830000  38.6770000  50.8170000  43.5030000
  37.0360000  46.3920000  54.6740000  41.0630000  49.4160000  43.9450000
  39.6340000  50.7740000  42.5440000  37.8740000  51.2980000  43.3370000
  40.8520000  50.0590000  42.7730000  41.8780000  48.9470000  44.0820000
  39.4960000  51.2190000  41.7160000  41.5190000  50.0360000  42.0970000
  36.7400000  45.5550000  35.1300000  35.7550000  45.5600000  36.1500000
  37.9840000  44.8260000  35.3620000  36.5690000  46.2350000  33.9170000
  35.9510000  44.9010000  37.3500000  34.9410000  46.0280000  36.0050000
  38.1540000  44.1500000  36.5870000  38.9600000  44.8210000  34.3590000
  37.5450000  46.2300000  32.9140000  35.7560000  46.7080000  33.7870000
  34.9670000  44.9180000  38.3870000  37.1820000  44.1770000  37.5760000
  38.9550000  43.6620000  36.7380000  39.7730000  44.3490000  34.4890000
  38.7890000  45.5010000  33.1460000  37.3750000  46.9070000  31.6890000
  35.1780000  44.2740000  39.5600000  34.1520000  45.3870000  38.2510000
  37.3540000  43.5170000  38.8300000  39.7730000  45.4960000  32.1260000
  38.3470000  46.8800000  30.7000000  36.5730000  47.3950000  31.5370000
  36.3960000  43.5600000  39.7890000  34.5110000  44.2980000  40.2360000
  38.1560000  43.0360000  38.9960000  40.5880000  45.0290000  32.2710000
  39.5780000  46.1560000  30.9260000  38.1750000  47.5400000  29.4460000
  36.5340000  43.1150000  40.6170000  40.5620000  46.1390000  29.8890000
  39.1330000  47.4970000  28.4870000  37.3730000  48.0210000  29.2800000
  40.3510000  46.7820000  28.7160000  41.3770000  45.6700000  30.0250000
  38.9950000  47.9420000  27.6590000  41.0170000  46.7590000  28.0400000
  37.4760000  53.2340000  35.1300000  36.4920000  53.2390000  36.1500000
  38.7200000  52.5050000  35.3620000  37.3050000  53.9140000  33.9170000
  36.6870000  52.5800000  37.3500000  35.6770000  53.7070000  36.0050000
  38.8900000  51.8280000  36.5870000  39.6960000  52.5000000  34.3590000
  38.2810000  53.9090000  32.9140000  36.4920000  54.3870000  33.7870000
  35.7030000  52.5960000  38.3870000  37.9180000  51.8550000  37.5760000
  39.6920000  51.3410000  36.7380000  40.5090000  52.0270000  34.4890000
  39.5250000  53.1800000  33.1460000  38.1110000  54.5860000  31.6890000
  35.9140000  51.9530000  39.5600000  34.8880000  53.0650000  38.2510000
  38.0900000  51.1950000  38.8300000  40.5100000  53.1750000  32.1260000
  39.0830000  54.5580000  30.7000000  37.3090000  55.0730000  31.5370000
  37.1320000  51.2390000  39.7890000  35.2480000  51.9760000  40.2360000
  38.8920000  50.7140000  38.9960000  41.3240000  52.7070000  32.2710000
  40.3140000  53.8340000  30.9260000  38.9110000  55.2180000  29.4460000
  37.2700000  50.7930000  40.6170000  41.2980000  53.8170000  29.8890000
  39.8690000  55.1750000  28.4870000  38.1090000  55.6990000  29.2800000
  41.0870000  54.4610000  28.7160000  42.1130000  53.3480000  30.0250000
  39.7310000  55.6200000  27.6590000  41.7530000  54.4380000  28.0400000
  36.4730000  46.6800000   7.0170000  35.4890000  46.6850000   8.0360000
  37.7170000  45.9510000   7.2490000  36.3030000  47.3600000   5.8040000
  35.6850000  46.0260000   9.2360000  34.6750000  47.1530000   7.8910000
  37.8880000  45.2740000   8.4730000  38.6930000  45.9460000   6.2450000
  37.2790000  47.3550000   4.8000000  35.4890000  47.8330000   5.6730000
  34.7000000  46.0430000  10.2740000  36.9150000  45.3020000   9.4630000
  38.6890000  44.7870000   8.6250000  39.5070000  45.4740000   6.3760000
  38.5230000  46.6260000   5.0320000  37.1080000  48.0320000   3.5760000
  34.9120000  45.3990000  11.4460000  33.8860000  46.5120000  10.1370000
  37.0870000  44.6420000  10.7170000  39.5070000  46.6210000   4.0130000
  38.0810000  48.0050000   2.5860000  36.3070000  48.5200000   3.4240000
  36.1290000  44.6850000  11.6750000  34.2450000  45.4230000  12.1220000
  37.8900000  44.1610000  10.8820000  40.3210000  46.1540000   4.1580000
  39.3110000  47.2800000   2.8120000  37.9090000  48.6650000   1.3320000
  36.2680000  44.2400000  12.5030000  40.2960000  47.2640000   1.7750000
  38.8670000  48.6220000   0.3740000  37.1060000  49.1460000   1.1660000
  40.0840000  47.9070000   0.6030000  41.1100000  46.7950000   1.9110000
  38.7280000  49.0670000  -0.4540000  40.7510000  47.8840000  -0.0730000
  38.4780000  59.7880000  63.2440000  37.4940000  59.7930000  64.2630000
  39.7220000  59.0590000  63.4760000  38.3080000  60.4680000  62.0310000
  37.6900000  59.1330000  65.4640000  36.6800000  60.2600000  64.1180000
  39.8930000  58.3820000  64.7000000  40.6980000  59.0530000  62.4720000
  39.2840000  60.4630000  61.0270000  37.4940000  60.9400000  61.9000000
  36.7050000  59.1500000  66.5010000  38.9200000  58.4090000  65.6900000
  40.6940000  57.8940000  64.8520000  41.5120000  58.5810000  62.6030000
  40.5280000  59.7330000  61.2590000  39.1130000  61.1390000  59.8030000
  36.9170000  58.5070000  67.6730000  35.8910000  59.6190000  66.3650000
  39.0920000  57.7490000  66.9440000  41.5120000  59.7290000  60.2400000
  40.0860000  61.1120000  58.8130000  38.3120000  61.6270000  59.6510000
  38.1350000  57.7920000  67.9020000  36.2500000  58.5300000  68.3490000
  39.8950000  57.2680000  67.1100000  42.3260000  59.2610000  60.3850000
  41.3160000  60.3880000  59.0400000  39.9140000  61.7720000  57.5590000
  38.2730000  57.3470000  68.7300000  42.3010000  60.3710000  58.0020000
  40.8720000  61.7290000  56.6010000  39.1110000  62.2530000  57.3940000
  42.0890000  61.0140000  56.8300000  43.1150000  59.9020000  58.1390000
  40.7330000  62.1740000  55.7730000  42.7560000  60.9910000  56.1540000
  39.0240000  49.9030000  19.0890000  40.0080000  49.8980000  18.0700000
  37.7800000  50.6320000  18.8570000  39.1940000  49.2230000  20.3020000
  39.8130000  50.5570000  16.8690000  40.8230000  49.4300000  18.2140000
  37.6090000  51.3090000  17.6320000  36.8040000  50.6370000  19.8600000
  38.2190000  49.2280000  21.3060000  40.0080000  48.7500000  20.4330000
  40.7970000  50.5400000  15.8320000  38.5820000  51.2820000  16.6430000
  36.8080000  51.7960000  17.4810000  35.9900000  51.1100000  19.7300000
  36.9750000  49.9570000  21.0740000  38.3890000  48.5510000  22.5300000
  40.5860000  51.1840000  14.6590000  41.6120000  50.0720000  15.9680000
  38.4100000  51.9410000  15.3890000  35.9900000  49.9620000  22.0930000
  37.4170000  48.5780000  23.5190000  39.1900000  48.0640000  22.6820000
  39.3680000  51.8980000  14.4300000  41.2520000  51.1610000  13.9830000
  37.6080000  52.4230000  15.2230000  35.1760000  50.4300000  21.9480000
  36.1860000  49.3030000  23.2930000  37.5880000  47.9190000  24.7730000
  39.2290000  52.3440000  13.6020000  35.2020000  49.3200000  24.3310000
  36.6310000  47.9620000  25.7320000  38.3910000  47.4370000  24.9390000
  35.4130000  48.6760000  25.5030000  34.3870000  49.7890000  24.1940000
  36.7690000  47.5170000  26.5600000  34.7460000  48.6990000  26.1790000
  37.9770000  56.5110000  49.1870000  36.9930000  56.5160000  50.2060000
  39.2210000  55.7820000  49.4190000  37.8070000  57.1910000  47.9740000
  37.1880000  55.8560000  51.4070000  36.1780000  56.9830000  50.0620000
  39.3920000  55.1050000  50.6430000  40.1970000  55.7770000  48.4150000
  38.7820000  57.1860000  46.9700000  36.9930000  57.6630000  47.8430000
  36.2040000  55.8730000  52.4440000  38.4190000  55.1320000  51.6330000
  40.1930000  54.6170000  50.7950000  41.0110000  55.3040000  48.5460000
  40.0260000  56.4570000  47.2020000  38.6120000  57.8620000  45.7460000
  36.4150000  55.2300000  53.6170000  35.3890000  56.3420000  52.3080000
  38.5910000  54.4720000  52.8870000  41.0110000  56.4520000  46.1830000
  39.5840000  57.8350000  44.7560000  37.8110000  58.3500000  45.5940000
  37.6330000  54.5150000  53.8460000  35.7490000  55.2530000  54.2930000
  39.3940000  53.9910000  53.0530000  41.8250000  55.9840000  46.3280000
  40.8150000  57.1110000  44.9830000  39.4130000  58.4950000  43.5030000
  37.7720000  54.0700000  54.6740000  41.7990000  57.0940000  43.9450000
  40.3700000  58.4520000  42.5440000  38.6100000  58.9760000  43.3370000
  41.5880000  57.7380000  42.7730000  42.6140000  56.6250000  44.0820000
  40.2320000  58.8970000  41.7160000  42.2550000  57.7140000  42.0970000
  39.2590000  54.3050000   5.0320000  40.2430000  54.3000000   4.0130000
  38.0150000  55.0340000   4.8000000  39.4290000  53.6250000   6.2450000
  40.0470000  54.9590000   2.8120000  41.0570000  53.8320000   4.1580000
  37.8440000  55.7110000   3.5760000  37.0390000  55.0390000   5.8040000
  38.4540000  53.6300000   7.2490000  40.2430000  53.1520000   6.3760000
  41.0320000  54.9420000   1.7750000  38.8170000  55.6830000   2.5860000
  37.0430000  56.1980000   3.4240000  36.2250000  55.5110000   5.6730000
  37.2090000  54.3590000   7.0170000  38.6240000  52.9530000   8.4730000
  40.8210000  55.5860000   0.6030000  41.8460000  54.4730000   1.9110000
  38.6450000  56.3430000   1.3320000  36.2250000  54.3640000   8.0360000
  37.6510000  52.9800000   9.4630000  39.4250000  52.4660000   8.6250000
  39.6030000  56.3000000   0.3740000  41.4870000  55.5630000  -0.0730000
  37.8420000  56.8240000   1.1660000  35.4110000  54.8310000   7.8910000
  36.4210000  53.7050000   9.2360000  37.8230000  52.3200000  10.7170000
  39.4640000  56.7450000  -0.4540000  35.4370000  53.7210000  10.2740000
  36.8660000  52.3630000  11.6750000  38.6260000  51.8390000  10.8820000
  35.6480000  53.0780000  11.4460000  34.6220000  54.1900000  10.1370000
  37.0040000  51.9180000  12.5030000  34.9810000  53.1010000  12.1220000
  39.8120000  28.0300000   5.2170000  40.8040000  28.6020000   4.3850000
  38.5810000  27.5420000   4.6130000  39.9910000  27.9280000   6.6050000
  40.6250000  28.7030000   3.0110000  41.6090000  28.9230000   4.7750000
  38.4240000  27.6620000   3.2210000  37.6000000  26.9850000   5.4440000
  39.0100000  27.3710000   7.4360000  40.8050000  28.2460000   6.9770000
  41.6210000  29.2890000   2.1470000  39.4000000  28.2270000   2.4120000
  37.6230000  27.3440000   2.8210000  36.7860000  26.6680000   5.0710000
  37.7790000  26.8830000   6.8310000  39.1660000  27.2520000   8.8270000
  41.4230000  29.3860000   0.8120000  42.4310000  29.6130000   2.5230000
  39.2370000  28.3520000   0.9890000  36.7870000  26.3120000   7.6630000
  38.1900000  26.6860000   9.6370000  39.9680000  27.5690000   9.2280000
  40.2150000  28.9030000   0.2270000  42.0910000  29.7780000   0.2620000
  38.4370000  28.0460000   0.5770000  35.9820000  25.9900000   7.2740000
  36.9660000  26.2100000   9.0380000  38.3540000  26.5610000  11.0590000
  40.0940000  28.9680000  -0.7130000  35.9700000  25.6250000   9.9010000
  37.3750000  26.0100000  11.8210000  39.1540000  26.8680000  11.4710000
  36.1680000  25.5270000  11.2370000  35.1600000  25.3010000   9.5260000
  37.4960000  25.9450000  12.7620000  35.4990000  25.1360000  11.7860000
  35.5710000   3.8470000   6.8310000  34.5790000   3.2760000   7.6630000
  36.8020000   4.3350000   7.4360000  35.3910000   3.9490000   5.4440000
  34.7570000   3.1750000   9.0380000  33.7730000   2.9550000   7.2740000
  36.9580000   4.2160000   8.8270000  37.7830000   4.8930000   6.6050000
  36.3720000   4.5070000   4.6130000  34.5780000   3.6320000   5.0710000
  33.7610000   2.5890000   9.9010000  35.9820000   3.6510000   9.6370000
  37.7590000   4.5330000   9.2280000  38.5960000   5.2100000   6.9770000
  37.6030000   4.9950000   5.2170000  36.2160000   4.6260000   3.2210000
  33.9590000   2.4920000  11.2370000  32.9520000   2.2650000   9.5260000
  36.1460000   3.5250000  11.0590000  38.5950000   5.5660000   4.3850000
  37.1920000   5.1910000   2.4120000  35.4150000   4.3080000   2.8210000
  35.1670000   2.9740000  11.8210000  33.2910000   2.1000000  11.7860000
  36.9460000   3.8320000  11.4710000  39.4010000   5.8870000   4.7750000
  38.4170000   5.6670000   3.0110000  37.0280000   5.3170000   0.9890000
  35.2880000   2.9090000  12.7620000  39.4130000   6.2530000   2.1470000
  38.0070000   5.8680000   0.2270000  36.2280000   5.0100000   0.5770000
  39.2150000   6.3500000   0.8120000  40.2220000   6.5770000   2.5230000
  37.8860000   5.9330000  -0.7130000  39.8830000   6.7420000   0.2620000
  36.3070000  11.5260000   6.8310000  35.3150000  10.9540000   7.6630000
  37.5380000  12.0140000   7.4360000  36.1270000  11.6280000   5.4440000
  35.4940000  10.8530000   9.0380000  34.5100000  10.6330000   7.2740000
  37.6940000  11.8940000   8.8270000  38.5190000  12.5710000   6.6050000
  37.1090000  12.1850000   4.6130000  35.3140000  11.3110000   5.0710000
  34.4980000  10.2670000   9.9010000  36.7180000  11.3290000   9.6370000
  38.4950000  12.2120000   9.2280000  39.3320000  12.8880000   6.9770000
  38.3390000  12.6730000   5.2170000  36.9520000  12.3050000   3.2210000
  34.6960000  10.1700000  11.2370000  33.6880000   9.9430000   9.5260000
  36.8820000  11.2040000  11.0590000  39.3310000  13.2450000   4.3850000
  37.9280000  12.8700000   2.4120000  36.1510000  11.9870000   2.8210000
  35.9030000  10.6530000  11.8210000  34.0270000   9.7780000  11.7860000
  37.6820000  11.5100000  11.4710000  40.1370000  13.5660000   4.7750000
  39.1530000  13.3460000   3.0110000  37.7640000  12.9950000   0.9890000
  36.0240000  10.5880000  12.7620000  40.1490000  13.9320000   2.1470000
  38.7430000  13.5460000   0.2270000  36.9640000  12.6890000   0.5770000
  39.9510000  14.0290000   0.8120000  40.9580000  14.2560000   2.5230000
  38.6220000  13.6110000  -0.7130000  40.6190000  14.4210000   0.2620000
  39.0760000  20.3520000   5.2170000  40.0670000  20.9230000   4.3850000
  37.8450000  19.8640000   4.6130000  39.2550000  20.2500000   6.6050000
  39.8890000  21.0240000   3.0110000  40.8730000  21.2440000   4.7750000
  37.6880000  19.9830000   3.2210000  36.8640000  19.3060000   5.4440000
  38.2740000  19.6920000   7.4360000  40.0680000  20.5670000   6.9770000
  40.8850000  21.6100000   2.1470000  38.6640000  20.5480000   2.4120000
  36.8870000  19.6660000   2.8210000  36.0500000  18.9890000   5.0710000
  37.0430000  19.2050000   6.8310000  38.4300000  19.5730000   8.8270000
  40.6870000  21.7070000   0.8120000  41.6950000  21.9340000   2.5230000
  38.5000000  20.6740000   0.9890000  36.0510000  18.6330000   7.6630000
  37.4540000  19.0080000   9.6370000  39.2320000  19.8910000   9.2280000
  39.4790000  21.2250000   0.2270000  41.3550000  22.0990000   0.2620000
  37.7010000  20.3670000   0.5770000  35.2460000  18.3120000   7.2740000
  36.2300000  18.5320000   9.0380000  37.6180000  18.8830000  11.0590000
  39.3580000  21.2900000  -0.7130000  35.2340000  17.9460000   9.9010000
  36.6390000  18.3310000  11.8210000  38.4180000  19.1890000  11.4710000
  35.4320000  17.8490000  11.2370000  34.4240000  17.6220000   9.5260000
  36.7600000  18.2670000  12.7620000  34.7630000  17.4570000  11.7860000
  38.5150000  34.5620000   6.8310000  37.5230000  33.9900000   7.6630000
  39.7460000  35.0500000   7.4360000  38.3360000  34.6640000   5.4440000
  37.7020000  33.8890000   9.0380000  36.7180000  33.6690000   7.2740000
  39.9020000  34.9300000   8.8270000  40.7270000  35.6070000   6.6050000
  39.3170000  35.2210000   4.6130000  37.5220000  34.3460000   5.0710000
  36.7060000  33.3030000   9.9010000  38.9260000  34.3650000   9.6370000
  40.7040000  35.2480000   9.2280000  41.5410000  35.9240000   6.9770000
  40.5480000  35.7090000   5.2170000  39.1610000  35.3400000   3.2210000
  36.9040000  33.2060000  11.2370000  35.8960000  32.9790000   9.5260000
  39.0900000  34.2400000  11.0590000  41.5400000  36.2810000   4.3850000
  40.1360000  35.9060000   2.4120000  38.3590000  35.0230000   2.8210000
  38.1110000  33.6890000  11.8210000  36.2350000  32.8140000  11.7860000
  39.8900000  34.5460000  11.4710000  42.3450000  36.6020000   4.7750000
  41.3610000  36.3820000   3.0110000  39.9730000  36.0310000   0.9890000
  38.2320000  33.6240000  12.7620000  42.3570000  36.9670000   2.1470000
  40.9520000  36.5820000   0.2270000  39.1730000  35.7250000   0.5770000
  42.1590000  37.0650000   0.8120000  43.1670000  37.2910000   2.5230000
  40.8300000  36.6470000  -0.7130000  42.8270000  37.4560000   0.2620000
  37.0740000  13.6780000  49.0020000  36.0830000  13.1060000  49.8340000
  38.3050000  14.1660000  49.6060000  36.8950000  13.7800000  47.6140000
  36.2610000  13.0050000  51.2090000  35.2770000  12.7850000  49.4440000
  38.4620000  14.0460000  50.9980000  39.2860000  14.7230000  48.7750000
  37.8760000  14.3370000  46.7830000  36.0820000  13.4630000  47.2420000
  35.2650000  12.4190000  52.0720000  37.4860000  13.4810000  51.8070000
  39.2630000  14.3640000  51.3980000  40.1000000  15.0400000  49.1480000
  39.1070000  14.8250000  47.3880000  37.7200000  14.4570000  45.3920000
  35.4630000  12.3220000  53.4070000  34.4550000  12.0950000  51.6960000
  37.6500000  13.3560000  53.2300000  40.0990000  15.3970000  46.5560000
  38.6960000  15.0220000  44.5820000  36.9180000  14.1390000  44.9910000
  36.6710000  12.8050000  53.9920000  34.7950000  11.9300000  53.9570000
  38.4490000  13.6620000  53.6420000  40.9040000  15.7180000  46.9450000
  39.9200000  15.4980000  45.1810000  38.5320000  15.1470000  43.1600000
  36.7920000  12.7400000  54.9320000  40.9160000  16.0840000  44.3180000
  39.5110000  15.6980000  42.3980000  37.7320000  14.8410000  42.7480000
  40.7180000  16.1810000  42.9830000  41.7260000  16.4080000  44.6930000
  39.3900000  15.7630000  41.4570000  41.3870000  16.5720000  42.4330000
  39.8430000  22.5040000  47.3880000  40.8350000  23.0750000  46.5560000
  38.6120000  22.0160000  46.7830000  40.0230000  22.4020000  48.7750000
  40.6560000  23.1760000  45.1810000  41.6400000  23.3960000  46.9450000
  38.4560000  22.1350000  45.3920000  37.6310000  21.4580000  47.6140000
  39.0410000  21.8440000  49.6060000  40.8360000  22.7190000  49.1480000
  41.6520000  23.7620000  44.3180000  39.4320000  22.7000000  44.5820000
  37.6550000  21.8180000  44.9910000  36.8180000  21.1410000  47.2420000
  37.8110000  21.3560000  49.0020000  39.1980000  21.7250000  50.9980000
  41.4540000  23.8590000  42.9830000  42.4620000  24.0860000  44.6930000
  39.2680000  22.8260000  43.1600000  36.8190000  20.7850000  49.8340000
  38.2220000  21.1600000  51.8070000  39.9990000  22.0430000  51.3980000
  40.2470000  23.3770000  42.3980000  42.1230000  24.2510000  42.4330000
  38.4680000  22.5190000  42.7480000  36.0130000  20.4640000  49.4440000
  36.9970000  20.6840000  51.2090000  38.3860000  21.0340000  53.2300000
  40.1260000  23.4420000  41.4570000  36.0010000  20.0980000  52.0720000
  37.4070000  20.4830000  53.9920000  39.1860000  21.3410000  53.6420000
  36.1990000  20.0010000  53.4070000  35.1920000  19.7740000  51.6960000
  37.5280000  20.4180000  54.9320000  35.5310000  19.6090000  53.9570000
  38.5470000  29.0350000  49.0020000  37.5550000  28.4630000  49.8340000
  39.7780000  29.5230000  49.6060000  38.3670000  29.1370000  47.6140000
  37.7330000  28.3620000  51.2090000  36.7490000  28.1420000  49.4440000
  39.9340000  29.4040000  50.9980000  40.7590000  30.0800000  48.7750000
  39.3480000  29.6940000  46.7830000  37.5540000  28.8200000  47.2420000
  36.7370000  27.7770000  52.0720000  38.9580000  28.8380000  51.8070000
  40.7350000  29.7210000  51.3980000  41.5720000  30.3970000  49.1480000
  40.5790000  30.1820000  47.3880000  39.1920000  29.8140000  45.3920000
  36.9350000  27.6790000  53.4070000  35.9280000  27.4530000  51.6960000
  39.1220000  28.7130000  53.2300000  41.5710000  30.7540000  46.5560000
  40.1680000  30.3790000  44.5820000  38.3910000  29.4960000  44.9910000
  38.1430000  28.1620000  53.9920000  36.2670000  27.2880000  53.9570000
  39.9220000  29.0190000  53.6420000  42.3770000  31.0750000  46.9450000
  41.3930000  30.8550000  45.1810000  40.0040000  30.5040000  43.1600000
  38.2640000  28.0970000  54.9320000  42.3890000  31.4410000  44.3180000
  40.9830000  31.0550000  42.3980000  39.2040000  30.1980000  42.7480000
  42.1910000  31.5380000  42.9830000  43.1980000  31.7650000  44.6930000
  40.8620000  31.1200000  41.4570000  42.8590000  31.9300000  42.4330000
  40.3130000  31.3070000  19.2740000  41.3050000  31.8790000  18.4420000
  39.0820000  30.8190000  18.6700000  40.4920000  31.2050000  20.6620000
  41.1260000  31.9800000  17.0670000  42.1100000  32.2000000  18.8320000
  38.9260000  30.9390000  17.2780000  38.1010000  30.2620000  19.5010000
  39.5110000  30.6480000  21.4920000  41.3060000  31.5220000  21.0340000
  42.1220000  32.5660000  16.2040000  39.9020000  31.5040000  16.4690000
  38.1240000  30.6210000  16.8780000  37.2870000  29.9450000  19.1280000
  38.2800000  30.1600000  20.8880000  39.6680000  30.5290000  22.8840000
  41.9240000  32.6630000  14.8690000  42.9320000  32.8900000  16.5800000
  39.7380000  31.6290000  15.0460000  37.2880000  29.5880000  21.7200000
  38.6920000  29.9630000  23.6940000  40.4690000  30.8460000  23.2850000
  40.7170000  32.1800000  14.2840000  42.5930000  33.0550000  14.3190000
  38.9380000  31.3230000  14.6340000  36.4830000  29.2670000  21.3310000
  37.4670000  29.4870000  23.0950000  38.8550000  29.8380000  25.1160000
  40.5960000  32.2450000  13.3440000  36.4710000  28.9010000  23.9580000
  37.8760000  29.2870000  25.8780000  39.6550000  30.1440000  25.5280000
  36.6690000  28.8040000  25.2930000  35.6610000  28.5770000  23.5830000
  37.9980000  29.2220000  26.8190000  36.0010000  28.4130000  25.8430000
  40.8140000  34.5840000  33.3310000  41.8060000  35.1560000  32.4990000
  39.5830000  34.0960000  32.7270000  40.9940000  34.4820000  34.7190000
  41.6270000  35.2570000  31.1240000  42.6110000  35.4770000  32.8880000
  39.4270000  34.2150000  31.3350000  38.6020000  33.5390000  33.5570000
  40.0120000  33.9250000  35.5490000  41.8070000  34.7990000  35.0910000
  42.6230000  35.8430000  30.2610000  40.4030000  34.7810000  30.5250000
  38.6260000  33.8980000  30.9340000  37.7890000  33.2220000  33.1850000
  38.7820000  33.4370000  34.9450000  40.1690000  33.8050000  36.9410000
  42.4250000  35.9400000  28.9260000  43.4330000  36.1670000  30.6360000
  40.2390000  34.9060000  29.1030000  37.7900000  32.8650000  35.7770000
  39.1930000  33.2400000  37.7510000  40.9700000  34.1230000  37.3420000
  41.2180000  35.4570000  28.3410000  43.0940000  36.3310000  28.3760000
  39.4390000  34.6000000  28.6910000  36.9840000  32.5440000  35.3880000
  37.9680000  32.7640000  37.1520000  39.3570000  33.1150000  39.1730000
  41.0970000  35.5220000  27.4010000  36.9720000  32.1780000  38.0150000
  38.3780000  32.5640000  39.9350000  40.1570000  33.4210000  39.5850000
  37.1700000  32.0810000  39.3500000  36.1630000  31.8540000  37.6400000
  38.4990000  32.4990000  40.8750000  36.5020000  31.6890000  39.9000000
  41.3150000  37.8610000  47.3880000  42.3070000  38.4320000  46.5560000
  40.0850000  37.3730000  46.7830000  41.4950000  37.7590000  48.7750000
  42.1290000  38.5340000  45.1810000  43.1130000  38.7540000  46.9450000
  39.9280000  37.4920000  45.3920000  39.1030000  36.8160000  47.6140000
  40.5140000  37.2020000  49.6060000  42.3080000  38.0760000  49.1480000
  43.1250000  39.1190000  44.3180000  40.9040000  38.0580000  44.5820000
  39.1270000  37.1750000  44.9910000  38.2900000  36.4980000  47.2420000
  39.2830000  36.7140000  49.0020000  40.6700000  37.0820000  50.9980000
  42.9270000  39.2170000  42.9830000  43.9340000  39.4430000  44.6930000
  40.7400000  38.1830000  43.1600000  38.2910000  36.1420000  49.8340000
  39.6940000  36.5170000  51.8070000  41.4710000  37.4000000  51.3980000
  41.7190000  38.7340000  42.3980000  43.5950000  39.6080000  42.4330000
  39.9400000  37.8760000  42.7480000  37.4860000  35.8210000  49.4440000
  38.4700000  36.0410000  51.2090000  39.8580000  36.3920000  53.2300000
  41.5980000  38.7990000  41.4570000  37.4740000  35.4550000  52.0720000
  38.8790000  35.8410000  53.9920000  40.6580000  36.6980000  53.6420000
  37.6720000  35.3580000  53.4070000  36.6640000  35.1310000  51.6960000
  39.0000000  35.7760000  54.9320000  37.0030000  34.9660000  53.9570000
  39.7840000  39.9900000  63.0580000  38.7920000  39.4190000  63.8910000
  41.0150000  40.4780000  63.6630000  39.6050000  40.0920000  61.6710000
  38.9710000  39.3180000  65.2650000  37.9870000  39.0980000  63.5010000
  41.1710000  40.3590000  65.0550000  41.9960000  41.0360000  62.8320000
  40.5860000  40.6500000  60.8400000  38.7910000  39.7750000  61.2990000
  37.9750000  38.7320000  66.1280000  40.1950000  39.7940000  65.8640000
  41.9730000  40.6770000  65.4550000  42.8100000  41.3530000  63.2050000
  41.8170000  41.1380000  61.4450000  40.4290000  40.7690000  59.4490000
  38.1730000  38.6350000  67.4640000  37.1650000  38.4080000  65.7530000
  40.3590000  39.6680000  67.2870000  42.8090000  41.7090000  60.6130000
  41.4050000  41.3340000  58.6390000  39.6280000  40.4520000  59.0480000
  39.3800000  39.1170000  68.0490000  37.5040000  38.2430000  68.0130000
  41.1590000  39.9750000  67.6990000  43.6140000  42.0300000  61.0020000
  42.6300000  41.8100000  59.2380000  41.2420000  41.4600000  57.2160000
  39.5010000  39.0520000  68.9890000  43.6260000  42.3960000  58.3750000
  42.2210000  42.0110000  56.4550000  40.4420000  41.1530000  56.8050000
  43.4280000  42.4930000  57.0390000  44.4360000  42.7200000  58.7500000
  42.0990000  42.0760000  55.5140000  44.0960000  42.8850000  56.4900000
  42.0520000  45.5390000  47.3880000  43.0430000  46.1110000  46.5560000
  40.8210000  45.0510000  46.7830000  42.2310000  45.4370000  48.7750000
  42.8650000  46.2120000  45.1810000  43.8490000  46.4320000  46.9450000
  40.6640000  45.1710000  45.3920000  39.8400000  44.4940000  47.6140000
  41.2500000  44.8800000  49.6060000  43.0440000  45.7550000  49.1480000
  43.8610000  46.7980000  44.3180000  41.6400000  45.7360000  44.5820000
  39.8630000  44.8530000  44.9910000  39.0260000  44.1770000  47.2420000
  40.0190000  44.3920000  49.0020000  41.4060000  44.7610000  50.9980000
  43.6630000  46.8950000  42.9830000  44.6710000  47.1220000  44.6930000
  41.4760000  45.8610000  43.1600000  39.0270000  43.8210000  49.8340000
  40.4300000  44.1950000  51.8070000  42.2080000  45.0780000  51.3980000
  42.4550000  46.4130000  42.3980000  44.3310000  47.2870000  42.4330000
  40.6770000  45.5550000  42.7480000  38.2220000  43.5000000  49.4440000
  39.2060000  43.7200000  51.2090000  40.5940000  44.0700000  53.2300000
  42.3340000  46.4770000  41.4570000  38.2100000  43.1340000  52.0720000
  39.6150000  43.5190000  53.9920000  41.3940000  44.3770000  53.6420000
  38.4080000  43.0360000  53.4070000  37.4000000  42.8100000  51.6960000
  39.7360000  43.4540000  54.9320000  37.7390000  42.6450000  53.9570000
  40.7550000  52.0710000  49.0020000  39.7630000  51.4990000  49.8340000
  41.9860000  52.5590000  49.6060000  40.5760000  52.1730000  47.6140000
  39.9420000  51.3980000  51.2090000  38.9580000  51.1780000  49.4440000
  42.1420000  52.4390000  50.9980000  42.9670000  53.1160000  48.7750000
  41.5570000  52.7300000  46.7830000  39.7620000  51.8560000  47.2420000
  38.9460000  50.8120000  52.0720000  41.1660000  51.8740000  51.8070000
  42.9440000  52.7570000  51.3980000  43.7810000  53.4330000  49.1480000
  42.7880000  53.2180000  47.3880000  41.4000000  52.8490000  45.3920000
  39.1440000  50.7150000  53.4070000  38.1360000  50.4880000  51.6960000
  41.3300000  51.7490000  53.2300000  43.7800000  53.7900000  46.5560000
  42.3760000  53.4150000  44.5820000  40.5990000  52.5320000  44.9910000
  40.3510000  51.1980000  53.9920000  38.4750000  50.3230000  53.9570000
  42.1300000  52.0550000  53.6420000  44.5850000  54.1110000  46.9450000
  43.6010000  53.8910000  45.1810000  42.2130000  53.5400000  43.1600000
  40.4720000  51.1330000  54.9320000  44.5970000  54.4770000  44.3180000
  43.1910000  54.0910000  42.3980000  41.4130000  53.2340000  42.7480000
  44.3990000  54.5740000  42.9830000  45.4070000  54.8010000  44.6930000
  43.0700000  54.1560000  41.4570000  45.0670000  54.9650000  42.4330000
  41.2840000  43.3880000   5.2170000  42.2760000  43.9590000   4.3850000
  40.0530000  42.9000000   4.6130000  41.4630000  43.2860000   6.6050000
  42.0970000  44.0600000   3.0110000  43.0810000  44.2800000   4.7750000
  39.8970000  43.0190000   3.2210000  39.0720000  42.3420000   5.4440000
  40.4820000  42.7280000   7.4360000  42.2770000  43.6030000   6.9770000
  43.0930000  44.6460000   2.1470000  40.8730000  43.5840000   2.4120000
  39.0950000  42.7010000   2.8210000  38.2580000  42.0250000   5.0710000
  39.2510000  42.2400000   6.8310000  40.6390000  42.6090000   8.8270000
  42.8950000  44.7430000   0.8120000  43.9030000  44.9700000   2.5230000
  40.7090000  43.7100000   0.9890000  38.2590000  41.6690000   7.6630000
  39.6630000  42.0440000   9.6370000  41.4400000  42.9260000   9.2280000
  41.6880000  44.2610000   0.2270000  43.5640000  45.1350000   0.2620000
  39.9090000  43.4030000   0.5770000  37.4540000  41.3480000   7.2740000
  38.4380000  41.5680000   9.0380000  39.8260000  41.9180000  11.0590000
  41.5670000  44.3260000  -0.7130000  37.4420000  40.9820000   9.9010000
  38.8470000  41.3670000  11.8210000  40.6260000  42.2250000  11.4710000
  37.6400000  40.8850000  11.2370000  36.6320000  40.6580000   9.5260000
  38.9690000  41.3020000  12.7620000  36.9720000  40.4930000  11.7860000
  39.7530000  45.5170000  20.8880000  38.7610000  44.9460000  21.7200000
  40.9830000  46.0050000  21.4920000  39.5730000  45.6190000  19.5010000
  38.9390000  44.8440000  23.0950000  37.9550000  44.6240000  21.3310000
  41.1400000  45.8860000  22.8840000  41.9650000  46.5620000  20.6620000
  40.5540000  46.1760000  18.6700000  38.7600000  45.3020000  19.1280000
  37.9430000  44.2590000  23.9580000  40.1640000  45.3200000  23.6940000
  41.9410000  46.2030000  23.2850000  42.7780000  46.8800000  21.0340000
  41.7850000  46.6640000  19.2740000  40.3980000  46.2960000  17.2780000
  38.1410000  44.1610000  25.2930000  37.1330000  43.9350000  23.5830000
  40.3280000  45.1950000  25.1160000  42.7770000  47.2360000  18.4420000
  41.3740000  46.8610000  16.4690000  39.5970000  45.9780000  16.8780000
  39.3490000  44.6440000  25.8780000  37.4730000  43.7700000  25.8430000
  41.1280000  45.5020000  25.5280000  43.5820000  47.5570000  18.8320000
  42.5980000  47.3370000  17.0670000  41.2100000  46.9860000  15.0460000
  39.4700000  44.5790000  26.8190000  43.5940000  47.9230000  16.2040000
  42.1890000  47.5370000  14.2840000  40.4100000  46.6800000  14.6340000
  43.3960000  48.0200000  14.8690000  44.4040000  48.2470000  16.5800000
  42.0680000  47.6020000  13.3440000  44.0650000  48.4120000  14.3190000
  43.5240000  60.8970000  47.3880000  44.5160000  61.4680000  46.5560000
  42.2930000  60.4090000  46.7830000  43.7030000  60.7950000  48.7750000
  44.3370000  61.5690000  45.1810000  45.3210000  61.7890000  46.9450000
  42.1370000  60.5280000  45.3920000  41.3120000  59.8510000  47.6140000
  42.7220000  60.2370000  49.6060000  44.5170000  61.1120000  49.1480000
  45.3330000  62.1550000  44.3180000  43.1120000  61.0930000  44.5820000
  41.3350000  60.2100000  44.9910000  40.4980000  59.5340000  47.2420000
  41.4910000  59.7490000  49.0020000  42.8780000  60.1180000  50.9980000
  45.1350000  62.2520000  42.9830000  46.1430000  62.4790000  44.6930000
  42.9490000  61.2190000  43.1600000  40.4990000  59.1780000  49.8340000
  41.9030000  59.5530000  51.8070000  43.6800000  60.4360000  51.3980000
  43.9280000  61.7700000  42.3980000  45.8030000  62.6440000  42.4330000
  42.1490000  60.9120000  42.7480000  39.6940000  58.8570000  49.4440000
  40.6780000  59.0770000  51.2090000  42.0660000  59.4270000  53.2300000
  43.8060000  61.8350000  41.4570000  39.6820000  58.4910000  52.0720000
  41.0870000  58.8760000  53.9920000  42.8660000  59.7340000  53.6420000
  39.8800000  58.3940000  53.4070000  38.8720000  58.1670000  51.6960000
  41.2080000  58.8110000  54.9320000  39.2110000  58.0020000  53.9570000
  39.9870000  49.9190000   6.8310000  38.9950000  49.3470000   7.6630000
  41.2180000  50.4070000   7.4360000  39.8080000  50.0210000   5.4440000
  39.1740000  49.2460000   9.0380000  38.1900000  49.0260000   7.2740000
  41.3750000  50.2870000   8.8270000  42.1990000  50.9640000   6.6050000
  40.7890000  50.5780000   4.6130000  38.9950000  49.7040000   5.0710000
  38.1780000  48.6600000   9.9010000  40.3990000  49.7220000   9.6370000
  42.1760000  50.6050000   9.2280000  43.0130000  51.2810000   6.9770000
  42.0200000  51.0660000   5.2170000  40.6330000  50.6980000   3.2210000
  38.3760000  48.5630000  11.2370000  37.3680000  48.3360000   9.5260000
  40.5630000  49.5970000  11.0590000  43.0120000  51.6380000   4.3850000
  41.6090000  51.2630000   2.4120000  39.8310000  50.3800000   2.8210000
  39.5840000  49.0460000  11.8210000  37.7080000  48.1710000  11.7860000
  41.3620000  49.9030000  11.4710000  43.8170000  51.9590000   4.7750000
  42.8330000  51.7390000   3.0110000  41.4450000  51.3880000   0.9890000
  39.7050000  48.9810000  12.7620000  43.8290000  52.3250000   2.1470000
  42.4240000  51.9390000   0.2270000  40.6450000  51.0820000   0.5770000
  43.6310000  52.4220000   0.8120000  44.6390000  52.6490000   2.5230000
  42.3030000  52.0040000  -0.7130000  44.3000000  52.8140000   0.2620000
  39.6080000  18.1020000  61.4450000  40.6000000  18.6730000  60.6130000
  38.3780000  17.6140000  60.8400000  39.7880000  18.0000000  62.8320000
  40.4220000  18.7750000  59.2380000  41.4060000  18.9950000  61.0020000
  38.2210000  17.7330000  59.4490000  37.3960000  17.0570000  61.6710000
  38.8070000  17.4430000  63.6630000  40.6010000  18.3170000  63.2050000
  41.4180000  19.3600000  58.3750000  39.1970000  18.2990000  58.6390000
  37.4200000  17.4160000  59.0480000  36.5830000  16.7390000  61.2990000
  37.5760000  16.9550000  63.0580000  38.9630000  17.3230000  65.0550000
  41.2200000  19.4580000  57.0390000  42.2270000  19.6840000  58.7500000
  39.0330000  18.4240000  57.2160000  36.5840000  16.3830000  63.8910000
  37.9870000  16.7580000  65.8640000  39.7640000  17.6410000  65.4550000
  40.0120000  18.9750000  56.4550000  41.8880000  19.8490000  56.4900000
  38.2330000  18.1170000  56.8050000  35.7790000  16.0620000  63.5010000
  36.7620000  16.2820000  65.2650000  38.1510000  16.6330000  67.2870000
  39.8910000  19.0400000  55.5140000  35.7660000  15.6960000  66.1280000
  37.1720000  16.0820000  68.0490000  38.9510000  16.9390000  67.6990000
  35.9640000  15.5990000  67.4640000  34.9570000  15.3720000  65.7530000
  37.2930000  16.0170000  68.9890000  35.2960000  15.2070000  68.0130000
  40.3440000  25.7810000  61.4450000  41.3360000  26.3520000  60.6130000
  39.1140000  25.2930000  60.8400000  40.5240000  25.6790000  62.8320000
  41.1580000  26.4530000  59.2380000  42.1420000  26.6730000  61.0020000
  38.9570000  25.4120000  59.4490000  38.1320000  24.7350000  61.6710000
  39.5430000  25.1210000  63.6630000  41.3370000  25.9960000  63.2050000
  42.1540000  27.0390000  58.3750000  39.9330000  25.9770000  58.6390000
  38.1560000  25.0940000  59.0480000  37.3190000  24.4180000  61.2990000
  38.3120000  24.6330000  63.0580000  39.6990000  25.0020000  65.0550000
  41.9560000  27.1360000  57.0390000  42.9640000  27.3630000  58.7500000
  39.7690000  26.1020000  57.2160000  37.3200000  24.0620000  63.8910000
  38.7230000  24.4370000  65.8640000  40.5000000  25.3190000  65.4550000
  40.7480000  26.6540000  56.4550000  42.6240000  27.5280000  56.4900000
  38.9690000  25.7960000  56.8050000  36.5150000  23.7410000  63.5010000
  37.4990000  23.9610000  65.2650000  38.8870000  24.3110000  67.2870000
  40.6270000  26.7180000  55.5140000  36.5030000  23.3750000  66.1280000
  37.9080000  23.7600000  68.0490000  39.6870000  24.6180000  67.6990000
  36.7010000  23.2780000  67.4640000  35.6930000  23.0510000  65.7530000
  38.0290000  23.6950000  68.9890000  36.0320000  22.8860000  68.0130000
  41.0810000  33.4590000  61.4450000  42.0720000  34.0310000  60.6130000
  39.8500000  32.9710000  60.8400000  41.2600000  33.3570000  62.8320000
  41.8940000  34.1320000  59.2380000  42.8780000  34.3520000  61.0020000
  39.6930000  33.0910000  59.4490000  38.8690000  32.4140000  61.6710000
  40.2790000  32.8000000  63.6630000  42.0730000  33.6740000  63.2050000
  42.8900000  34.7180000  58.3750000  40.6690000  33.6560000  58.6390000
  38.8920000  32.7730000  59.0480000  38.0550000  32.0970000  61.2990000
  39.0480000  32.3120000  63.0580000  40.4350000  32.6800000  65.0550000
  42.6920000  34.8150000  57.0390000  43.7000000  35.0420000  58.7500000
  40.5050000  33.7810000  57.2160000  38.0560000  31.7400000  63.8910000
  39.4590000  32.1150000  65.8640000  41.2370000  32.9980000  65.4550000
  41.4840000  34.3320000  56.4550000  43.3600000  35.2070000  56.4900000
  39.7060000  33.4750000  56.8050000  37.2510000  31.4190000  63.5010000
  38.2350000  31.6390000  65.2650000  39.6230000  31.9900000  67.2870000
  41.3630000  34.3970000  55.5140000  37.2390000  31.0530000  66.1280000
  38.6440000  31.4390000  68.0490000  40.4230000  32.2960000  67.6990000
  37.4370000  30.9560000  67.4640000  36.4290000  30.7290000  65.7530000
  38.7650000  31.3740000  68.9890000  36.7680000  30.5640000  68.0130000
  41.0490000  38.9860000  19.2740000  42.0410000  39.5570000  18.4420000
  39.8180000  38.4980000  18.6700000  41.2280000  38.8840000  20.6620000
  41.8620000  39.6580000  17.0670000  42.8460000  39.8780000  18.8320000
  39.6620000  38.6170000  17.2780000  38.8370000  37.9410000  19.5010000
  40.2470000  38.3270000  21.4920000  42.0420000  39.2010000  21.0340000
  42.8580000  40.2440000  16.2040000  40.6380000  39.1830000  16.4690000
  38.8600000  38.3000000  16.8780000  38.0240000  37.6230000  19.1280000
  39.0160000  37.8390000  20.8880000  40.4040000  38.2070000  22.8840000
  42.6600000  40.3420000  14.8690000  43.6680000  40.5680000  16.5800000
  40.4740000  39.3080000  15.0460000  38.0250000  37.2670000  21.7200000
  39.4280000  37.6420000  23.6940000  41.2050000  38.5250000  23.2850000
  41.4530000  39.8590000  14.2840000  43.3290000  40.7330000  14.3190000
  39.6740000  39.0010000  14.6340000  37.2190000  36.9460000  21.3310000
  38.2030000  37.1660000  23.0950000  39.5920000  37.5170000  25.1160000
  41.3320000  39.9240000  13.3440000  37.2070000  36.5800000  23.9580000
  38.6130000  36.9650000  25.8780000  40.3910000  37.8230000  25.5280000
  37.4050000  36.4830000  25.2930000  36.3970000  36.2560000  23.5830000
  38.7340000  36.9010000  26.8190000  36.7370000  36.0910000  25.8430000
  42.5530000  48.8160000  61.4450000  43.5450000  49.3880000  60.6130000
  41.3220000  48.3280000  60.8400000  42.7320000  48.7140000  62.8320000
  43.3660000  49.4890000  59.2380000  44.3500000  49.7090000  61.0020000
  41.1660000  48.4480000  59.4490000  40.3410000  47.7710000  61.6710000
  41.7510000  48.1570000  63.6630000  43.5460000  49.0320000  63.2050000
  44.3620000  50.0750000  58.3750000  42.1410000  49.0130000  58.6390000
  40.3640000  48.1300000  59.0480000  39.5270000  47.4540000  61.2990000
  40.5200000  47.6690000  63.0580000  41.9070000  48.0380000  65.0550000
  44.1640000  50.1720000  57.0390000  45.1720000  50.3990000  58.7500000
  41.9780000  49.1380000  57.2160000  39.5280000  47.0970000  63.8910000
  40.9320000  47.4720000  65.8640000  42.7090000  48.3550000  65.4550000
  42.9570000  49.6890000  56.4550000  44.8330000  50.5640000  56.4900000
  41.1780000  48.8320000  56.8050000  38.7230000  46.7760000  63.5010000
  39.7070000  46.9960000  65.2650000  41.0950000  47.3470000  67.2870000
  42.8350000  49.7540000  55.5140000  38.7110000  46.4110000  66.1280000
  40.1160000  46.7960000  68.0490000  41.8950000  47.6530000  67.6990000
  38.9090000  46.3130000  67.4640000  37.9010000  46.0870000  65.7530000
  40.2380000  46.7310000  68.9890000  38.2410000  45.9220000  68.0130000
  39.5180000  41.1150000  34.9450000  38.5260000  40.5440000  35.7770000
  40.7490000  41.6030000  35.5490000  39.3380000  41.2170000  33.5570000
  38.7040000  40.4430000  37.1520000  37.7200000  40.2230000  35.3880000
  40.9050000  41.4840000  36.9410000  41.7300000  42.1610000  34.7190000
  40.3190000  41.7750000  32.7270000  38.5250000  40.9000000  33.1850000
  37.7080000  39.8570000  38.0150000  39.9290000  40.9190000  37.7510000
  41.7060000  41.8020000  37.3420000  42.5430000  42.4780000  35.0910000
  41.5500000  42.2630000  33.3310000  40.1630000  41.8940000  31.3350000
  37.9060000  39.7600000  39.3500000  36.8990000  39.5330000  37.6400000
  40.0930000  40.7930000  39.1730000  42.5420000  42.8340000  32.4990000
  41.1390000  42.4590000  30.5250000  39.3620000  41.5760000  30.9340000
  39.1140000  40.2420000  39.9350000  37.2380000  39.3680000  39.9000000
  40.8930000  41.1000000  39.5850000  43.3480000  43.1550000  32.8880000
  42.3640000  42.9350000  31.1240000  40.9750000  42.5850000  29.1030000
  39.2350000  40.1770000  40.8750000  43.3600000  43.5210000  30.2610000
  41.9540000  43.1360000  28.3410000  40.1750000  42.2780000  28.6910000
  43.1620000  43.6180000  28.9260000  44.1690000  43.8450000  30.6360000
  41.8330000  43.2010000  27.4010000  43.8300000  44.0100000  28.3760000
  40.2540000  48.7940000  34.9450000  39.2620000  48.2220000  35.7770000
  41.4850000  49.2820000  35.5490000  40.0740000  48.8960000  33.5570000
  39.4410000  48.1210000  37.1520000  38.4570000  47.9010000  35.3880000
  41.6410000  49.1630000  36.9410000  42.4660000  49.8390000  34.7190000
  41.0560000  49.4530000  32.7270000  39.2610000  48.5790000  33.1850000
  38.4450000  47.5350000  38.0150000  40.6650000  48.5970000  37.7510000
  42.4420000  49.4800000  37.3420000  43.2790000  50.1560000  35.0910000
  42.2860000  49.9410000  33.3310000  40.8990000  49.5730000  31.3350000
  38.6430000  47.4380000  39.3500000  37.6350000  47.2110000  37.6400000
  40.8290000  48.4720000  39.1730000  43.2780000  50.5130000  32.4990000
  41.8750000  50.1380000  30.5250000  40.0980000  49.2550000  30.9340000
  39.8500000  47.9210000  39.9350000  37.9740000  47.0470000  39.9000000
  41.6290000  48.7780000  39.5850000  44.0840000  50.8340000  32.8880000
  43.1000000  50.6140000  31.1240000  41.7110000  50.2630000  29.1030000
  39.9710000  47.8560000  40.8750000  44.0960000  51.2000000  30.2610000
  42.6900000  50.8140000  28.3410000  40.9110000  49.9570000  28.6910000
  43.8980000  51.2970000  28.9260000  44.9050000  51.5240000  30.6360000
  42.5690000  50.8790000  27.4010000  44.5660000  51.6890000  28.3760000
  42.5210000  54.3430000  19.2740000  43.5130000  54.9150000  18.4420000
  41.2900000  53.8550000  18.6700000  42.7010000  54.2410000  20.6620000
  43.3350000  55.0160000  17.0670000  44.3180000  55.2360000  18.8320000
  41.1340000  53.9740000  17.2780000  40.3090000  53.2980000  19.5010000
  41.7190000  53.6840000  21.4920000  43.5140000  54.5580000  21.0340000
  44.3310000  55.6010000  16.2040000  42.1100000  54.5400000  16.4690000
  40.3330000  53.6570000  16.8780000  39.4960000  52.9810000  19.1280000
  40.4890000  53.1960000  20.8880000  41.8760000  53.5640000  22.8840000
  44.1330000  55.6990000  14.8690000  45.1400000  55.9250000  16.5800000
  41.9460000  54.6650000  15.0460000  39.4970000  52.6240000  21.7200000
  40.9000000  52.9990000  23.6940000  42.6770000  53.8820000  23.2850000
  42.9250000  55.2160000  14.2840000  44.8010000  56.0900000  14.3190000
  41.1460000  54.3590000  14.6340000  38.6910000  52.3030000  21.3310000
  39.6750000  52.5230000  23.0950000  41.0640000  52.8740000  25.1160000
  42.8040000  55.2810000  13.3440000  38.6790000  51.9370000  23.9580000
  40.0850000  52.3230000  25.8780000  41.8640000  53.1800000  25.5280000
  38.8770000  51.8400000  25.2930000  37.8700000  51.6130000  23.5830000
  40.2060000  52.2580000  26.8190000  38.2090000  51.4480000  25.8430000
  43.0230000  57.6200000  33.3310000  44.0140000  58.1910000  32.4990000
  41.7920000  57.1320000  32.7270000  43.2020000  57.5180000  34.7190000
  43.8360000  58.2920000  31.1240000  44.8200000  58.5130000  32.8880000
  41.6350000  57.2510000  31.3350000  40.8110000  56.5750000  33.5570000
  42.2210000  56.9610000  35.5490000  44.0150000  57.8350000  35.0910000
  44.8320000  58.8780000  30.2610000  42.6110000  57.8170000  30.5250000
  40.8340000  56.9340000  30.9340000  39.9970000  56.2570000  33.1850000
  40.9900000  56.4730000  34.9450000  42.3770000  56.8410000  36.9410000
  44.6340000  58.9760000  28.9260000  45.6420000  59.2020000  30.6360000
  42.4470000  57.9420000  29.1030000  39.9980000  55.9010000  35.7770000
  41.4010000  56.2760000  37.7510000  43.1790000  57.1590000  37.3420000
  43.4260000  58.4930000  28.3410000  45.3020000  59.3670000  28.3760000
  41.6480000  57.6350000  28.6910000  39.1930000  55.5800000  35.3880000
  40.1770000  55.8000000  37.1520000  41.5650000  56.1510000  39.1730000
  43.3050000  58.5580000  27.4010000  39.1810000  55.2140000  38.0150000
  40.5860000  55.5990000  39.9350000  42.3650000  56.4570000  39.5850000
  39.3790000  55.1170000  39.3500000  38.3710000  54.8900000  37.6400000
  40.7070000  55.5350000  40.8750000  38.7100000  54.7250000  39.9000000
  38.6060000  11.5480000  33.3310000  39.5980000  12.1200000  32.4990000
  37.3750000  11.0600000  32.7270000  38.7850000  11.4460000  34.7190000
  39.4190000  12.2210000  31.1240000  40.4030000  12.4410000  32.8880000
  37.2190000  11.1800000  31.3350000  36.3940000  10.5030000  33.5570000
  37.8040000  10.8890000  35.5490000  39.5990000  11.7630000  35.0910000
  40.4150000  12.8070000  30.2610000  38.1940000  11.7450000  30.5250000
  36.4170000  10.8620000  30.9340000  35.5800000  10.1860000  33.1850000
  36.5730000  10.4010000  34.9450000  37.9600000  10.7700000  36.9410000
  40.2170000  12.9040000  28.9260000  41.2250000  13.1310000  30.6360000
  38.0310000  11.8700000  29.1030000  35.5810000   9.8290000  35.7770000
  36.9850000  10.2040000  37.7510000  38.7620000  11.0870000  37.3420000
  39.0100000  12.4210000  28.3410000  40.8860000  13.2960000  28.3760000
  37.2310000  11.5640000  28.6910000  34.7760000   9.5080000  35.3880000
  35.7600000   9.7280000  37.1520000  37.1480000  10.0790000  39.1730000
  38.8890000  12.4860000  27.4010000  34.7640000   9.1420000  38.0150000
  36.1690000   9.5280000  39.9350000  37.9480000  10.3850000  39.5850000
  34.9620000   9.0450000  39.3500000  33.9540000   8.8180000  37.6400000
  36.2910000   9.4630000  40.8750000  34.2940000   8.6540000  39.9000000
  36.0720000   7.1240000  20.8880000  35.0800000   6.5530000  21.7200000
  37.3030000   7.6120000  21.4920000  35.8930000   7.2260000  19.5010000
  35.2590000   6.4520000  23.0950000  34.2750000   6.2310000  21.3310000
  37.4590000   7.4930000  22.8840000  38.2840000   8.1690000  20.6620000
  36.8740000   7.7830000  18.6700000  35.0790000   6.9090000  19.1280000
  34.2630000   5.8660000  23.9580000  36.4830000   6.9270000  23.6940000
  38.2610000   7.8100000  23.2850000  39.0970000   8.4870000  21.0340000
  38.1050000   8.2710000  19.2740000  36.7170000   7.9030000  17.2780000
  34.4610000   5.7680000  25.2930000  33.4530000   5.5420000  23.5830000
  36.6470000   6.8020000  25.1160000  39.0960000   8.8430000  18.4420000
  37.6930000   8.4680000  16.4690000  35.9160000   7.5850000  16.8780000
  35.6680000   6.2510000  25.8780000  33.7920000   5.3770000  25.8430000
  37.4470000   7.1090000  25.5280000  39.9020000   9.1640000  18.8320000
  38.9180000   8.9440000  17.0670000  37.5290000   8.5930000  15.0460000
  35.7890000   6.1860000  26.8190000  39.9140000   9.5300000  16.2040000
  38.5080000   9.1440000  14.2840000  36.7300000   8.2870000  14.6340000
  39.7160000   9.6270000  14.8690000  40.7240000   9.8540000  16.5800000
  38.3870000   9.2090000  13.3440000  40.3840000  10.0190000  14.3190000
  38.8410000  15.9500000  19.2740000  39.8330000  16.5220000  18.4420000
  37.6100000  15.4620000  18.6700000  39.0200000  15.8480000  20.6620000
  39.6540000  16.6230000  17.0670000  40.6380000  16.8430000  18.8320000
  37.4530000  15.5810000  17.2780000  36.6290000  14.9050000  19.5010000
  38.0390000  15.2910000  21.4920000  39.8340000  16.1650000  21.0340000
  40.6500000  17.2090000  16.2040000  38.4290000  16.1470000  16.4690000
  36.6520000  15.2640000  16.8780000  35.8150000  14.5880000  19.1280000
  36.8080000  14.8030000  20.8880000  38.1950000  15.1710000  22.8840000
  40.4520000  17.3060000  14.8690000  41.4600000  17.5330000  16.5800000
  38.2660000  16.2720000  15.0460000  35.8160000  14.2310000  21.7200000
  37.2190000  14.6060000  23.6940000  38.9970000  15.4890000  23.2850000
  39.2440000  16.8230000  14.2840000  41.1200000  17.6970000  14.3190000
  37.4660000  15.9660000  14.6340000  35.0110000  13.9100000  21.3310000
  35.9950000  14.1300000  23.0950000  37.3830000  14.4810000  25.1160000
  39.1230000  16.8880000  13.3440000  34.9990000  13.5440000  23.9580000
  36.4040000  13.9300000  25.8780000  38.1830000  14.7870000  25.5280000
  35.1970000  13.4470000  25.2930000  34.1890000  13.2200000  23.5830000
  36.5250000  13.8650000  26.8190000  34.5280000  13.0550000  25.8430000
  37.3090000  18.0800000  34.9450000  36.3170000  17.5080000  35.7770000
  38.5400000  18.5680000  35.5490000  37.1300000  18.1820000  33.5570000
  36.4960000  17.4070000  37.1520000  35.5120000  17.1870000  35.3880000
  38.6970000  18.4480000  36.9410000  39.5210000  19.1250000  34.7190000
  38.1110000  18.7390000  32.7270000  36.3160000  17.8640000  33.1850000
  35.5000000  16.8210000  38.0150000  37.7210000  17.8830000  37.7510000
  39.4980000  18.7660000  37.3420000  40.3350000  19.4420000  35.0910000
  39.3420000  19.2270000  33.3310000  37.9550000  18.8580000  31.3350000
  35.6980000  16.7240000  39.3500000  34.6900000  16.4970000  37.6400000
  37.8840000  17.7580000  39.1730000  40.3340000  19.7980000  32.4990000
  38.9310000  19.4240000  30.5250000  37.1530000  18.5410000  30.9340000
  36.9060000  17.2060000  39.9350000  35.0300000  16.3320000  39.9000000
  38.6840000  18.0640000  39.5850000  41.1390000  20.1200000  32.8880000
  40.1550000  19.8990000  31.1240000  38.7670000  19.5490000  29.1030000
  37.0270000  17.1420000  40.8750000  41.1510000  20.4850000  30.2610000
  39.7460000  20.1000000  28.3410000  37.9670000  19.2420000  28.6910000
  40.9530000  20.5830000  28.9260000  41.9610000  20.8090000  30.6360000
  39.6250000  20.1650000  27.4010000  41.6220000  20.9740000  28.3760000
  37.5440000  22.4810000  20.8880000  36.5520000  21.9100000  21.7200000
  38.7750000  22.9690000  21.4920000  37.3650000  22.5830000  19.5010000
  36.7310000  21.8090000  23.0950000  35.7470000  21.5890000  21.3310000
  38.9310000  22.8500000  22.8840000  39.7560000  23.5270000  20.6620000
  38.3460000  23.1410000  18.6700000  36.5510000  22.2660000  19.1280000
  35.7350000  21.2230000  23.9580000  37.9560000  22.2850000  23.6940000
  39.7330000  23.1680000  23.2850000  40.5700000  23.8440000  21.0340000
  39.5770000  23.6290000  19.2740000  38.1900000  23.2600000  17.2780000
  35.9330000  21.1260000  25.2930000  34.9250000  20.8990000  23.5830000
  38.1190000  22.1590000  25.1160000  40.5690000  24.2000000  18.4420000
  39.1650000  23.8250000  16.4690000  37.3880000  22.9420000  16.8780000
  37.1400000  21.6080000  25.8780000  35.2640000  20.7340000  25.8430000
  38.9190000  22.4660000  25.5280000  41.3740000  24.5210000  18.8320000
  40.3900000  24.3010000  17.0670000  39.0020000  23.9510000  15.0460000
  37.2620000  21.5430000  26.8190000  41.3860000  24.8870000  16.2040000
  39.9810000  24.5020000  14.2840000  38.2020000  23.6440000  14.6340000
  41.1880000  24.9840000  14.8690000  42.1960000  25.2110000  16.5800000
  39.8590000  24.5670000  13.3440000  41.8560000  25.3760000  14.3190000
  40.0780000  26.9050000  33.3310000  41.0700000  27.4770000  32.4990000
  38.8470000  26.4170000  32.7270000  40.2570000  26.8030000  34.7190000
  40.8910000  27.5780000  31.1240000  41.8750000  27.7980000  32.8880000
  38.6910000  26.5370000  31.3350000  37.8660000  25.8600000  33.5570000
  39.2760000  26.2460000  35.5490000  41.0710000  27.1210000  35.0910000
  41.8870000  28.1640000  30.2610000  39.6670000  27.1020000  30.5250000
  37.8890000  26.2190000  30.9340000  37.0530000  25.5430000  33.1850000
  38.0450000  25.7580000  34.9450000  39.4330000  26.1270000  36.9410000
  41.6890000  28.2610000  28.9260000  42.6970000  28.4880000  30.6360000
  39.5030000  27.2270000  29.1030000  37.0540000  25.1870000  35.7770000
  38.4570000  25.5610000  37.7510000  40.2340000  26.4440000  37.3420000
  40.4820000  27.7790000  28.3410000  42.3580000  28.6530000  28.3760000
  38.7030000  26.9210000  28.6910000  36.2480000  24.8650000  35.3880000
  37.2320000  25.0860000  37.1520000  38.6210000  25.4360000  39.1730000
  40.3610000  27.8430000  27.4010000  36.2360000  24.5000000  38.0150000
  37.6420000  24.8850000  39.9350000  39.4200000  25.7430000  39.5850000
  36.4340000  24.4020000  39.3500000  35.4260000  24.1760000  37.6400000
  37.7630000  24.8200000  40.8750000  35.7660000  24.0110000  39.9000000
  43.2890000  56.4950000  61.4450000  44.2810000  57.0660000  60.6130000
  42.0580000  56.0070000  60.8400000  43.4680000  56.3930000  62.8320000
  44.1020000  57.1680000  59.2380000  45.0860000  57.3880000  61.0020000
  41.9020000  56.1260000  59.4490000  41.0770000  55.4500000  61.6710000
  42.4870000  55.8360000  63.6630000  44.2820000  56.7100000  63.2050000
  45.0980000  57.7530000  58.3750000  42.8780000  56.6920000  58.6390000
  41.1000000  55.8090000  59.0480000  40.2630000  55.1320000  61.2990000
  41.2560000  55.3480000  63.0580000  42.6440000  55.7160000  65.0550000
  44.9000000  57.8510000  57.0390000  45.9080000  58.0770000  58.7500000
  42.7140000  56.8170000  57.2160000  40.2640000  54.7760000  63.8910000
  41.6680000  55.1510000  65.8640000  43.4450000  56.0340000  65.4550000
  43.6930000  57.3680000  56.4550000  45.5690000  58.2420000  56.4900000
  41.9140000  56.5100000  56.8050000  39.4590000  54.4550000  63.5010000
  40.4430000  54.6750000  65.2650000  41.8310000  55.0260000  67.2870000
  43.5720000  57.4330000  55.5140000  39.4470000  54.0890000  66.1280000
  40.8530000  54.4750000  68.0490000  42.6310000  55.3320000  67.6990000
  39.6450000  53.9920000  67.4640000  38.6370000  53.7650000  65.7530000
  40.9740000  54.4100000  68.9890000  38.9770000  53.6000000  68.0130000
  41.9920000  63.0260000  63.0580000  41.0010000  62.4550000  63.8910000
  43.2230000  63.5140000  63.6630000  41.8130000  63.1280000  61.6710000
  41.1790000  62.3540000  65.2650000  40.1950000  62.1340000  63.5010000
  43.3800000  63.3950000  65.0550000  44.2040000  64.0720000  62.8320000
  42.7940000  63.6860000  60.8400000  41.0000000  62.8110000  61.2990000
  40.1830000  61.7680000  66.1280000  42.4040000  62.8290000  65.8640000
  44.1810000  63.7120000  65.4550000  45.0180000  64.3890000  63.2050000
  44.0250000  64.1730000  61.4450000  42.6380000  63.8050000  59.4490000
  40.3810000  61.6710000  67.4640000  39.3730000  61.4440000  65.7530000
  42.5680000  62.7040000  67.2870000  45.0170000  64.7450000  60.6130000
  43.6140000  64.3700000  58.6390000  41.8360000  63.4870000  59.0480000
  41.5890000  62.1530000  68.0490000  39.7130000  61.2790000  68.0130000
  43.3670000  63.0110000  67.6990000  45.8220000  65.0660000  61.0020000
  44.8380000  64.8460000  59.2380000  43.4500000  64.4950000  57.2160000
  41.7100000  62.0880000  68.9890000  45.8340000  65.4320000  58.3750000
  44.4290000  65.0470000  56.4550000  42.6500000  64.1890000  56.8050000
  45.6360000  65.5290000  57.0390000  46.6440000  65.7560000  58.7500000
  44.3080000  65.1110000  55.5140000  46.3050000  65.9210000  56.4900000
  43.9860000  57.6360000  21.0740000  43.0020000  57.6410000  22.0930000
  45.2300000  56.9070000  21.3060000  43.8150000  58.3160000  19.8600000
  43.1970000  56.9810000  23.2930000  42.1870000  58.1080000  21.9480000
  45.4010000  56.2300000  22.5300000  46.2060000  56.9010000  20.3020000
  44.7910000  58.3110000  18.8570000  43.0020000  58.7880000  19.7300000
  42.2130000  56.9980000  24.3310000  44.4280000  56.2570000  23.5190000
  46.2020000  55.7420000  22.6820000  47.0200000  56.4290000  20.4330000
  46.0350000  57.5820000  19.0890000  44.6210000  58.9870000  17.6320000
  42.4240000  56.3550000  25.5030000  41.3980000  57.4670000  24.1940000
  44.6000000  55.5970000  24.7730000  47.0200000  57.5770000  18.0700000
  45.5930000  58.9600000  16.6430000  43.8200000  59.4750000  17.4810000
  43.6420000  55.6400000  25.7320000  41.7580000  56.3780000  26.1790000
  45.4020000  55.1160000  24.9390000  47.8340000  57.1090000  18.2140000
  46.8240000  58.2360000  16.8690000  45.4220000  59.6200000  15.3890000
  43.7810000  55.1950000  26.5600000  47.8080000  58.2190000  15.8320000
  46.3790000  59.5770000  14.4300000  44.6190000  60.1010000  15.2230000
  47.5970000  58.8630000  14.6590000  48.6230000  57.7500000  15.9680000
  46.2410000  60.0220000  13.6020000  48.2640000  58.8390000  13.9830000
  44.4870000  60.9130000  35.1300000  43.5030000  60.9170000  36.1500000
  45.7310000  60.1830000  35.3620000  44.3170000  61.5930000  33.9170000
  43.6990000  60.2580000  37.3500000  42.6890000  61.3850000  36.0050000
  45.9020000  59.5070000  36.5870000  46.7070000  60.1780000  34.3590000
  45.2920000  61.5880000  32.9140000  43.5030000  62.0650000  33.7870000
  42.7140000  60.2750000  38.3870000  44.9290000  59.5340000  37.5760000
  46.7030000  59.0190000  36.7380000  47.5210000  59.7060000  34.4890000
  46.5370000  60.8580000  33.1460000  45.1220000  62.2640000  31.6890000
  42.9260000  59.6320000  39.5600000  41.9000000  60.7440000  38.2510000
  45.1010000  58.8740000  38.8300000  47.5210000  60.8530000  32.1260000
  46.0950000  62.2370000  30.7000000  44.3210000  62.7520000  31.5370000
  44.1430000  58.9170000  39.7890000  42.2590000  59.6550000  40.2360000
  45.9040000  58.3930000  38.9960000  48.3350000  60.3860000  32.2710000
  47.3250000  61.5130000  30.9260000  45.9230000  62.8970000  29.4460000
  44.2820000  58.4720000  40.6170000  48.3100000  61.4960000  29.8890000
  46.8800000  62.8540000  28.4870000  45.1200000  63.3780000  29.2800000
  48.0980000  62.1390000  28.7160000  49.1240000  61.0270000  30.0250000
  46.7420000  63.2990000  27.6590000  48.7650000  62.1160000  28.0400000
  44.9890000  64.1890000  49.1870000  44.0040000  64.1940000  50.2060000
  46.2330000  63.4600000  49.4190000  44.8180000  64.8700000  47.9740000
  44.2000000  63.5350000  51.4070000  43.1900000  64.6620000  50.0620000
  46.4030000  62.7840000  50.6430000  47.2080000  63.4550000  48.4150000
  45.7940000  64.8640000  46.9700000  44.0040000  65.3420000  47.8430000
  43.2160000  63.5520000  52.4440000  45.4310000  62.8110000  51.6330000
  47.2040000  62.2960000  50.7950000  48.0220000  62.9830000  48.5460000
  47.0380000  64.1350000  47.2020000  45.6230000  65.5410000  45.7460000
  43.4270000  62.9080000  53.6170000  42.4010000  64.0210000  52.3080000
  45.6020000  62.1510000  52.8870000  48.0220000  64.1300000  46.1830000
  46.5960000  65.5140000  44.7560000  44.8220000  66.0290000  45.5940000
  44.6450000  62.1940000  53.8460000  42.7600000  62.9320000  54.2930000
  46.4050000  61.6700000  53.0530000  48.8360000  63.6630000  46.3280000
  47.8270000  64.7900000  44.9830000  46.4240000  66.1740000  43.5030000
  44.7830000  61.7490000  54.6740000  48.8110000  64.7730000  43.9450000
  47.3820000  66.1310000  42.5440000  45.6210000  66.6550000  43.3370000
  48.6000000  65.4160000  42.7730000  49.6250000  64.3040000  44.0820000
  47.2430000  66.5760000  41.7160000  49.2660000  65.3930000  42.0970000
  40.0710000  14.8410000  35.1300000  39.0860000  14.8460000  36.1500000
  41.3150000  14.1120000  35.3620000  39.9000000  15.5210000  33.9170000
  39.2820000  14.1870000  37.3500000  38.2720000  15.3140000  36.0050000
  41.4850000  13.4350000  36.5870000  42.2900000  14.1070000  34.3590000
  40.8760000  15.5160000  32.9140000  39.0860000  15.9940000  33.7870000
  38.2980000  14.2040000  38.3870000  40.5130000  13.4620000  37.5760000
  42.2860000  12.9480000  36.7380000  43.1040000  13.6340000  34.4890000
  42.1200000  14.7870000  33.1460000  40.7050000  16.1930000  31.6890000
  38.5090000  13.5600000  39.5600000  37.4830000  14.6720000  38.2510000
  40.6840000  12.8020000  38.8300000  43.1040000  14.7820000  32.1260000
  41.6780000  16.1650000  30.7000000  39.9040000  16.6800000  31.5370000
  39.7270000  12.8460000  39.7890000  37.8420000  13.5830000  40.2360000
  41.4870000  12.3210000  38.9960000  43.9190000  14.3140000  32.2710000
  42.9090000  15.4410000  30.9260000  41.5060000  16.8250000  29.4460000
  39.8650000  12.4000000  40.6170000  43.8930000  15.4240000  29.8890000
  42.4640000  16.7820000  28.4870000  40.7030000  17.3070000  29.2800000
  43.6820000  16.0680000  28.7160000  44.7080000  14.9550000  30.0250000
  42.3250000  17.2270000  27.6590000  44.3480000  16.0450000  28.0400000
  40.8070000  22.5200000  35.1300000  39.8220000  22.5250000  36.1500000
  42.0510000  21.7900000  35.3620000  40.6360000  23.2000000  33.9170000
  40.0180000  21.8650000  37.3500000  39.0080000  22.9920000  36.0050000
  42.2210000  21.1140000  36.5870000  43.0270000  21.7850000  34.3590000
  41.6120000  23.1950000  32.9140000  39.8220000  23.6720000  33.7870000
  39.0340000  21.8820000  38.3870000  41.2490000  21.1410000  37.5760000
  43.0220000  20.6260000  36.7380000  43.8400000  21.3130000  34.4890000
  42.8560000  22.4650000  33.1460000  41.4410000  23.8710000  31.6890000
  39.2450000  21.2390000  39.5600000  38.2190000  22.3510000  38.2510000
  41.4200000  20.4810000  38.8300000  43.8400000  22.4610000  32.1260000
  42.4140000  23.8440000  30.7000000  40.6400000  24.3590000  31.5370000
  40.4630000  20.5240000  39.7890000  38.5780000  21.2620000  40.2360000
  42.2230000  20.0000000  38.9960000  44.6550000  21.9930000  32.2710000
  43.6450000  23.1200000  30.9260000  42.2420000  24.5040000  29.4460000
  40.6010000  20.0790000  40.6170000  44.6290000  23.1030000  29.8890000
  43.2000000  24.4610000  28.4870000  41.4400000  24.9850000  29.2800000
  44.4180000  23.7460000  28.7160000  45.4440000  22.6340000  30.0250000
  43.0610000  24.9060000  27.6590000  45.0840000  23.7230000  28.0400000
  43.0910000  26.8670000  19.0890000  44.0750000  26.8620000  18.0700000
  41.8470000  27.5960000  18.8570000  43.2610000  26.1870000  20.3020000
  43.8800000  27.5220000  16.8690000  44.8890000  26.3950000  18.2140000
  41.6760000  28.2730000  17.6320000  40.8710000  27.6010000  19.8600000
  42.2860000  26.1920000  21.3060000  44.0750000  25.7150000  20.4330000
  44.8640000  27.5050000  15.8320000  42.6490000  28.2460000  16.6430000
  40.8750000  28.7610000  17.4810000  40.0570000  28.0740000  19.7300000
  41.0420000  26.9210000  21.0740000  42.4560000  25.5160000  22.5300000
  44.6530000  28.1480000  14.6590000  45.6780000  27.0360000  15.9680000
  42.4770000  28.9060000  15.3890000  40.0570000  26.9260000  22.0930000
  41.4840000  25.5430000  23.5190000  43.2570000  25.0280000  22.6820000
  43.4350000  28.8630000  14.4300000  45.3190000  28.1250000  13.9830000
  41.6740000  29.3870000  15.2230000  39.2430000  27.3940000  21.9480000
  40.2530000  26.2670000  23.2930000  41.6550000  24.8830000  24.7730000
  43.2960000  29.3080000  13.6020000  39.2690000  26.2840000  24.3310000
  40.6980000  24.9260000  25.7320000  42.4580000  24.4020000  24.9390000
  39.4800000  25.6400000  25.5030000  38.4540000  26.7530000  24.1940000
  40.8360000  24.4810000  26.5600000  38.8130000  25.6640000  26.1790000
  41.5430000  30.1980000  35.1300000  40.5580000  30.2030000  36.1500000
  42.7870000  29.4690000  35.3620000  41.3720000  30.8780000  33.9170000
  40.7540000  29.5440000  37.3500000  39.7440000  30.6710000  36.0050000
  42.9570000  28.7920000  36.5870000  43.7630000  29.4640000  34.3590000
  42.3480000  30.8730000  32.9140000  40.5590000  31.3510000  33.7870000
  39.7700000  29.5610000  38.3870000  41.9850000  28.8200000  37.5760000
  43.7590000  28.3050000  36.7380000  44.5760000  28.9910000  34.4890000
  43.5920000  30.1440000  33.1460000  42.1780000  31.5500000  31.6890000
  39.9810000  28.9170000  39.5600000  38.9550000  30.0300000  38.2510000
  42.1570000  28.1600000  38.8300000  44.5760000  30.1390000  32.1260000
  43.1500000  31.5230000  30.7000000  41.3760000  32.0370000  31.5370000
  41.1990000  28.2030000  39.7890000  39.3150000  28.9400000  40.2360000
  42.9590000  27.6790000  38.9960000  45.3910000  29.6710000  32.2710000
  44.3810000  30.7980000  30.9260000  42.9780000  32.1830000  29.4460000
  41.3370000  27.7580000  40.6170000  45.3650000  30.7820000  29.8890000
  43.9360000  32.1390000  28.4870000  42.1760000  32.6640000  29.2800000
  45.1540000  31.4250000  28.7160000  46.1800000  30.3130000  30.0250000
  43.7980000  32.5850000  27.6590000  45.8200000  31.4020000  28.0400000
  42.5900000  23.5900000   5.0320000  43.5740000  23.5850000   4.0130000
  41.3450000  24.3190000   4.8000000  42.7600000  22.9100000   6.2450000
  43.3780000  24.2450000   2.8120000  44.3880000  23.1180000   4.1580000
  41.1750000  24.9960000   3.5760000  40.3700000  24.3250000   5.8040000
  41.7840000  22.9150000   7.2490000  43.5740000  22.4380000   6.3760000
  44.3630000  24.2280000   1.7750000  42.1480000  24.9690000   2.5860000
  40.3740000  25.4840000   3.4240000  39.5560000  24.7970000   5.6730000
  40.5400000  23.6450000   7.0170000  41.9550000  22.2390000   8.4730000
  44.1510000  24.8710000   0.6030000  45.1770000  23.7590000   1.9110000
  41.9760000  25.6290000   1.3320000  39.5560000  23.6490000   8.0360000
  40.9820000  22.2660000   9.4630000  42.7560000  21.7510000   8.6250000
  42.9330000  25.5860000   0.3740000  44.8180000  24.8480000  -0.0730000
  41.1730000  26.1100000   1.1660000  38.7420000  24.1170000   7.8910000
  39.7520000  22.9900000   9.2360000  41.1540000  21.6060000  10.7170000
  42.7950000  26.0310000  -0.4540000  38.7670000  23.0070000  10.2740000
  40.1960000  21.6490000  11.6750000  41.9570000  21.1250000  10.8820000
  38.9790000  22.3640000  11.4460000  37.9530000  23.4760000  10.1370000
  40.3350000  21.2040000  12.5030000  38.3120000  22.3870000  12.1220000
  45.5340000  54.3050000   5.0320000  46.5180000  54.3000000   4.0130000
  44.2900000  55.0340000   4.8000000  45.7050000  53.6250000   6.2450000
  46.3230000  54.9590000   2.8120000  47.3330000  53.8320000   4.1580000
  44.1200000  55.7110000   3.5760000  43.3140000  55.0390000   5.8040000
  44.7290000  53.6300000   7.2490000  46.5180000  53.1520000   6.3760000
  47.3070000  54.9420000   1.7750000  45.0920000  55.6830000   2.5860000
  43.3180000  56.1980000   3.4240000  42.5010000  55.5110000   5.6730000
  43.4850000  54.3590000   7.0170000  44.8990000  52.9530000   8.4730000
  47.0960000  55.5860000   0.6030000  48.1220000  54.4730000   1.9110000
  44.9200000  56.3430000   1.3320000  42.5000000  54.3640000   8.0360000
  43.9270000  52.9800000   9.4630000  45.7000000  52.4660000   8.6250000
  45.8780000  56.3000000   0.3740000  47.7620000  55.5630000  -0.0730000
  44.1180000  56.8240000   1.1660000  41.6860000  54.8310000   7.8910000
  42.6960000  53.7050000   9.2360000  44.0990000  52.3200000  10.7170000
  45.7400000  56.7450000  -0.4540000  41.7120000  53.7210000  10.2740000
  43.1410000  52.3630000  11.6750000  44.9010000  51.8390000  10.8820000
  41.9230000  53.0780000  11.4460000  40.8970000  54.1900000  10.1370000
  43.2790000  51.9180000  12.5030000  41.2570000  53.1010000  12.1220000
  45.4900000  67.4660000  63.2440000  44.5050000  67.4710000  64.2630000
  46.7340000  66.7370000  63.4760000  45.3190000  68.1460000  62.0310000
  44.7010000  66.8120000  65.4640000  43.6910000  67.9390000  64.1180000
  46.9040000  66.0600000  64.7000000  47.7100000  66.7320000  62.4720000
  46.2950000  68.1410000  61.0270000  44.5060000  68.6190000  61.9000000
  43.7170000  66.8290000  66.5010000  45.9320000  66.0880000  65.6900000
  47.7060000  65.5730000  64.8520000  48.5230000  66.2590000  62.6030000
  47.5390000  67.4120000  61.2590000  46.1250000  68.8180000  59.8030000
  43.9280000  66.1850000  67.6730000  42.9020000  67.2980000  66.3650000
  46.1040000  65.4280000  66.9440000  48.5230000  67.4070000  60.2400000
  47.0970000  68.7910000  58.8130000  45.3230000  69.3050000  59.6510000
  45.1460000  65.4710000  67.9020000  43.2620000  66.2080000  68.3490000
  46.9060000  64.9470000  67.1100000  49.3380000  66.9390000  60.3850000
  48.3280000  68.0660000  59.0400000  46.9250000  69.4510000  57.5590000
  45.2840000  65.0260000  68.7300000  49.3120000  68.0500000  58.0020000
  47.8830000  69.4080000  56.6010000  46.1230000  69.9320000  57.3940000
  49.1010000  68.6930000  56.8300000  50.1270000  67.5810000  58.1390000
  47.7450000  69.8530000  55.7730000  49.7670000  68.6700000  56.1540000
  41.7780000  34.6000000  21.0740000  40.7930000  34.6050000  22.0930000
  43.0220000  33.8710000  21.3060000  41.6070000  35.2800000  19.8600000
  40.9890000  33.9460000  23.2930000  39.9790000  35.0730000  21.9480000
  43.1920000  33.1940000  22.5300000  43.9980000  33.8660000  20.3020000
  42.5830000  35.2750000  18.8570000  40.7930000  35.7530000  19.7300000
  40.0050000  33.9620000  24.3310000  42.2200000  33.2210000  23.5190000
  43.9930000  32.7070000  22.6820000  44.8110000  33.3930000  20.4330000
  43.8270000  34.5460000  19.0890000  42.4120000  35.9520000  17.6320000
  40.2160000  33.3190000  25.5030000  39.1900000  34.4310000  24.1940000
  42.3910000  32.5610000  24.7730000  44.8110000  34.5410000  18.0700000
  43.3850000  35.9240000  16.6430000  41.6110000  36.4390000  17.4810000
  41.4340000  32.6040000  25.7320000  39.5490000  33.3420000  26.1790000
  43.1940000  32.0800000  24.9390000  45.6260000  34.0730000  18.2140000
  44.6160000  35.2000000  16.8690000  43.2130000  36.5840000  15.3890000
  41.5720000  32.1590000  26.5600000  45.6000000  35.1830000  15.8320000
  44.1710000  36.5410000  14.4300000  42.4110000  37.0650000  15.2230000
  45.3890000  35.8270000  14.6590000  46.4150000  34.7140000  15.9680000
  44.0320000  36.9860000  13.6020000  46.0550000  35.8040000  13.9830000
  42.2790000  37.8770000  35.1300000  41.2950000  37.8820000  36.1500000
  43.5230000  37.1480000  35.3620000  42.1080000  38.5570000  33.9170000
  41.4900000  37.2220000  37.3500000  40.4800000  38.3490000  36.0050000
  43.6930000  36.4710000  36.5870000  44.4990000  37.1430000  34.3590000
  43.0840000  38.5520000  32.9140000  41.2950000  39.0290000  33.7870000
  40.5060000  37.2390000  38.3870000  42.7210000  36.4980000  37.5760000
  44.4950000  35.9830000  36.7380000  45.3120000  36.6700000  34.4890000
  44.3280000  37.8230000  33.1460000  42.9140000  39.2280000  31.6890000
  40.7170000  36.5960000  39.5600000  39.6910000  37.7080000  38.2510000
  42.8930000  35.8380000  38.8300000  45.3130000  37.8180000  32.1260000
  43.8860000  39.2010000  30.7000000  42.1120000  39.7160000  31.5370000
  41.9350000  35.8810000  39.7890000  40.0510000  36.6190000  40.2360000
  43.6950000  35.3570000  38.9960000  46.1270000  37.3500000  32.2710000
  45.1170000  38.4770000  30.9260000  43.7140000  39.8610000  29.4460000
  42.0730000  35.4360000  40.6170000  46.1010000  38.4600000  29.8890000
  44.6720000  39.8180000  28.4870000  42.9120000  40.3420000  29.2800000
  45.8900000  39.1040000  28.7160000  46.9160000  37.9910000  30.0250000
  44.5340000  40.2630000  27.6590000  46.5560000  39.0800000  28.0400000
  42.7800000  41.1540000  49.1870000  41.7960000  41.1590000  50.2060000
  44.0240000  40.4240000  49.4190000  42.6100000  41.8340000  47.9740000
  41.9910000  40.4990000  51.4070000  40.9820000  41.6260000  50.0620000
  44.1950000  39.7480000  50.6430000  45.0000000  40.4190000  48.4150000
  43.5850000  41.8290000  46.9700000  41.7960000  42.3060000  47.8430000
  41.0070000  40.5160000  52.4440000  43.2220000  39.7750000  51.6330000
  44.9960000  39.2600000  50.7950000  45.8140000  39.9470000  48.5460000
  44.8290000  41.0990000  47.2020000  43.4150000  42.5050000  45.7460000
  41.2180000  39.8730000  53.6170000  40.1930000  40.9850000  52.3080000
  43.3940000  39.1150000  52.8870000  45.8140000  41.0950000  46.1830000
  44.3880000  42.4780000  44.7560000  42.6140000  42.9930000  45.5940000
  42.4360000  39.1580000  53.8460000  40.5520000  39.8960000  54.2930000
  44.1970000  38.6340000  53.0530000  46.6280000  40.6270000  46.3280000
  45.6180000  41.7540000  44.9830000  44.2160000  43.1380000  43.5030000
  42.5750000  38.7130000  54.6740000  46.6020000  41.7370000  43.9450000
  45.1730000  43.0950000  42.5440000  43.4130000  43.6190000  43.3370000
  46.3910000  42.3800000  42.7730000  47.4170000  41.2680000  44.0820000
  45.0350000  43.5400000  41.7160000  47.0580000  42.3570000  42.0970000
  43.2810000  44.4300000  63.2440000  42.2970000  44.4350000  64.2630000
  44.5260000  43.7010000  63.4760000  43.1110000  45.1110000  62.0310000
  42.4930000  43.7760000  65.4640000  41.4830000  44.9030000  64.1180000
  44.6960000  43.0250000  64.7000000  45.5010000  43.6960000  62.4720000
  44.0870000  45.1050000  61.0270000  42.2970000  45.5830000  61.9000000
  41.5090000  43.7930000  66.5010000  43.7230000  43.0520000  65.6900000
  45.4970000  42.5370000  64.8520000  46.3150000  43.2240000  62.6030000
  45.3310000  44.3760000  61.2590000  43.9160000  45.7820000  59.8030000
  41.7200000  43.1490000  67.6730000  40.6940000  44.2620000  66.3650000
  43.8950000  42.3920000  66.9440000  46.3150000  44.3710000  60.2400000
  44.8890000  45.7550000  58.8130000  43.1150000  46.2700000  59.6510000
  42.9380000  42.4350000  67.9020000  41.0530000  43.1730000  68.3490000
  44.6980000  41.9110000  67.1100000  47.1290000  43.9040000  60.3850000
  46.1190000  45.0310000  59.0400000  44.7170000  46.4150000  57.5590000
  43.0760000  41.9900000  68.7300000  47.1040000  45.0140000  58.0020000
  45.6750000  46.3720000  56.6010000  43.9140000  46.8960000  57.3940000
  46.8920000  45.6570000  56.8300000  47.9180000  44.5450000  58.1390000
  45.5360000  46.8170000  55.7730000  47.5590000  45.6340000  56.1540000
  41.2760000  31.3230000   7.0170000  40.2920000  31.3280000   8.0360000
  42.5210000  30.5940000   7.2490000  41.1060000  32.0030000   5.8040000
  40.4880000  30.6690000   9.2360000  39.4780000  31.7960000   7.8910000
  42.6910000  29.9170000   8.4730000  43.4960000  30.5890000   6.2450000
  42.0820000  31.9980000   4.8000000  40.2920000  32.4760000   5.6730000
  39.5030000  30.6860000  10.2740000  41.7180000  29.9440000   9.4630000
  43.4920000  29.4300000   8.6250000  44.3100000  30.1160000   6.3760000
  43.3260000  31.2690000   5.0320000  41.9110000  32.6750000   3.5760000
  39.7150000  30.0420000  11.4460000  38.6890000  31.1540000  10.1370000
  41.8900000  29.2850000  10.7170000  44.3100000  31.2640000   4.0130000
  42.8840000  32.6480000   2.5860000  41.1100000  33.1620000   3.4240000
  40.9330000  29.3280000  11.6750000  39.0480000  30.0650000  12.1220000
  42.6930000  28.8030000  10.8820000  45.1240000  30.7960000   4.1580000
  44.1140000  31.9230000   2.8120000  42.7120000  33.3070000   1.3320000
  41.0710000  28.8830000  12.5030000  45.0990000  31.9060000   1.7750000
  43.6700000  33.2640000   0.3740000  41.9090000  33.7890000   1.1660000
  44.8870000  32.5500000   0.6030000  45.9130000  31.4380000   1.9110000
  43.5310000  33.7100000  -0.4540000  45.5540000  32.5270000  -0.0730000
  44.5630000  42.2240000  19.0890000  45.5470000  42.2190000  18.0700000
  43.3190000  42.9540000  18.8570000  44.7340000  41.5440000  20.3020000
  45.3520000  42.8790000  16.8690000  46.3620000  41.7520000  18.2140000
  43.1490000  43.6300000  17.6320000  42.3430000  42.9590000  19.8600000
  43.7580000  41.5490000  21.3060000  45.5470000  41.0720000  20.4330000
  46.3360000  42.8620000  15.8320000  44.1210000  43.6030000  16.6430000
  42.3470000  44.1180000  17.4810000  41.5300000  43.4310000  19.7300000
  42.5140000  42.2790000  21.0740000  43.9280000  40.8730000  22.5300000
  46.1250000  43.5050000  14.6590000  47.1510000  42.3930000  15.9680000
  43.9490000  44.2630000  15.3890000  41.5290000  42.2830000  22.0930000
  42.9560000  40.9000000  23.5190000  44.7300000  40.3850000  22.6820000
  44.9070000  44.2200000  14.4300000  46.7910000  43.4820000  13.9830000
  43.1470000  44.7440000  15.2230000  40.7150000  42.7510000  21.9480000
  41.7250000  41.6240000  23.2930000  43.1280000  40.2400000  24.7730000
  44.7690000  44.6650000  13.6020000  40.7410000  41.6410000  24.3310000
  42.1700000  40.2830000  25.7320000  43.9300000  39.7590000  24.9390000
  40.9520000  40.9980000  25.5030000  39.9260000  42.1100000  24.1940000
  42.3080000  39.8380000  26.5600000  40.2860000  41.0210000  26.1790000
  43.5160000  48.8320000  49.1870000  42.5320000  48.8370000  50.2060000
  44.7600000  48.1030000  49.4190000  43.3460000  49.5120000  47.9740000
  42.7280000  48.1780000  51.4070000  41.7180000  49.3050000  50.0620000
  44.9310000  47.4260000  50.6430000  45.7360000  48.0980000  48.4150000
  44.3210000  49.5070000  46.9700000  42.5320000  49.9850000  47.8430000
  41.7430000  48.1950000  52.4440000  43.9580000  47.4540000  51.6330000
  45.7320000  46.9390000  50.7950000  46.5500000  47.6250000  48.5460000
  45.5660000  48.7780000  47.2020000  44.1510000  50.1840000  45.7460000
  41.9550000  47.5510000  53.6170000  40.9290000  48.6640000  52.3080000
  44.1300000  46.7940000  52.8870000  46.5500000  48.7730000  46.1830000
  45.1240000  50.1570000  44.7560000  43.3500000  50.6710000  45.5940000
  43.1720000  46.8370000  53.8460000  41.2880000  47.5740000  54.2930000
  44.9330000  46.3130000  53.0530000  47.3640000  48.3050000  46.3280000
  46.3540000  49.4320000  44.9830000  44.9520000  50.8170000  43.5030000
  43.3110000  46.3920000  54.6740000  47.3390000  49.4160000  43.9450000
  45.9090000  50.7740000  42.5440000  44.1490000  51.2980000  43.3370000
  47.1270000  50.0590000  42.7730000  48.1530000  48.9470000  44.0820000
  45.7710000  51.2190000  41.7160000  47.7940000  50.0360000  42.0970000
  43.0150000  45.5550000  35.1300000  42.0310000  45.5600000  36.1500000
  44.2590000  44.8260000  35.3620000  42.8440000  46.2350000  33.9170000
  42.2260000  44.9010000  37.3500000  41.2160000  46.0280000  36.0050000
  44.4300000  44.1500000  36.5870000  45.2350000  44.8210000  34.3590000
  43.8200000  46.2300000  32.9140000  42.0310000  46.7080000  33.7870000
  41.2420000  44.9180000  38.3870000  43.4570000  44.1770000  37.5760000
  45.2310000  43.6620000  36.7380000  46.0490000  44.3490000  34.4890000
  45.0640000  45.5010000  33.1460000  43.6500000  46.9070000  31.6890000
  41.4530000  44.2740000  39.5600000  40.4270000  45.3870000  38.2510000
  43.6290000  43.5170000  38.8300000  46.0490000  45.4960000  32.1260000
  44.6220000  46.8800000  30.7000000  42.8490000  47.3950000  31.5370000
  42.6710000  43.5600000  39.7890000  40.7870000  44.2980000  40.2360000
  44.4310000  43.0360000  38.9960000  46.8630000  45.0290000  32.2710000
  45.8530000  46.1560000  30.9260000  44.4510000  47.5400000  29.4460000
  42.8100000  43.1150000  40.6170000  46.8370000  46.1390000  29.8890000
  45.4080000  47.4970000  28.4870000  43.6480000  48.0210000  29.2800000
  46.6260000  46.7820000  28.7160000  47.6520000  45.6700000  30.0250000
  45.2700000  47.9420000  27.6590000  47.2930000  46.7590000  28.0400000
  42.0130000  39.0020000   7.0170000  41.0280000  39.0070000   8.0360000
  43.2570000  38.2730000   7.2490000  41.8420000  39.6820000   5.8040000
  41.2240000  38.3470000   9.2360000  40.2140000  39.4740000   7.8910000
  43.4270000  37.5960000   8.4730000  44.2320000  38.2670000   6.2450000
  42.8180000  39.6770000   4.8000000  41.0280000  40.1540000   5.6730000
  40.2400000  38.3640000  10.2740000  42.4540000  37.6230000   9.4630000
  44.2280000  37.1080000   8.6250000  45.0460000  37.7950000   6.3760000
  44.0620000  38.9480000   5.0320000  42.6470000  40.3530000   3.5760000
  40.4510000  37.7210000  11.4460000  39.4250000  38.8330000  10.1370000
  42.6260000  36.9630000  10.7170000  45.0460000  38.9430000   4.0130000
  43.6200000  40.3260000   2.5860000  41.8460000  40.8410000   3.4240000
  41.6690000  37.0060000  11.6750000  39.7840000  37.7440000  12.1220000
  43.4290000  36.4820000  10.8820000  45.8600000  38.4750000   4.1580000
  44.8510000  39.6020000   2.8120000  43.4480000  40.9860000   1.3320000
  41.8070000  36.5610000  12.5030000  45.8350000  39.5850000   1.7750000
  44.4060000  40.9430000   0.3740000  42.6450000  41.4670000   1.1660000
  45.6240000  40.2290000   0.6030000  46.6490000  39.1160000   1.9110000
  44.2670000  41.3880000  -0.4540000  46.2900000  40.2050000  -0.0730000
  44.0180000  52.1090000  63.2440000  43.0330000  52.1140000  64.2630000
  45.2620000  51.3800000  63.4760000  43.8470000  52.7890000  62.0310000
  43.2290000  51.4550000  65.4640000  42.2190000  52.5820000  64.1180000
  45.4320000  50.7030000  64.7000000  46.2370000  51.3750000  62.4720000
  44.8230000  52.7840000  61.0270000  43.0330000  53.2620000  61.9000000
  42.2450000  51.4720000  66.5010000  44.4600000  50.7300000  65.6900000
  46.2330000  50.2160000  64.8520000  47.0510000  50.9020000  62.6030000
  46.0670000  52.0550000  61.2590000  44.6520000  53.4610000  59.8030000
  42.4560000  50.8280000  67.6730000  41.4300000  51.9400000  66.3650000
  44.6310000  50.0710000  66.9440000  47.0510000  52.0500000  60.2400000
  45.6250000  53.4340000  58.8130000  43.8510000  53.9480000  59.6510000
  43.6740000  50.1140000  67.9020000  41.7890000  50.8510000  68.3490000
  45.4340000  49.5890000  67.1100000  47.8660000  51.5820000  60.3850000
  46.8560000  52.7090000  59.0400000  45.4530000  54.0930000  57.5590000
  43.8120000  49.6680000  68.7300000  47.8400000  52.6920000  58.0020000
  46.4110000  54.0500000  56.6010000  44.6500000  54.5750000  57.3940000
  47.6290000  53.3360000  56.8300000  48.6550000  52.2240000  58.1390000
  46.2720000  54.4950000  55.7730000  48.2950000  53.3130000  56.1540000
  43.7510000  53.2340000  35.1300000  42.7670000  53.2390000  36.1500000
  44.9950000  52.5050000  35.3620000  43.5810000  53.9140000  33.9170000
  42.9620000  52.5800000  37.3500000  41.9530000  53.7070000  36.0050000
  45.1660000  51.8280000  36.5870000  45.9710000  52.5000000  34.3590000
  44.5560000  53.9090000  32.9140000  42.7670000  54.3870000  33.7870000
  41.9780000  52.5960000  38.3870000  44.1930000  51.8550000  37.5760000
  45.9670000  51.3410000  36.7380000  46.7850000  52.0270000  34.4890000
  45.8000000  53.1800000  33.1460000  44.3860000  54.5860000  31.6890000
  42.1890000  51.9530000  39.5600000  41.1640000  53.0650000  38.2510000
  44.3650000  51.1950000  38.8300000  46.7850000  53.1750000  32.1260000
  45.3590000  54.5580000  30.7000000  43.5850000  55.0730000  31.5370000
  43.4070000  51.2390000  39.7890000  41.5230000  51.9760000  40.2360000
  45.1680000  50.7140000  38.9960000  47.5990000  52.7070000  32.2710000
  46.5890000  53.8340000  30.9260000  45.1870000  55.2180000  29.4460000
  43.5460000  50.7930000  40.6170000  47.5730000  53.8170000  29.8890000
  46.1440000  55.1750000  28.4870000  44.3840000  55.6990000  29.2800000
  47.3620000  54.4610000  28.7160000  48.3880000  53.3480000  30.0250000
  46.0060000  55.6200000  27.6590000  48.0290000  54.4380000  28.0400000
  44.2520000  56.5110000  49.1870000  43.2680000  56.5160000  50.2060000
  45.4970000  55.7820000  49.4190000  44.0820000  57.1910000  47.9740000
  43.4640000  55.8560000  51.4070000  42.4540000  56.9830000  50.0620000
  45.6670000  55.1050000  50.6430000  46.4720000  55.7770000  48.4150000
  45.0580000  57.1860000  46.9700000  43.2680000  57.6630000  47.8430000
  42.4790000  55.8730000  52.4440000  44.6940000  55.1320000  51.6330000
  46.4680000  54.6170000  50.7950000  47.2860000  55.3040000  48.5460000
  46.3020000  56.4570000  47.2020000  44.8870000  57.8620000  45.7460000
  42.6910000  55.2300000  53.6170000  41.6650000  56.3420000  52.3080000
  44.8660000  54.4720000  52.8870000  47.2860000  56.4520000  46.1830000
  45.8600000  57.8350000  44.7560000  44.0860000  58.3500000  45.5940000
  43.9090000  54.5150000  53.8460000  42.0240000  55.2530000  54.2930000
  45.6690000  53.9910000  53.0530000  48.1000000  55.9840000  46.3280000
  47.0900000  57.1110000  44.9830000  45.6880000  58.4950000  43.5030000
  44.0470000  54.0700000  54.6740000  48.0750000  57.0940000  43.9450000
  46.6460000  58.4520000  42.5440000  44.8850000  58.9760000  43.3370000
  47.8630000  57.7380000  42.7730000  48.8890000  56.6250000  44.0820000
  46.5070000  58.8970000  41.7160000  48.5300000  57.7140000  42.0970000
  41.1170000   8.2330000   5.0320000  42.1020000   8.2280000   4.0130000
  39.8730000   8.9620000   4.8000000  41.2880000   7.5530000   6.2450000
  41.9060000   8.8870000   2.8120000  42.9160000   7.7610000   4.1580000
  39.7030000   9.6390000   3.5760000  38.8970000   8.9670000   5.8040000
  40.3120000   7.5580000   7.2490000  42.1020000   7.0810000   6.3760000
  42.8900000   8.8710000   1.7750000  40.6750000   9.6120000   2.5860000
  38.9020000  10.1270000   3.4240000  38.0840000   9.4400000   5.6730000
  39.0680000   8.2870000   7.0170000  40.4830000   6.8810000   8.4730000
  42.6790000   9.5140000   0.6030000  43.7050000   8.4020000   1.9110000
  40.5040000  10.2720000   1.3320000  38.0840000   8.2920000   8.0360000
  39.5100000   6.9090000   9.4630000  41.2840000   6.3940000   8.6250000
  41.4610000  10.2290000   0.3740000  43.3460000   9.4910000  -0.0730000
  39.7010000  10.7530000   1.1660000  37.2690000   8.7600000   7.8910000
  38.2790000   7.6330000   9.2360000  39.6820000   6.2490000  10.7170000
  41.3230000  10.6740000  -0.4540000  37.2950000   7.6500000  10.2740000
  38.7240000   6.2920000  11.6750000  40.4840000   5.7680000  10.8820000
  37.5060000   7.0060000  11.4460000  36.4800000   8.1190000  10.1370000
  38.8630000   5.8470000  12.5030000  36.8400000   7.0300000  12.1220000
  40.5720000  18.1180000  49.1870000  39.5870000  18.1230000  50.2060000
  41.8160000  17.3890000  49.4190000  40.4010000  18.7980000  47.9740000
  39.7830000  17.4630000  51.4070000  38.7730000  18.5900000  50.0620000
  41.9860000  16.7120000  50.6430000  42.7920000  17.3840000  48.4150000
  41.3770000  18.7930000  46.9700000  39.5880000  19.2700000  47.8430000
  38.7990000  17.4800000  52.4440000  41.0140000  16.7390000  51.6330000
  42.7880000  16.2240000  50.7950000  43.6050000  16.9110000  48.5460000
  42.6210000  18.0640000  47.2020000  41.2070000  19.4700000  45.7460000
  39.0100000  16.8370000  53.6170000  37.9840000  17.9490000  52.3080000
  41.1860000  16.0790000  52.8870000  43.6050000  18.0590000  46.1830000
  42.1790000  19.4420000  44.7560000  40.4050000  19.9570000  45.5940000
  40.2280000  16.1220000  53.8460000  38.3440000  16.8600000  54.2930000
  41.9880000  15.5980000  53.0530000  44.4200000  17.5910000  46.3280000
  43.4100000  18.7180000  44.9830000  42.0070000  20.1020000  43.5030000
  40.3660000  15.6770000  54.6740000  44.3940000  18.7010000  43.9450000
  42.9650000  20.0590000  42.5440000  41.2050000  20.5830000  43.3370000
  44.1830000  19.3450000  42.7730000  45.2090000  18.2320000  44.0820000
  42.8270000  20.5040000  41.7160000  44.8490000  19.3210000  42.0970000
  41.0730000  21.3950000  63.2440000  40.0890000  21.4000000  64.2630000
  42.3170000  20.6660000  63.4760000  40.9030000  22.0750000  62.0310000
  40.2840000  20.7400000  65.4640000  39.2740000  21.8670000  64.1180000
  42.4880000  19.9890000  64.7000000  43.2930000  20.6600000  62.4720000
  41.8780000  22.0700000  61.0270000  40.0890000  22.5470000  61.9000000
  39.3000000  20.7570000  66.5010000  41.5150000  20.0160000  65.6900000
  43.2890000  19.5010000  64.8520000  44.1070000  20.1880000  62.6030000
  43.1220000  21.3400000  61.2590000  41.7080000  22.7460000  59.8030000
  39.5110000  20.1140000  67.6730000  38.4850000  21.2260000  66.3650000
  41.6870000  19.3560000  66.9440000  44.1070000  21.3360000  60.2400000
  42.6800000  22.7190000  58.8130000  40.9070000  23.2340000  59.6510000
  40.7290000  19.3990000  67.9020000  38.8450000  20.1370000  68.3490000
  42.4890000  18.8750000  67.1100000  44.9210000  20.8680000  60.3850000
  43.9110000  21.9950000  59.0400000  42.5090000  23.3790000  57.5590000
  40.8680000  18.9540000  68.7300000  44.8950000  21.9780000  58.0020000
  43.4660000  23.3360000  56.6010000  41.7060000  23.8600000  57.3940000
  44.6840000  22.6220000  56.8300000  45.7100000  21.5090000  58.1390000
  43.3280000  23.7810000  55.7730000  45.3510000  22.5980000  56.1540000
  41.6190000  11.5100000  19.0890000  42.6030000  11.5050000  18.0700000
  40.3750000  12.2390000  18.8570000  41.7890000  10.8300000  20.3020000
  42.4070000  12.1640000  16.8690000  43.4170000  11.0370000  18.2140000
  40.2040000  12.9160000  17.6320000  39.3990000  12.2440000  19.8600000
  40.8130000  10.8350000  21.3060000  42.6030000  10.3570000  20.4330000
  43.3920000  12.1470000  15.8320000  41.1770000  12.8890000  16.6430000
  39.4030000  13.4030000  17.4810000  38.5850000  12.7170000  19.7300000
  39.5690000  11.5640000  21.0740000  40.9840000  10.1580000  22.5300000
  43.1800000  12.7910000  14.6590000  44.2060000  11.6790000  15.9680000
  41.0050000  13.5480000  15.3890000  38.5850000  11.5690000  22.0930000
  40.0110000  10.1860000  23.5190000  41.7850000   9.6710000  22.6820000
  41.9620000  13.5050000  14.4300000  43.8470000  12.7680000  13.9830000
  40.2020000  14.0300000  15.2230000  37.7710000  12.0370000  21.9480000
  38.7810000  10.9100000  23.2930000  40.1830000   9.5260000  24.7730000
  41.8240000  13.9510000  13.6020000  37.7960000  10.9270000  24.3310000
  39.2250000   9.5690000  25.7320000  40.9860000   9.0440000  24.9390000
  38.0080000  10.2830000  25.5030000  36.9820000  11.3960000  24.1940000
  39.3640000   9.1240000  26.5600000  37.3410000  10.3060000  26.1790000
  42.3550000  19.1890000  19.0890000  43.3390000  19.1840000  18.0700000
  41.1110000  19.9180000  18.8570000  42.5250000  18.5080000  20.3020000
  43.1430000  19.8430000  16.8690000  44.1530000  18.7160000  18.2140000
  40.9400000  20.5940000  17.6320000  40.1350000  19.9230000  19.8600000
  41.5500000  18.5140000  21.3060000  43.3390000  18.0360000  20.4330000
  44.1280000  19.8260000  15.8320000  41.9130000  20.5670000  16.6430000
  40.1390000  21.0820000  17.4810000  39.3210000  20.3950000  19.7300000
  40.3050000  19.2430000  21.0740000  41.7200000  17.8370000  22.5300000
  43.9160000  20.4700000  14.6590000  44.9420000  19.3570000  15.9680000
  41.7410000  21.2270000  15.3890000  39.3210000  19.2480000  22.0930000
  40.7470000  17.8640000  23.5190000  42.5210000  17.3490000  22.6820000
  42.6990000  21.1840000  14.4300000  44.5830000  20.4460000  13.9830000
  40.9380000  21.7080000  15.2230000  38.5070000  19.7150000  21.9480000
  39.5170000  18.5880000  23.2930000  40.9190000  17.2040000  24.7730000
  42.5600000  21.6290000  13.6020000  38.5320000  18.6050000  24.3310000
  39.9620000  17.2470000  25.7320000  41.7220000  16.7230000  24.9390000
  38.7440000  17.9620000  25.5030000  37.7180000  19.0740000  24.1940000
  40.1000000  16.8020000  26.5600000  38.0770000  17.9850000  26.1790000
  41.8090000  29.0730000  63.2440000  40.8250000  29.0780000  64.2630000
  43.0530000  28.3440000  63.4760000  41.6390000  29.7530000  62.0310000
  41.0200000  28.4190000  65.4640000  40.0110000  29.5460000  64.1180000
  43.2240000  27.6670000  64.7000000  44.0290000  28.3390000  62.4720000
  42.6140000  29.7480000  61.0270000  40.8250000  30.2260000  61.9000000
  40.0360000  28.4360000  66.5010000  42.2510000  27.6950000  65.6900000
  44.0250000  27.1800000  64.8520000  44.8430000  27.8670000  62.6030000
  43.8590000  29.0190000  61.2590000  42.4440000  30.4250000  59.8030000
  40.2470000  27.7920000  67.6730000  39.2220000  28.9050000  66.3650000
  42.4230000  27.0350000  66.9440000  44.8430000  29.0140000  60.2400000
  43.4170000  30.3980000  58.8130000  41.6430000  30.9120000  59.6510000
  41.4650000  27.0780000  67.9020000  39.5810000  27.8150000  68.3490000
  43.2260000  26.5540000  67.1100000  45.6570000  28.5470000  60.3850000
  44.6470000  29.6730000  59.0400000  43.2450000  31.0580000  57.5590000
  41.6040000  26.6330000  68.7300000  45.6310000  29.6570000  58.0020000
  44.2020000  31.0150000  56.6010000  42.4420000  31.5390000  57.3940000
  45.4200000  30.3000000  56.8300000  46.4460000  29.1880000  58.1390000
  44.0640000  31.4600000  55.7730000  46.0870000  30.2770000  56.1540000
  39.8040000  15.9660000   7.0170000  38.8200000  15.9710000   8.0360000
  41.0480000  15.2370000   7.2490000  39.6340000  16.6460000   5.8040000
  39.0150000  15.3120000   9.2360000  38.0060000  16.4390000   7.8910000
  41.2190000  14.5600000   8.4730000  42.0240000  15.2320000   6.2450000
  40.6090000  16.6410000   4.8000000  38.8200000  17.1190000   5.6730000
  38.0310000  15.3280000  10.2740000  40.2460000  14.5870000   9.4630000
  42.0200000  14.0730000   8.6250000  42.8380000  14.7590000   6.3760000
  41.8530000  15.9120000   5.0320000  40.4390000  17.3180000   3.5760000
  38.2420000  14.6850000  11.4460000  37.2170000  15.7970000  10.1370000
  40.4180000  13.9270000  10.7170000  42.8380000  15.9070000   4.0130000
  41.4120000  17.2900000   2.5860000  39.6380000  17.8050000   3.4240000
  39.4600000  13.9700000  11.6750000  37.5760000  14.7080000  12.1220000
  41.2210000  13.4460000  10.8820000  43.6520000  15.4390000   4.1580000
  42.6420000  16.5660000   2.8120000  41.2400000  17.9500000   1.3320000
  39.5990000  13.5250000  12.5030000  43.6260000  16.5490000   1.7750000
  42.1970000  17.9070000   0.3740000  40.4370000  18.4310000   1.1660000
  43.4150000  17.1930000   0.6030000  44.4410000  16.0800000   1.9110000
  42.0590000  18.3520000  -0.4540000  44.0820000  17.1700000  -0.0730000
  41.3080000  25.7960000  49.1870000  40.3240000  25.8010000  50.2060000
  42.5520000  25.0670000  49.4190000  41.1370000  26.4770000  47.9740000
  40.5190000  25.1420000  51.4070000  39.5090000  26.2690000  50.0620000
  42.7220000  24.3910000  50.6430000  43.5280000  25.0620000  48.4150000
  42.1130000  26.4710000  46.9700000  40.3240000  26.9490000  47.8430000
  39.5350000  25.1590000  52.4440000  41.7500000  24.4180000  51.6330000
  43.5240000  23.9030000  50.7950000  44.3410000  24.5900000  48.5460000
  43.3570000  25.7420000  47.2020000  41.9430000  27.1480000  45.7460000
  39.7460000  24.5150000  53.6170000  38.7200000  25.6280000  52.3080000
  41.9220000  23.7580000  52.8870000  44.3420000  25.7370000  46.1830000
  42.9150000  27.1210000  44.7560000  41.1420000  27.6360000  45.5940000
  40.9640000  23.8010000  53.8460000  39.0800000  24.5390000  54.2930000
  42.7240000  23.2770000  53.0530000  45.1560000  25.2700000  46.3280000
  44.1460000  26.3970000  44.9830000  42.7430000  27.7810000  43.5030000
  41.1020000  23.3560000  54.6740000  45.1300000  26.3800000  43.9450000
  43.7010000  27.7380000  42.5440000  41.9410000  28.2620000  43.3370000
  44.9190000  27.0230000  42.7730000  45.9450000  25.9110000  44.0820000
  43.5630000  28.1830000  41.7160000  45.5860000  27.0000000  42.0970000
  42.5450000  36.7520000  63.2440000  41.5610000  36.7570000  64.2630000
  43.7890000  36.0230000  63.4760000  42.3750000  37.4320000  62.0310000
  41.7570000  36.0980000  65.4640000  40.7470000  37.2240000  64.1180000
  43.9600000  35.3460000  64.7000000  44.7650000  36.0180000  62.4720000
  43.3510000  37.4270000  61.0270000  41.5610000  37.9040000  61.9000000
  40.7720000  36.1140000  66.5010000  42.9870000  35.3730000  65.6900000
  44.7610000  34.8580000  64.8520000  45.5790000  35.5450000  62.6030000
  44.5950000  36.6980000  61.2590000  43.1800000  38.1040000  59.8030000
  40.9840000  35.4710000  67.6730000  39.9580000  36.5830000  66.3650000
  43.1590000  34.7130000  66.9440000  45.5790000  36.6930000  60.2400000
  44.1530000  38.0760000  58.8130000  42.3790000  38.5910000  59.6510000
  42.2010000  34.7560000  67.9020000  40.3170000  35.4940000  68.3490000
  43.9620000  34.2320000  67.1100000  46.3930000  36.2250000  60.3850000
  45.3830000  37.3520000  59.0400000  43.9810000  38.7360000  57.5590000
  42.3400000  34.3110000  68.7300000  46.3680000  37.3350000  58.0020000
  44.9390000  38.6930000  56.6010000  43.1780000  39.2170000  57.3940000
  46.1560000  37.9790000  56.8300000  47.1820000  36.8660000  58.1390000
  44.8000000  39.1380000  55.7730000  46.8230000  37.9550000  56.1540000
  42.0440000  33.4750000  49.1870000  41.0600000  33.4800000  50.2060000
  43.2880000  32.7460000  49.4190000  41.8740000  34.1550000  47.9740000
  41.2550000  32.8210000  51.4070000  40.2450000  33.9480000  50.0620000
  43.4590000  32.0690000  50.6430000  44.2640000  32.7410000  48.4150000
  42.8490000  34.1500000  46.9700000  41.0600000  34.6280000  47.8430000
  40.2710000  32.8380000  52.4440000  42.4860000  32.0960000  51.6330000
  44.2600000  31.5820000  50.7950000  45.0780000  32.2680000  48.5460000
  44.0930000  33.4210000  47.2020000  42.6790000  34.8270000  45.7460000
  40.4820000  32.1940000  53.6170000  39.4560000  33.3060000  52.3080000
  42.6580000  31.4370000  52.8870000  45.0780000  33.4160000  46.1830000
  43.6510000  34.8000000  44.7560000  41.8780000  35.3140000  45.5940000
  41.7000000  31.4800000  53.8460000  39.8160000  32.2170000  54.2930000
  43.4600000  30.9550000  53.0530000  45.8920000  32.9480000  46.3280000
  44.8820000  34.0750000  44.9830000  43.4800000  35.4590000  43.5030000
  41.8390000  31.0340000  54.6740000  45.8660000  34.0580000  43.9450000
  44.4370000  35.4160000  42.5440000  42.6770000  35.9410000  43.3370000
  45.6550000  34.7020000  42.7730000  46.6810000  33.5890000  44.0820000
  44.2990000  35.8610000  41.7160000  46.3220000  34.6790000  42.0970000
  42.7490000  46.6800000   7.0170000  41.7640000  46.6850000   8.0360000
  43.9930000  45.9510000   7.2490000  42.5780000  47.3600000   5.8040000
  41.9600000  46.0260000   9.2360000  40.9500000  47.1530000   7.8910000
  44.1630000  45.2740000   8.4730000  44.9690000  45.9460000   6.2450000
  43.5540000  47.3550000   4.8000000  41.7640000  47.8330000   5.6730000
  40.9760000  46.0430000  10.2740000  43.1910000  45.3020000   9.4630000
  44.9640000  44.7870000   8.6250000  45.7820000  45.4740000   6.3760000
  44.7980000  46.6260000   5.0320000  43.3830000  48.0320000   3.5760000
  41.1870000  45.3990000  11.4460000  40.1610000  46.5120000  10.1370000
  43.3620000  44.6420000  10.7170000  45.7820000  46.6210000   4.0130000
  44.3560000  48.0050000   2.5860000  42.5820000  48.5200000   3.4240000
  42.4050000  44.6850000  11.6750000  40.5200000  45.4230000  12.1220000
  44.1650000  44.1610000  10.8820000  46.5970000  46.1540000   4.1580000
  45.5870000  47.2800000   2.8120000  44.1840000  48.6650000   1.3320000
  42.5430000  44.2400000  12.5030000  46.5710000  47.2640000   1.7750000
  45.1420000  48.6220000   0.3740000  43.3820000  49.1460000   1.1660000
  46.3600000  47.9070000   0.6030000  47.3860000  46.7950000   1.9110000
  45.0030000  49.0670000  -0.4540000  47.0260000  47.8840000  -0.0730000
  44.7540000  59.7880000  63.2440000  43.7690000  59.7930000  64.2630000
  45.9980000  59.0590000  63.4760000  44.5830000  60.4680000  62.0310000
  43.9650000  59.1330000  65.4640000  42.9550000  60.2600000  64.1180000
  46.1680000  58.3820000  64.7000000  46.9740000  59.0530000  62.4720000
  45.5590000  60.4630000  61.0270000  43.7690000  60.9400000  61.9000000
  42.9810000  59.1500000  66.5010000  45.1960000  58.4090000  65.6900000
  46.9690000  57.8940000  64.8520000  47.7870000  58.5810000  62.6030000
  46.8030000  59.7330000  61.2590000  45.3880000  61.1390000  59.8030000
  43.1920000  58.5070000  67.6730000  42.1660000  59.6190000  66.3650000
  45.3670000  57.7490000  66.9440000  47.7870000  59.7290000  60.2400000
  46.3610000  61.1120000  58.8130000  44.5870000  61.6270000  59.6510000
  44.4100000  57.7920000  67.9020000  42.5250000  58.5300000  68.3490000
  46.1700000  57.2680000  67.1100000  48.6020000  59.2610000  60.3850000
  47.5920000  60.3880000  59.0400000  46.1890000  61.7720000  57.5590000
  44.5480000  57.3470000  68.7300000  48.5760000  60.3710000  58.0020000
  47.1470000  61.7290000  56.6010000  45.3870000  62.2530000  57.3940000
  48.3650000  61.0140000  56.8300000  49.3910000  59.9020000  58.1390000
  47.0080000  62.1740000  55.7730000  49.0310000  60.9910000  56.1540000
  45.2990000  49.9030000  19.0890000  46.2840000  49.8980000  18.0700000
  44.0550000  50.6320000  18.8570000  45.4700000  49.2230000  20.3020000
  46.0880000  50.5570000  16.8690000  47.0980000  49.4300000  18.2140000
  43.8850000  51.3090000  17.6320000  43.0790000  50.6370000  19.8600000
  44.4940000  49.2280000  21.3060000  46.2830000  48.7500000  20.4330000
  47.0720000  50.5400000  15.8320000  44.8570000  51.2820000  16.6430000
  43.0830000  51.7960000  17.4810000  42.2660000  51.1100000  19.7300000
  43.2500000  49.9570000  21.0740000  44.6640000  48.5510000  22.5300000
  46.8610000  51.1840000  14.6590000  47.8870000  50.0720000  15.9680000
  44.6850000  51.9410000  15.3890000  42.2660000  49.9620000  22.0930000
  43.6920000  48.5780000  23.5190000  45.4660000  48.0640000  22.6820000
  45.6430000  51.8980000  14.4300000  47.5270000  51.1610000  13.9830000
  43.8830000  52.4230000  15.2230000  41.4510000  50.4300000  21.9480000
  42.4610000  49.3030000  23.2930000  43.8640000  47.9190000  24.7730000
  45.5050000  52.3440000  13.6020000  41.4770000  49.3200000  24.3310000
  42.9060000  47.9620000  25.7320000  44.6660000  47.4370000  24.9390000
  41.6880000  48.6760000  25.5030000  40.6620000  49.7890000  24.1940000
  43.0440000  47.5170000  26.5600000  41.0220000  48.6990000  26.1790000
  45.3820000  14.8250000  47.3880000  46.3740000  15.3970000  46.5560000
  44.1520000  14.3370000  46.7830000  45.5620000  14.7230000  48.7750000
  46.1960000  15.4980000  45.1810000  47.1800000  15.7180000  46.9450000
  43.9950000  14.4570000  45.3920000  43.1700000  13.7800000  47.6140000
  44.5810000  14.1660000  49.6060000  46.3750000  15.0400000  49.1480000
  47.1920000  16.0840000  44.3180000  44.9710000  15.0220000  44.5820000
  43.1940000  14.1390000  44.9910000  42.3570000  13.4630000  47.2420000
  43.3500000  13.6780000  49.0020000  44.7370000  14.0460000  50.9980000
  46.9940000  16.1810000  42.9830000  48.0010000  16.4080000  44.6930000
  44.8070000  15.1470000  43.1600000  42.3580000  13.1060000  49.8340000
  43.7610000  13.4810000  51.8070000  45.5380000  14.3640000  51.3980000
  45.7860000  15.6980000  42.3980000  47.6620000  16.5720000  42.4330000
  44.0070000  14.8410000  42.7480000  41.5530000  12.7850000  49.4440000
  42.5370000  13.0050000  51.2090000  43.9250000  13.3560000  53.2300000
  45.6650000  15.7630000  41.4570000  41.5410000  12.4190000  52.0720000
  42.9460000  12.8050000  53.9920000  44.7250000  13.6620000  53.6420000
  41.7380000  12.3220000  53.4070000  40.7310000  12.0950000  51.6960000
  43.0670000  12.7400000  54.9320000  41.0700000  11.9300000  53.9570000
  42.8490000  10.4010000  34.9450000  41.8570000   9.8290000  35.7770000
  44.0790000  10.8890000  35.5490000  42.6690000  10.5030000  33.5570000
  42.0350000   9.7280000  37.1520000  41.0510000   9.5080000  35.3880000
  44.2360000  10.7700000  36.9410000  45.0600000  11.4460000  34.7190000
  43.6500000  11.0600000  32.7270000  41.8560000  10.1860000  33.1850000
  41.0390000   9.1420000  38.0150000  43.2600000  10.2040000  37.7510000
  45.0370000  11.0870000  37.3420000  45.8740000  11.7630000  35.0910000
  44.8810000  11.5480000  33.3310000  43.4940000  11.1800000  31.3350000
  41.2370000   9.0450000  39.3500000  40.2290000   8.8180000  37.6400000
  43.4240000  10.0790000  39.1730000  45.8730000  12.1200000  32.4990000
  44.4700000  11.7450000  30.5250000  42.6920000  10.8620000  30.9340000
  42.4450000   9.5280000  39.9350000  40.5690000   8.6540000  39.9000000
  44.2230000  10.3850000  39.5850000  46.6780000  12.4410000  32.8880000
  45.6940000  12.2210000  31.1240000  44.3060000  11.8700000  29.1030000
  42.5660000   9.4630000  40.8750000  46.6900000  12.8070000  30.2610000
  45.2850000  12.4210000  28.3410000  43.5060000  11.5640000  28.6910000
  46.4920000  12.9040000  28.9260000  47.5000000  13.1310000  30.6360000
  45.1640000  12.4860000  27.4010000  47.1610000  13.2960000  28.3760000
  42.3470000   7.1240000  20.8880000  41.3550000   6.5530000  21.7200000
  43.5780000   7.6120000  21.4920000  42.1680000   7.2260000  19.5010000
  41.5340000   6.4520000  23.0950000  40.5500000   6.2310000  21.3310000
  43.7350000   7.4930000  22.8840000  44.5590000   8.1690000  20.6620000
  43.1490000   7.7830000  18.6700000  41.3540000   6.9090000  19.1280000
  40.5380000   5.8660000  23.9580000  42.7590000   6.9270000  23.6940000
  44.5360000   7.8100000  23.2850000  45.3730000   8.4870000  21.0340000
  44.3800000   8.2710000  19.2740000  42.9930000   7.9030000  17.2780000
  40.7360000   5.7680000  25.2930000  39.7280000   5.5420000  23.5830000
  42.9220000   6.8020000  25.1160000  45.3720000   8.8430000  18.4420000
  43.9690000   8.4680000  16.4690000  42.1910000   7.5850000  16.8780000
  41.9430000   6.2510000  25.8780000  40.0680000   5.3770000  25.8430000
  43.7220000   7.1090000  25.5280000  46.1770000   9.1640000  18.8320000
  45.1930000   8.9440000  17.0670000  43.8050000   8.5930000  15.0460000
  42.0650000   6.1860000  26.8190000  46.1890000   9.5300000  16.2040000
  44.7840000   9.1440000  14.2840000  43.0050000   8.2870000  14.6340000
  45.9910000   9.6270000  14.8690000  46.9990000   9.8540000  16.5800000
  44.6630000   9.2090000  13.3440000  46.6600000  10.0190000  14.3190000
  43.8790000   4.9950000   5.2170000  44.8700000   5.5660000   4.3850000
  42.6480000   4.5070000   4.6130000  44.0580000   4.8930000   6.6050000
  44.6920000   5.6670000   3.0110000  45.6760000   5.8870000   4.7750000
  42.4910000   4.6260000   3.2210000  41.6670000   3.9490000   5.4440000
  43.0770000   4.3350000   7.4360000  44.8710000   5.2100000   6.9770000
  45.6880000   6.2530000   2.1470000  43.4670000   5.1910000   2.4120000
  41.6900000   4.3080000   2.8210000  40.8530000   3.6320000   5.0710000
  41.8460000   3.8470000   6.8310000  43.2330000   4.2160000   8.8270000
  45.4900000   6.3500000   0.8120000  46.4980000   6.5770000   2.5230000
  43.3030000   5.3170000   0.9890000  40.8540000   3.2760000   7.6630000
  42.2570000   3.6510000   9.6370000  44.0350000   4.5330000   9.2280000
  44.2820000   5.8680000   0.2270000  46.1580000   6.7420000   0.2620000
  42.5040000   5.0100000   0.5770000  40.0490000   2.9550000   7.2740000
  41.0330000   3.1750000   9.0380000  42.4210000   3.5250000  11.0590000
  44.1610000   5.9330000  -0.7130000  40.0370000   2.5890000   9.9010000
  41.4420000   2.9740000  11.8210000  43.2210000   3.8320000  11.4710000
  40.2350000   2.4920000  11.2370000  39.2270000   2.2650000   9.5260000
  41.5630000   2.9090000  12.7620000  39.5660000   2.1000000  11.7860000
  43.0830000  14.8030000  20.8880000  42.0910000  14.2310000  21.7200000
  44.3140000  15.2910000  21.4920000  42.9040000  14.9050000  19.5010000
  42.2700000  14.1300000  23.0950000  41.2860000  13.9100000  21.3310000
  44.4710000  15.1710000  22.8840000  45.2950000  15.8480000  20.6620000
  43.8850000  15.4620000  18.6700000  42.0900000  14.5880000  19.1280000
  41.2740000  13.5440000  23.9580000  43.4950000  14.6060000  23.6940000
  45.2720000  15.4890000  23.2850000  46.1090000  16.1650000  21.0340000
  45.1160000  15.9500000  19.2740000  43.7290000  15.5810000  17.2780000
  41.4720000  13.4470000  25.2930000  40.4640000  13.2200000  23.5830000
  43.6590000  14.4810000  25.1160000  46.1080000  16.5220000  18.4420000
  44.7050000  16.1470000  16.4690000  42.9270000  15.2640000  16.8780000
  42.6800000  13.9300000  25.8780000  40.8040000  13.0550000  25.8430000
  44.4580000  14.7870000  25.5280000  46.9130000  16.8430000  18.8320000
  45.9290000  16.6230000  17.0670000  44.5410000  16.2720000  15.0460000
  42.8010000  13.8650000  26.8190000  46.9250000  17.2090000  16.2040000
  45.5200000  16.8230000  14.2840000  43.7410000  15.9660000  14.6340000
  46.7270000  17.3060000  14.8690000  47.7350000  17.5330000  16.5800000
  45.3990000  16.8880000  13.3440000  47.3960000  17.6970000  14.3190000
  42.5820000  11.5260000   6.8310000  41.5900000  10.9540000   7.6630000
  43.8130000  12.0140000   7.4360000  42.4030000  11.6280000   5.4440000
  41.7690000  10.8530000   9.0380000  40.7850000  10.6330000   7.2740000
  43.9690000  11.8940000   8.8270000  44.7940000  12.5710000   6.6050000
  43.3840000  12.1850000   4.6130000  41.5890000  11.3110000   5.0710000
  40.7730000  10.2670000   9.9010000  42.9930000  11.3290000   9.6370000
  44.7710000  12.2120000   9.2280000  45.6080000  12.8880000   6.9770000
  44.6150000  12.6730000   5.2170000  43.2270000  12.3050000   3.2210000
  40.9710000  10.1700000  11.2370000  39.9630000   9.9430000   9.5260000
  43.1570000  11.2040000  11.0590000  45.6070000  13.2450000   4.3850000
  44.2030000  12.8700000   2.4120000  42.4260000  11.9870000   2.8210000
  42.1780000  10.6530000  11.8210000  40.3020000   9.7780000  11.7860000
  43.9570000  11.5100000  11.4710000  46.4120000  13.5660000   4.7750000
  45.4280000  13.3460000   3.0110000  44.0400000  12.9950000   0.9890000
  42.2990000  10.5880000  12.7620000  46.4240000  13.9320000   2.1470000
  45.0190000  13.5460000   0.2270000  43.2400000  12.6890000   0.5770000
  46.2260000  14.0290000   0.8120000  47.2340000  14.2560000   2.5230000
  44.8970000  13.6110000  -0.7130000  46.8940000  14.4210000   0.2620000
  44.0860000  21.3560000  49.0020000  43.0940000  20.7850000  49.8340000
  45.3170000  21.8440000  49.6060000  43.9070000  21.4580000  47.6140000
  43.2730000  20.6840000  51.2090000  42.2890000  20.4640000  49.4440000
  45.4730000  21.7250000  50.9980000  46.2980000  22.4020000  48.7750000
  44.8880000  22.0160000  46.7830000  43.0930000  21.1410000  47.2420000
  42.2770000  20.0980000  52.0720000  44.4970000  21.1600000  51.8070000
  46.2750000  22.0430000  51.3980000  47.1110000  22.7190000  49.1480000
  46.1180000  22.5040000  47.3880000  44.7310000  22.1350000  45.3920000
  42.4750000  20.0010000  53.4070000  41.4670000  19.7740000  51.6960000
  44.6610000  21.0340000  53.2300000  47.1100000  23.0750000  46.5560000
  45.7070000  22.7000000  44.5820000  43.9300000  21.8180000  44.9910000
  43.6820000  20.4830000  53.9920000  41.8060000  19.6090000  53.9570000
  45.4610000  21.3410000  53.6420000  47.9160000  23.3960000  46.9450000
  46.9320000  23.1760000  45.1810000  45.5430000  22.8260000  43.1600000
  43.8030000  20.4180000  54.9320000  47.9280000  23.7620000  44.3180000
  46.5220000  23.3770000  42.3980000  44.7440000  22.5190000  42.7480000
  47.7300000  23.8590000  42.9830000  48.7380000  24.0860000  44.6930000
  46.4010000  23.4420000  41.4570000  48.3980000  24.2510000  42.4330000
  45.6170000  19.2270000  33.3310000  46.6090000  19.7980000  32.4990000
  44.3860000  18.7390000  32.7270000  45.7970000  19.1250000  34.7190000
  46.4300000  19.8990000  31.1240000  47.4140000  20.1200000  32.8880000
  44.2300000  18.8580000  31.3350000  43.4050000  18.1820000  33.5570000
  44.8150000  18.5680000  35.5490000  46.6100000  19.4420000  35.0910000
  47.4260000  20.4850000  30.2610000  45.2060000  19.4240000  30.5250000
  43.4290000  18.5410000  30.9340000  42.5920000  17.8640000  33.1850000
  43.5850000  18.0800000  34.9450000  44.9720000  18.4480000  36.9410000
  47.2290000  20.5830000  28.9260000  48.2360000  20.8090000  30.6360000
  45.0420000  19.5490000  29.1030000  42.5930000  17.5080000  35.7770000
  43.9960000  17.8830000  37.7510000  45.7730000  18.7660000  37.3420000
  46.0210000  20.1000000  28.3410000  47.8970000  20.9740000  28.3760000
  44.2420000  19.2420000  28.6910000  41.7870000  17.1870000  35.3880000
  42.7710000  17.4070000  37.1520000  44.1600000  17.7580000  39.1730000
  45.9000000  20.1650000  27.4010000  41.7750000  16.8210000  38.0150000
  43.1810000  17.2060000  39.9350000  44.9600000  18.0640000  39.5850000
  41.9730000  16.7240000  39.3500000  40.9660000  16.4970000  37.6400000
  43.3020000  17.1420000  40.8750000  41.3050000  16.3320000  39.9000000
  43.3180000  19.2050000   6.8310000  42.3260000  18.6330000   7.6630000
  44.5490000  19.6920000   7.4360000  43.1390000  19.3060000   5.4440000
  42.5050000  18.5320000   9.0380000  41.5210000  18.3120000   7.2740000
  44.7050000  19.5730000   8.8270000  45.5300000  20.2500000   6.6050000
  44.1200000  19.8640000   4.6130000  42.3250000  18.9890000   5.0710000
  41.5090000  17.9460000   9.9010000  43.7300000  19.0080000   9.6370000
  45.5070000  19.8910000   9.2280000  46.3440000  20.5670000   6.9770000
  45.3510000  20.3520000   5.2170000  43.9640000  19.9830000   3.2210000
  41.7070000  17.8490000  11.2370000  40.6990000  17.6220000   9.5260000
  43.8930000  18.8830000  11.0590000  46.3430000  20.9230000   4.3850000
  44.9390000  20.5480000   2.4120000  43.1620000  19.6660000   2.8210000
  42.9140000  18.3310000  11.8210000  41.0390000  17.4570000  11.7860000
  44.6930000  19.1890000  11.4710000  47.1480000  21.2440000   4.7750000
  46.1640000  21.0240000   3.0110000  44.7760000  20.6740000   0.9890000
  43.0360000  18.2670000  12.7620000  47.1600000  21.6100000   2.1470000
  45.7550000  21.2250000   0.2270000  43.9760000  20.3670000   0.5770000
  46.9620000  21.7070000   0.8120000  47.9700000  21.9340000   2.5230000
  45.6340000  21.2900000  -0.7130000  47.6310000  22.0990000   0.2620000
  45.8520000  23.6290000  19.2740000  46.8440000  24.2000000  18.4420000
  44.6210000  23.1410000  18.6700000  46.0310000  23.5270000  20.6620000
  46.6650000  24.3010000  17.0670000  47.6490000  24.5210000  18.8320000
  44.4650000  23.2600000  17.2780000  43.6400000  22.5830000  19.5010000
  45.0500000  22.9690000  21.4920000  46.8450000  23.8440000  21.0340000
  47.6610000  24.8870000  16.2040000  45.4410000  23.8250000  16.4690000
  43.6630000  22.9420000  16.8780000  42.8270000  22.2660000  19.1280000
  43.8190000  22.4810000  20.8880000  45.2070000  22.8500000  22.8840000
  47.4630000  24.9840000  14.8690000  48.4710000  25.2110000  16.5800000
  45.2770000  23.9510000  15.0460000  42.8280000  21.9100000  21.7200000
  44.2310000  22.2850000  23.6940000  46.0080000  23.1680000  23.2850000
  46.2560000  24.5020000  14.2840000  48.1320000  25.3760000  14.3190000
  44.4770000  23.6440000  14.6340000  42.0220000  21.5890000  21.3310000
  43.0060000  21.8090000  23.0950000  44.3950000  22.1590000  25.1160000
  46.1350000  24.5670000  13.3440000  42.0100000  21.2230000  23.9580000
  43.4160000  21.6080000  25.8780000  45.1940000  22.4660000  25.5280000
  42.2080000  21.1260000  25.2930000  41.2000000  20.8990000  23.5830000
  43.5370000  21.5430000  26.8190000  41.5400000  20.7340000  25.8430000
  46.3530000  26.9050000  33.3310000  47.3450000  27.4770000  32.4990000
  45.1230000  26.4170000  32.7270000  46.5330000  26.8030000  34.7190000
  47.1670000  27.5780000  31.1240000  48.1510000  27.7980000  32.8880000
  44.9660000  26.5370000  31.3350000  44.1410000  25.8600000  33.5570000
  45.5520000  26.2460000  35.5490000  47.3460000  27.1210000  35.0910000
  48.1630000  28.1640000  30.2610000  45.9420000  27.1020000  30.5250000
  44.1650000  26.2190000  30.9340000  43.3280000  25.5430000  33.1850000
  44.3210000  25.7580000  34.9450000  45.7080000  26.1270000  36.9410000
  47.9650000  28.2610000  28.9260000  48.9720000  28.4880000  30.6360000
  45.7780000  27.2270000  29.1030000  43.3290000  25.1870000  35.7770000
  44.7320000  25.5610000  37.7510000  46.5090000  26.4440000  37.3420000
  46.7570000  27.7790000  28.3410000  48.6330000  28.6530000  28.3760000
  44.9780000  26.9210000  28.6910000  42.5240000  24.8650000  35.3880000
  43.5080000  25.0860000  37.1520000  44.8960000  25.4360000  39.1730000
  46.6360000  27.8430000  27.4010000  42.5120000  24.5000000  38.0150000
  43.9170000  24.8850000  39.9350000  45.6960000  25.7430000  39.5850000
  42.7090000  24.4020000  39.3500000  41.7020000  24.1760000  37.6400000
  44.0380000  24.8200000  40.8750000  42.0410000  24.0110000  39.9000000
  46.5880000  31.3070000  19.2740000  47.5800000  31.8790000  18.4420000
  45.3570000  30.8190000  18.6700000  46.7680000  31.2050000  20.6620000
  47.4010000  31.9800000  17.0670000  48.3850000  32.2000000  18.8320000
  45.2010000  30.9390000  17.2780000  44.3760000  30.2620000  19.5010000
  45.7860000  30.6480000  21.4920000  47.5810000  31.5220000  21.0340000
  48.3970000  32.5660000  16.2040000  46.1770000  31.5040000  16.4690000
  44.4000000  30.6210000  16.8780000  43.5630000  29.9450000  19.1280000
  44.5560000  30.1600000  20.8880000  45.9430000  30.5290000  22.8840000
  48.1990000  32.6630000  14.8690000  49.2070000  32.8900000  16.5800000
  46.0130000  31.6290000  15.0460000  43.5640000  29.5880000  21.7200000
  44.9670000  29.9630000  23.6940000  46.7440000  30.8460000  23.2850000
  46.9920000  32.1800000  14.2840000  48.8680000  33.0550000  14.3190000
  45.2130000  31.3230000  14.6340000  42.7580000  29.2670000  21.3310000
  43.7420000  29.4870000  23.0950000  45.1310000  29.8380000  25.1160000
  46.8710000  32.2450000  13.3440000  42.7460000  28.9010000  23.9580000
  44.1520000  29.2870000  25.8780000  45.9310000  30.1440000  25.5280000
  42.9440000  28.8040000  25.2930000  41.9370000  28.5770000  23.5830000
  44.2730000  29.2220000  26.8190000  42.2760000  28.4130000  25.8430000
  46.0870000  28.0300000   5.2170000  47.0790000  28.6020000   4.3850000
  44.8560000  27.5420000   4.6130000  46.2660000  27.9280000   6.6050000
  46.9000000  28.7030000   3.0110000  47.8840000  28.9230000   4.7750000
  44.7000000  27.6620000   3.2210000  43.8750000  26.9850000   5.4440000
  45.2850000  27.3710000   7.4360000  47.0800000  28.2460000   6.9770000
  47.8960000  29.2890000   2.1470000  45.6760000  28.2270000   2.4120000
  43.8980000  27.3440000   2.8210000  43.0610000  26.6680000   5.0710000
  44.0540000  26.8830000   6.8310000  45.4420000  27.2520000   8.8270000
  47.6980000  29.3860000   0.8120000  48.7060000  29.6130000   2.5230000
  45.5120000  28.3520000   0.9890000  43.0620000  26.3120000   7.6630000
  44.4660000  26.6860000   9.6370000  46.2430000  27.5690000   9.2280000
  46.4910000  28.9030000   0.2270000  48.3670000  29.7780000   0.2620000
  44.7120000  28.0460000   0.5770000  42.2570000  25.9900000   7.2740000
  43.2410000  26.2100000   9.0380000  44.6290000  26.5610000  11.0590000
  46.3700000  28.9680000  -0.7130000  42.2450000  25.6250000   9.9010000
  43.6510000  26.0100000  11.8210000  45.4290000  26.8680000  11.4710000
  42.4430000  25.5270000  11.2370000  41.4350000  25.3010000   9.5260000
  43.7720000  25.9450000  12.7620000  41.7750000  25.1360000  11.7860000
  45.0570000  33.4370000  34.9450000  44.0650000  32.8650000  35.7770000
  46.2880000  33.9250000  35.5490000  44.8770000  33.5390000  33.5570000
  44.2440000  32.7640000  37.1520000  43.2600000  32.5440000  35.3880000
  46.4440000  33.8050000  36.9410000  47.2690000  34.4820000  34.7190000
  45.8590000  34.0960000  32.7270000  44.0640000  33.2220000  33.1850000
  43.2480000  32.1780000  38.0150000  45.4680000  33.2400000  37.7510000
  47.2450000  34.1230000  37.3420000  48.0820000  34.7990000  35.0910000
  47.0890000  34.5840000  33.3310000  45.7020000  34.2150000  31.3350000
  43.4460000  32.0810000  39.3500000  42.4380000  31.8540000  37.6400000
  45.6320000  33.1150000  39.1730000  48.0810000  35.1560000  32.4990000
  46.6780000  34.7810000  30.5250000  44.9010000  33.8980000  30.9340000
  44.6530000  32.5640000  39.9350000  42.7770000  31.6890000  39.9000000
  46.4320000  33.4210000  39.5850000  48.8870000  35.4770000  32.8880000
  47.9030000  35.2570000  31.1240000  46.5140000  34.9060000  29.1030000
  44.7740000  32.4990000  40.8750000  48.8990000  35.8430000  30.2610000
  47.4930000  35.4570000  28.3410000  45.7150000  34.6000000  28.6910000
  48.7010000  35.9400000  28.9260000  49.7090000  36.1670000  30.6360000
  47.3720000  35.5220000  27.4010000  49.3690000  36.3310000  28.3760000
  47.5910000  37.8610000  47.3880000  48.5830000  38.4320000  46.5560000
  46.3600000  37.3730000  46.7830000  47.7700000  37.7590000  48.7750000
  48.4040000  38.5340000  45.1810000  49.3880000  38.7540000  46.9450000
  46.2030000  37.4920000  45.3920000  45.3790000  36.8160000  47.6140000
  46.7890000  37.2020000  49.6060000  48.5840000  38.0760000  49.1480000
  49.4000000  39.1190000  44.3180000  47.1790000  38.0580000  44.5820000
  45.4020000  37.1750000  44.9910000  44.5650000  36.4980000  47.2420000
  45.5580000  36.7140000  49.0020000  46.9450000  37.0820000  50.9980000
  49.2020000  39.2170000  42.9830000  50.2100000  39.4430000  44.6930000
  47.0160000  38.1830000  43.1600000  44.5660000  36.1420000  49.8340000
  45.9690000  36.5170000  51.8070000  47.7470000  37.4000000  51.3980000
  47.9950000  38.7340000  42.3980000  49.8700000  39.6080000  42.4330000
  46.2160000  37.8760000  42.7480000  43.7610000  35.8210000  49.4440000
  44.7450000  36.0410000  51.2090000  46.1330000  36.3920000  53.2300000
  47.8730000  38.7990000  41.4570000  43.7490000  35.4550000  52.0720000
  45.1540000  35.8410000  53.9920000  46.9330000  36.6980000  53.6420000
  43.9470000  35.3580000  53.4070000  42.9390000  35.1310000  51.6960000
  45.2750000  35.7760000  54.9320000  43.2780000  34.9660000  53.9570000
  48.0920000  41.1380000  61.4450000  49.0840000  41.7090000  60.6130000
  46.8610000  40.6500000  60.8400000  48.2710000  41.0360000  62.8320000
  48.9050000  41.8100000  59.2380000  49.8890000  42.0300000  61.0020000
  46.7050000  40.7690000  59.4490000  45.8800000  40.0920000  61.6710000
  47.2900000  40.4780000  63.6630000  49.0850000  41.3530000  63.2050000
  49.9010000  42.3960000  58.3750000  47.6810000  41.3340000  58.6390000
  45.9030000  40.4520000  59.0480000  45.0670000  39.7750000  61.2990000
  46.0590000  39.9900000  63.0580000  47.4470000  40.3590000  65.0550000
  49.7030000  42.4930000  57.0390000  50.7110000  42.7200000  58.7500000
  47.5170000  41.4600000  57.2160000  45.0670000  39.4190000  63.8910000
  46.4710000  39.7940000  65.8640000  48.2480000  40.6770000  65.4550000
  48.4960000  42.0110000  56.4550000  50.3720000  42.8850000  56.4900000
  46.7170000  41.1530000  56.8050000  44.2620000  39.0980000  63.5010000
  45.2460000  39.3180000  65.2650000  46.6350000  39.6680000  67.2870000
  48.3750000  42.0760000  55.5140000  44.2500000  38.7320000  66.1280000
  45.6560000  39.1170000  68.0490000  47.4340000  39.9750000  67.6990000
  44.4480000  38.6350000  67.4640000  43.4400000  38.4080000  65.7530000
  45.7770000  39.0520000  68.9890000  43.7800000  38.2430000  68.0130000
  45.2920000  37.8390000  20.8880000  44.3000000  37.2670000  21.7200000
  46.5230000  38.3270000  21.4920000  45.1120000  37.9410000  19.5010000
  44.4780000  37.1660000  23.0950000  43.4940000  36.9460000  21.3310000
  46.6790000  38.2070000  22.8840000  47.5040000  38.8840000  20.6620000
  46.0940000  38.4980000  18.6700000  44.2990000  37.6230000  19.1280000
  43.4820000  36.5800000  23.9580000  45.7030000  37.6420000  23.6940000
  47.4800000  38.5250000  23.2850000  48.3170000  39.2010000  21.0340000
  47.3240000  38.9860000  19.2740000  45.9370000  38.6170000  17.2780000
  43.6800000  36.4830000  25.2930000  42.6730000  36.2560000  23.5830000
  45.8670000  37.5170000  25.1160000  48.3160000  39.5570000  18.4420000
  46.9130000  39.1830000  16.4690000  45.1360000  38.3000000  16.8780000
  44.8880000  36.9650000  25.8780000  43.0120000  36.0910000  25.8430000
  46.6670000  37.8230000  25.5280000  49.1220000  39.8780000  18.8320000
  48.1380000  39.6580000  17.0670000  46.7490000  39.3080000  15.0460000
  45.0090000  36.9010000  26.8190000  49.1340000  40.2440000  16.2040000
  47.7280000  39.8590000  14.2840000  45.9490000  39.0010000  14.6340000
  48.9360000  40.3420000  14.8690000  49.9430000  40.5680000  16.5800000
  47.6070000  39.9240000  13.3440000  49.6040000  40.7330000  14.3190000
  46.2940000  44.3920000  49.0020000  45.3020000  43.8210000  49.8340000
  47.5250000  44.8800000  49.6060000  46.1150000  44.4940000  47.6140000
  45.4810000  43.7200000  51.2090000  44.4970000  43.5000000  49.4440000
  47.6820000  44.7610000  50.9980000  48.5060000  45.4370000  48.7750000
  47.0960000  45.0510000  46.7830000  45.3010000  44.1770000  47.2420000
  44.4850000  43.1340000  52.0720000  46.7060000  44.1950000  51.8070000
  48.4830000  45.0780000  51.3980000  49.3200000  45.7550000  49.1480000
  48.3270000  45.5390000  47.3880000  46.9400000  45.1710000  45.3920000
  44.6830000  43.0360000  53.4070000  43.6750000  42.8100000  51.6960000
  46.8690000  44.0700000  53.2300000  49.3190000  46.1110000  46.5560000
  47.9160000  45.7360000  44.5820000  46.1380000  44.8530000  44.9910000
  45.8900000  43.5190000  53.9920000  44.0150000  42.6450000  53.9570000
  47.6690000  44.3770000  53.6420000  50.1240000  46.4320000  46.9450000
  49.1400000  46.2120000  45.1810000  47.7520000  45.8610000  43.1600000
  46.0120000  43.4540000  54.9320000  50.1360000  46.7980000  44.3180000
  48.7310000  46.4130000  42.3980000  46.9520000  45.5550000  42.7480000
  49.9380000  46.8950000  42.9830000  50.9460000  47.1220000  44.6930000
  48.6100000  46.4770000  41.4570000  50.6070000  47.2870000  42.4330000
  46.7960000  47.6690000  63.0580000  45.8040000  47.0970000  63.8910000
  48.0260000  48.1570000  63.6630000  46.6160000  47.7710000  61.6710000
  45.9820000  46.9960000  65.2650000  44.9980000  46.7760000  63.5010000
  48.1830000  48.0380000  65.0550000  49.0070000  48.7140000  62.8320000
  47.5970000  48.3280000  60.8400000  45.8030000  47.4540000  61.2990000
  44.9860000  46.4110000  66.1280000  47.2070000  47.4720000  65.8640000
  48.9840000  48.3550000  65.4550000  49.8210000  49.0320000  63.2050000
  48.8280000  48.8160000  61.4450000  47.4410000  48.4480000  59.4490000
  45.1840000  46.3130000  67.4640000  44.1760000  46.0870000  65.7530000
  47.3710000  47.3470000  67.2870000  49.8200000  49.3880000  60.6130000
  48.4170000  49.0130000  58.6390000  46.6390000  48.1300000  59.0480000
  46.3920000  46.7960000  68.0490000  44.5160000  45.9220000  68.0130000
  48.1700000  47.6530000  67.6990000  50.6250000  49.7090000  61.0020000
  49.6410000  49.4890000  59.2380000  48.2530000  49.1380000  57.2160000
  46.5130000  46.7310000  68.9890000  50.6370000  50.0750000  58.3750000
  49.2320000  49.6890000  56.4550000  47.4530000  48.8320000  56.8050000
  50.4390000  50.1720000  57.0390000  51.4470000  50.3990000  58.7500000
  49.1110000  49.7540000  55.5140000  51.1080000  50.5640000  56.4900000
  45.7930000  41.1150000  34.9450000  44.8010000  40.5440000  35.7770000
  47.0240000  41.6030000  35.5490000  45.6140000  41.2170000  33.5570000
  44.9800000  40.4430000  37.1520000  43.9960000  40.2230000  35.3880000
  47.1800000  41.4840000  36.9410000  48.0050000  42.1610000  34.7190000
  46.5950000  41.7750000  32.7270000  44.8000000  40.9000000  33.1850000
  43.9840000  39.8570000  38.0150000  46.2040000  40.9190000  37.7510000
  47.9820000  41.8020000  37.3420000  48.8180000  42.4780000  35.0910000
  47.8260000  42.2630000  33.3310000  46.4380000  41.8940000  31.3350000
  44.1820000  39.7600000  39.3500000  43.1740000  39.5330000  37.6400000
  46.3680000  40.7930000  39.1730000  48.8170000  42.8340000  32.4990000
  47.4140000  42.4590000  30.5250000  45.6370000  41.5760000  30.9340000
  45.3890000  40.2420000  39.9350000  43.5130000  39.3680000  39.9000000
  47.1680000  41.1000000  39.5850000  49.6230000  43.1550000  32.8880000
  48.6390000  42.9350000  31.1240000  47.2500000  42.5850000  29.1030000
  45.5100000  40.1770000  40.8750000  49.6350000  43.5210000  30.2610000
  48.2290000  43.1360000  28.3410000  46.4510000  42.2780000  28.6910000
  49.4370000  43.6180000  28.9260000  50.4450000  43.8450000  30.6360000
  48.1080000  43.2010000  27.4010000  50.1050000  44.0100000  28.3760000
  46.8230000  35.7090000   5.2170000  47.8150000  36.2810000   4.3850000
  45.5920000  35.2210000   4.6130000  47.0020000  35.6070000   6.6050000
  47.6360000  36.3820000   3.0110000  48.6200000  36.6020000   4.7750000
  45.4360000  35.3400000   3.2210000  44.6110000  34.6640000   5.4440000
  46.0210000  35.0500000   7.4360000  47.8160000  35.9240000   6.9770000
  48.6320000  36.9670000   2.1470000  46.4120000  35.9060000   2.4120000
  44.6340000  35.0230000   2.8210000  43.7980000  34.3460000   5.0710000
  44.7900000  34.5620000   6.8310000  46.1780000  34.9300000   8.8270000
  48.4340000  37.0650000   0.8120000  49.4420000  37.2910000   2.5230000
  46.2480000  36.0310000   0.9890000  43.7990000  33.9900000   7.6630000
  45.2020000  34.3650000   9.6370000  46.9790000  35.2480000   9.2280000
  47.2270000  36.5820000   0.2270000  49.1030000  37.4560000   0.2620000
  45.4480000  35.7250000   0.5770000  42.9930000  33.6690000   7.2740000
  43.9770000  33.8890000   9.0380000  45.3660000  34.2400000  11.0590000
  47.1060000  36.6470000  -0.7130000  42.9810000  33.3030000   9.9010000
  44.3870000  33.6890000  11.8210000  46.1650000  34.5460000  11.4710000
  43.1790000  33.2060000  11.2370000  42.1710000  32.9790000   9.5260000
  44.5080000  33.6240000  12.7620000  42.5110000  32.8140000  11.7860000
  48.5620000  49.9410000  33.3310000  49.5540000  50.5130000  32.4990000
  47.3310000  49.4530000  32.7270000  48.7410000  49.8390000  34.7190000
  49.3750000  50.6140000  31.1240000  50.3590000  50.8340000  32.8880000
  47.1740000  49.5730000  31.3350000  46.3500000  48.8960000  33.5570000
  47.7600000  49.2820000  35.5490000  49.5550000  50.1560000  35.0910000
  50.3710000  51.2000000  30.2610000  48.1500000  50.1380000  30.5250000
  46.3730000  49.2550000  30.9340000  45.5360000  48.5790000  33.1850000
  46.5290000  48.7940000  34.9450000  47.9160000  49.1630000  36.9410000
  50.1730000  51.2970000  28.9260000  51.1810000  51.5240000  30.6360000
  47.9870000  50.2630000  29.1030000  45.5370000  48.2220000  35.7770000
  46.9400000  48.5970000  37.7510000  48.7180000  49.4800000  37.3420000
  48.9660000  50.8140000  28.3410000  50.8410000  51.6890000  28.3760000
  47.1870000  49.9570000  28.6910000  44.7320000  47.9010000  35.3880000
  45.7160000  48.1210000  37.1520000  47.1040000  48.4720000  39.1730000
  48.8440000  50.8790000  27.4010000  44.7200000  47.5350000  38.0150000
  46.1250000  47.9210000  39.9350000  47.9040000  48.7780000  39.5850000
  44.9180000  47.4380000  39.3500000  43.9100000  47.2110000  37.6400000
  46.2460000  47.8560000  40.8750000  44.2490000  47.0470000  39.9000000
  47.0300000  52.0710000  49.0020000  46.0380000  51.4990000  49.8340000
  48.2610000  52.5590000  49.6060000  46.8510000  52.1730000  47.6140000
  46.2170000  51.3980000  51.2090000  45.2330000  51.1780000  49.4440000
  48.4180000  52.4390000  50.9980000  49.2420000  53.1160000  48.7750000
  47.8320000  52.7300000  46.7830000  46.0370000  51.8560000  47.2420000
  45.2210000  50.8120000  52.0720000  47.4420000  51.8740000  51.8070000
  49.2190000  52.7570000  51.3980000  50.0560000  53.4330000  49.1480000
  49.0630000  53.2180000  47.3880000  47.6760000  52.8490000  45.3920000
  45.4190000  50.7150000  53.4070000  44.4110000  50.4880000  51.6960000
  47.6060000  51.7490000  53.2300000  50.0550000  53.7900000  46.5560000
  48.6520000  53.4150000  44.5820000  46.8740000  52.5320000  44.9910000
  46.6270000  51.1980000  53.9920000  44.7510000  50.3230000  53.9570000
  48.4050000  52.0550000  53.6420000  50.8600000  54.1110000  46.9450000
  49.8760000  53.8910000  45.1810000  48.4880000  53.5400000  43.1600000
  46.7480000  51.1330000  54.9320000  50.8720000  54.4770000  44.3180000
  49.4670000  54.0910000  42.3980000  47.6880000  53.2340000  42.7480000
  50.6740000  54.5740000  42.9830000  51.6820000  54.8010000  44.6930000
  49.3460000  54.1560000  41.4570000  51.3430000  54.9650000  42.4330000
  47.5590000  43.3880000   5.2170000  48.5510000  43.9590000   4.3850000
  46.3280000  42.9000000   4.6130000  47.7390000  43.2860000   6.6050000
  48.3720000  44.0600000   3.0110000  49.3560000  44.2800000   4.7750000
  46.1720000  43.0190000   3.2210000  45.3470000  42.3420000   5.4440000
  46.7570000  42.7280000   7.4360000  48.5520000  43.6030000   6.9770000
  49.3680000  44.6460000   2.1470000  47.1480000  43.5840000   2.4120000
  45.3710000  42.7010000   2.8210000  44.5340000  42.0250000   5.0710000
  45.5270000  42.2400000   6.8310000  46.9140000  42.6090000   8.8270000
  49.1700000  44.7430000   0.8120000  50.1780000  44.9700000   2.5230000
  46.9840000  43.7100000   0.9890000  44.5350000  41.6690000   7.6630000
  45.9380000  42.0440000   9.6370000  47.7150000  42.9260000   9.2280000
  47.9630000  44.2610000   0.2270000  49.8390000  45.1350000   0.2620000
  46.1840000  43.4030000   0.5770000  43.7290000  41.3480000   7.2740000
  44.7130000  41.5680000   9.0380000  46.1020000  41.9180000  11.0590000
  47.8420000  44.3260000  -0.7130000  43.7170000  40.9820000   9.9010000
  45.1230000  41.3670000  11.8210000  46.9020000  42.2250000  11.4710000
  43.9150000  40.8850000  11.2370000  42.9080000  40.6580000   9.5260000
  45.2440000  41.3020000  12.7620000  43.2470000  40.4930000  11.7860000
  48.0600000  46.6640000  19.2740000  49.0520000  47.2360000  18.4420000
  46.8300000  46.1760000  18.6700000  48.2400000  46.5620000  20.6620000
  48.8740000  47.3370000  17.0670000  49.8580000  47.5570000  18.8320000
  46.6730000  46.2960000  17.2780000  45.8480000  45.6190000  19.5010000
  47.2590000  46.0050000  21.4920000  49.0530000  46.8800000  21.0340000
  49.8700000  47.9230000  16.2040000  47.6490000  46.8610000  16.4690000
  45.8720000  45.9780000  16.8780000  45.0350000  45.3020000  19.1280000
  46.0280000  45.5170000  20.8880000  47.4150000  45.8860000  22.8840000
  49.6720000  48.0200000  14.8690000  50.6790000  48.2470000  16.5800000
  47.4850000  46.9860000  15.0460000  45.0360000  44.9460000  21.7200000
  46.4390000  45.3200000  23.6940000  48.2160000  46.2030000  23.2850000
  48.4640000  47.5370000  14.2840000  50.3400000  48.4120000  14.3190000
  46.6850000  46.6800000  14.6340000  44.2310000  44.6240000  21.3310000
  45.2150000  44.8440000  23.0950000  46.6030000  45.1950000  25.1160000
  48.3430000  47.6020000  13.3440000  44.2190000  44.2590000  23.9580000
  45.6240000  44.6440000  25.8780000  47.4030000  45.5020000  25.5280000
  44.4170000  44.1610000  25.2930000  43.4090000  43.9350000  23.5830000
  45.7450000  44.5790000  26.8190000  43.7480000  43.7700000  25.8430000
  46.7640000  53.1960000  20.8880000  45.7720000  52.6240000  21.7200000
  47.9950000  53.6840000  21.4920000  46.5850000  53.2980000  19.5010000
  45.9510000  52.5230000  23.0950000  44.9670000  52.3030000  21.3310000
  48.1510000  53.5640000  22.8840000  48.9760000  54.2410000  20.6620000
  47.5660000  53.8550000  18.6700000  45.7710000  52.9810000  19.1280000
  44.9550000  51.9370000  23.9580000  47.1750000  52.9990000  23.6940000
  48.9530000  53.8820000  23.2850000  49.7890000  54.5580000  21.0340000
  48.7970000  54.3430000  19.2740000  47.4090000  53.9740000  17.2780000
  45.1530000  51.8400000  25.2930000  44.1450000  51.6130000  23.5830000
  47.3390000  52.8740000  25.1160000  49.7880000  54.9150000  18.4420000
  48.3850000  54.5400000  16.4690000  46.6080000  53.6570000  16.8780000
  46.3600000  52.3230000  25.8780000  44.4840000  51.4480000  25.8430000
  48.1390000  53.1800000  25.5280000  50.5940000  55.2360000  18.8320000
  49.6100000  55.0160000  17.0670000  48.2210000  54.6650000  15.0460000
  46.4810000  52.2580000  26.8190000  50.6060000  55.6010000  16.2040000
  49.2000000  55.2160000  14.2840000  47.4220000  54.3590000  14.6340000
  50.4080000  55.6990000  14.8690000  51.4160000  55.9250000  16.5800000
  49.0790000  55.2810000  13.3440000  51.0760000  56.0900000  14.3190000
  47.2650000  56.4730000  34.9450000  46.2730000  55.9010000  35.7770000
  48.4960000  56.9610000  35.5490000  47.0860000  56.5750000  33.5570000
  46.4520000  55.8000000  37.1520000  45.4680000  55.5800000  35.3880000
  48.6520000  56.8410000  36.9410000  49.4770000  57.5180000  34.7190000
  48.0670000  57.1320000  32.7270000  46.2720000  56.2570000  33.1850000
  45.4560000  55.2140000  38.0150000  47.6770000  56.2760000  37.7510000
  49.4540000  57.1590000  37.3420000  50.2910000  57.8350000  35.0910000
  49.2980000  57.6200000  33.3310000  47.9110000  57.2510000  31.3350000
  45.6540000  55.1170000  39.3500000  44.6460000  54.8900000  37.6400000
  47.8400000  56.1510000  39.1730000  50.2900000  58.1910000  32.4990000
  48.8860000  57.8170000  30.5250000  47.1090000  56.9340000  30.9340000
  46.8610000  55.5990000  39.9350000  44.9860000  54.7250000  39.9000000
  48.6400000  56.4570000  39.5850000  51.0950000  58.5130000  32.8880000
  50.1110000  58.2920000  31.1240000  48.7230000  57.9420000  29.1030000
  46.9830000  55.5350000  40.8750000  51.1070000  58.8780000  30.2610000
  49.7020000  58.4930000  28.3410000  47.9230000  57.6350000  28.6910000
  50.9090000  58.9760000  28.9260000  51.9170000  59.2020000  30.6360000
  49.5810000  58.5580000  27.4010000  51.5780000  59.3670000  28.3760000
  49.7990000  60.8970000  47.3880000  50.7910000  61.4680000  46.5560000
  48.5680000  60.4090000  46.7830000  49.9780000  60.7950000  48.7750000
  50.6120000  61.5690000  45.1810000  51.5960000  61.7890000  46.9450000
  48.4120000  60.5280000  45.3920000  47.5870000  59.8510000  47.6140000
  48.9970000  60.2370000  49.6060000  50.7920000  61.1120000  49.1480000
  51.6080000  62.1550000  44.3180000  49.3880000  61.0930000  44.5820000
  47.6100000  60.2100000  44.9910000  46.7740000  59.5340000  47.2420000
  47.7660000  59.7490000  49.0020000  49.1540000  60.1180000  50.9980000
  51.4100000  62.2520000  42.9830000  52.4180000  62.4790000  44.6930000
  49.2240000  61.2190000  43.1600000  46.7750000  59.1780000  49.8340000
  48.1780000  59.5530000  51.8070000  49.9550000  60.4360000  51.3980000
  50.2030000  61.7700000  42.3980000  52.0790000  62.6440000  42.4330000
  48.4240000  60.9120000  42.7480000  45.9690000  58.8570000  49.4440000
  46.9530000  59.0770000  51.2090000  48.3420000  59.4270000  53.2300000
  50.0820000  61.8350000  41.4570000  45.9570000  58.4910000  52.0720000
  47.3630000  58.8760000  53.9920000  49.1410000  59.7340000  53.6420000
  46.1550000  58.3940000  53.4070000  45.1470000  58.1670000  51.6960000
  47.4840000  58.8110000  54.9320000  45.4870000  58.0020000  53.9570000
  46.2630000  49.9190000   6.8310000  45.2710000  49.3470000   7.6630000
  47.4940000  50.4070000   7.4360000  46.0830000  50.0210000   5.4440000
  45.4490000  49.2460000   9.0380000  44.4650000  49.0260000   7.2740000
  47.6500000  50.2870000   8.8270000  48.4750000  50.9640000   6.6050000
  47.0640000  50.5780000   4.6130000  45.2700000  49.7040000   5.0710000
  44.4530000  48.6600000   9.9010000  46.6740000  49.7220000   9.6370000
  48.4510000  50.6050000   9.2280000  49.2880000  51.2810000   6.9770000
  48.2950000  51.0660000   5.2170000  46.9080000  50.6980000   3.2210000
  44.6510000  48.5630000  11.2370000  43.6440000  48.3360000   9.5260000
  46.8380000  49.5970000  11.0590000  49.2870000  51.6380000   4.3850000
  47.8840000  51.2630000   2.4120000  46.1070000  50.3800000   2.8210000
  45.8590000  49.0460000  11.8210000  43.9830000  48.1710000  11.7860000
  47.6380000  49.9030000  11.4710000  50.0930000  51.9590000   4.7750000
  49.1090000  51.7390000   3.0110000  47.7200000  51.3880000   0.9890000
  45.9800000  48.9810000  12.7620000  50.1050000  52.3250000   2.1470000
  48.6990000  51.9390000   0.2270000  46.9200000  51.0820000   0.5770000
  49.9070000  52.4220000   0.8120000  50.9140000  52.6490000   2.5230000
  48.5780000  52.0040000  -0.7130000  50.5750000  52.8140000   0.2620000
  43.8510000  16.9550000  63.0580000  42.8590000  16.3830000  63.8910000
  45.0820000  17.4430000  63.6630000  43.6720000  17.0570000  61.6710000
  43.0380000  16.2820000  65.2650000  42.0540000  16.0620000  63.5010000
  45.2380000  17.3230000  65.0550000  46.0630000  18.0000000  62.8320000
  44.6530000  17.6140000  60.8400000  42.8580000  16.7390000  61.2990000
  42.0420000  15.6960000  66.1280000  44.2620000  16.7580000  65.8640000
  46.0400000  17.6410000  65.4550000  46.8770000  18.3170000  63.2050000
  45.8840000  18.1020000  61.4450000  44.4960000  17.7330000  59.4490000
  42.2400000  15.5990000  67.4640000  41.2320000  15.3720000  65.7530000
  44.4260000  16.6330000  67.2870000  46.8760000  18.6730000  60.6130000
  45.4720000  18.2990000  58.6390000  43.6950000  17.4160000  59.0480000
  43.4470000  16.0820000  68.0490000  41.5710000  15.2070000  68.0130000
  45.2260000  16.9390000  67.6990000  47.6810000  18.9950000  61.0020000
  46.6970000  18.7750000  59.2380000  45.3080000  18.4240000  57.2160000
  43.5680000  16.0170000  68.9890000  47.6930000  19.3600000  58.3750000
  46.2870000  18.9750000  56.4550000  44.5090000  18.1170000  56.8050000
  47.4950000  19.4580000  57.0390000  48.5030000  19.6840000  58.7500000
  46.1660000  19.0400000  55.5140000  48.1630000  19.8490000  56.4900000
  44.5870000  24.6330000  63.0580000  43.5950000  24.0620000  63.8910000
  45.8180000  25.1210000  63.6630000  44.4080000  24.7350000  61.6710000
  43.7740000  23.9610000  65.2650000  42.7900000  23.7410000  63.5010000
  45.9740000  25.0020000  65.0550000  46.7990000  25.6790000  62.8320000
  45.3890000  25.2930000  60.8400000  43.5940000  24.4180000  61.2990000
  42.7780000  23.3750000  66.1280000  44.9980000  24.4370000  65.8640000
  46.7760000  25.3190000  65.4550000  47.6130000  25.9960000  63.2050000
  46.6200000  25.7810000  61.4450000  45.2330000  25.4120000  59.4490000
  42.9760000  23.2780000  67.4640000  41.9680000  23.0510000  65.7530000
  45.1620000  24.3110000  67.2870000  47.6120000  26.3520000  60.6130000
  46.2080000  25.9770000  58.6390000  44.4310000  25.0940000  59.0480000
  44.1830000  23.7600000  68.0490000  42.3070000  22.8860000  68.0130000
  45.9620000  24.6180000  67.6990000  48.4170000  26.6730000  61.0020000
  47.4330000  26.4530000  59.2380000  46.0450000  26.1020000  57.2160000
  44.3040000  23.6950000  68.9890000  48.4290000  27.0390000  58.3750000
  47.0240000  26.6540000  56.4550000  45.2450000  25.7960000  56.8050000
  48.2310000  27.1360000  57.0390000  49.2390000  27.3630000  58.7500000
  46.9020000  26.7180000  55.5140000  48.8990000  27.5280000  56.4900000
  46.8550000  30.1820000  47.3880000  47.8470000  30.7540000  46.5560000
  45.6240000  29.6940000  46.7830000  47.0340000  30.0800000  48.7750000
  47.6680000  30.8550000  45.1810000  48.6520000  31.0750000  46.9450000
  45.4670000  29.8140000  45.3920000  44.6430000  29.1370000  47.6140000
  46.0530000  29.5230000  49.6060000  47.8470000  30.3970000  49.1480000
  48.6640000  31.4410000  44.3180000  46.4430000  30.3790000  44.5820000
  44.6660000  29.4960000  44.9910000  43.8290000  28.8200000  47.2420000
  44.8220000  29.0350000  49.0020000  46.2090000  29.4040000  50.9980000
  48.4660000  31.5380000  42.9830000  49.4740000  31.7650000  44.6930000
  46.2790000  30.5040000  43.1600000  43.8300000  28.4630000  49.8340000
  45.2330000  28.8380000  51.8070000  47.0110000  29.7210000  51.3980000
  47.2580000  31.0550000  42.3980000  49.1340000  31.9300000  42.4330000
  45.4800000  30.1980000  42.7480000  43.0250000  28.1420000  49.4440000
  44.0090000  28.3620000  51.2090000  45.3970000  28.7130000  53.2300000
  47.1370000  31.1200000  41.4570000  43.0130000  27.7770000  52.0720000
  44.4180000  28.1620000  53.9920000  46.1970000  29.0190000  53.6420000
  43.2110000  27.6790000  53.4070000  42.2030000  27.4530000  51.6960000
  44.5390000  28.0970000  54.9320000  42.5420000  27.2880000  53.9570000
  45.3230000  32.3120000  63.0580000  44.3310000  31.7400000  63.8910000
  46.5540000  32.8000000  63.6630000  45.1440000  32.4140000  61.6710000
  44.5100000  31.6390000  65.2650000  43.5260000  31.4190000  63.5010000
  46.7110000  32.6800000  65.0550000  47.5350000  33.3570000  62.8320000
  46.1250000  32.9710000  60.8400000  44.3300000  32.0970000  61.2990000
  43.5140000  31.0530000  66.1280000  45.7350000  32.1150000  65.8640000
  47.5120000  32.9980000  65.4550000  48.3490000  33.6740000  63.2050000
  47.3560000  33.4590000  61.4450000  45.9690000  33.0910000  59.4490000
  43.7120000  30.9560000  67.4640000  42.7040000  30.7290000  65.7530000
  45.8980000  31.9900000  67.2870000  48.3480000  34.0310000  60.6130000
  46.9450000  33.6560000  58.6390000  45.1670000  32.7730000  59.0480000
  44.9190000  31.4390000  68.0490000  43.0440000  30.5640000  68.0130000
  46.6980000  32.2960000  67.6990000  49.1530000  34.3520000  61.0020000
  48.1690000  34.1320000  59.2380000  46.7810000  33.7810000  57.2160000
  45.0410000  31.3740000  68.9890000  49.1650000  34.7180000  58.3750000
  47.7600000  34.3320000  56.4550000  45.9810000  33.4750000  56.8050000
  48.9670000  34.8150000  57.0390000  49.9750000  35.0420000  58.7500000
  47.6390000  34.3970000  55.5140000  49.6360000  35.2070000  56.4900000
  49.5640000  56.4950000  61.4450000  50.5560000  57.0660000  60.6130000
  48.3330000  56.0070000  60.8400000  49.7440000  56.3930000  62.8320000
  50.3770000  57.1680000  59.2380000  51.3610000  57.3880000  61.0020000
  48.1770000  56.1260000  59.4490000  47.3520000  55.4500000  61.6710000
  48.7620000  55.8360000  63.6630000  50.5570000  56.7100000  63.2050000
  51.3730000  57.7530000  58.3750000  49.1530000  56.6920000  58.6390000
  47.3760000  55.8090000  59.0480000  46.5390000  55.1320000  61.2990000
  47.5320000  55.3480000  63.0580000  48.9190000  55.7160000  65.0550000
  51.1760000  57.8510000  57.0390000  52.1830000  58.0770000  58.7500000
  48.9890000  56.8170000  57.2160000  46.5400000  54.7760000  63.8910000
  47.9430000  55.1510000  65.8640000  49.7200000  56.0340000  65.4550000
  49.9680000  57.3680000  56.4550000  51.8440000  58.2420000  56.4900000
  48.1890000  56.5100000  56.8050000  45.7340000  54.4550000  63.5010000
  46.7180000  54.6750000  65.2650000  48.1070000  55.0260000  67.2870000
  49.8470000  57.4330000  55.5140000  45.7220000  54.0890000  66.1280000
  47.1280000  54.4750000  68.0490000  48.9070000  55.3320000  67.6990000
  45.9200000  53.9920000  67.4640000  44.9130000  53.7650000  65.7530000
  47.2490000  54.4100000  68.9890000  45.2520000  53.6000000  68.0130000
  48.2680000  63.0260000  63.0580000  47.2760000  62.4550000  63.8910000
  49.4990000  63.5140000  63.6630000  48.0880000  63.1280000  61.6710000
  47.4550000  62.3540000  65.2650000  46.4710000  62.1340000  63.5010000
  49.6550000  63.3950000  65.0550000  50.4800000  64.0720000  62.8320000
  49.0700000  63.6860000  60.8400000  47.2750000  62.8110000  61.2990000
  46.4590000  61.7680000  66.1280000  48.6790000  62.8290000  65.8640000
  50.4560000  63.7120000  65.4550000  51.2930000  64.3890000  63.2050000
  50.3000000  64.1730000  61.4450000  48.9130000  63.8050000  59.4490000
  46.6560000  61.6710000  67.4640000  45.6490000  61.4440000  65.7530000
  48.8430000  62.7040000  67.2870000  51.2920000  64.7450000  60.6130000
  49.8890000  64.3700000  58.6390000  48.1120000  63.4870000  59.0480000
  47.8640000  62.1530000  68.0490000  45.9880000  61.2790000  68.0130000
  49.6430000  63.0110000  67.6990000  52.0980000  65.0660000  61.0020000
  51.1140000  64.8460000  59.2380000  49.7250000  64.4950000  57.2160000
  47.9850000  62.0880000  68.9890000  52.1100000  65.4320000  58.3750000
  50.7040000  65.0470000  56.4550000  48.9250000  64.1890000  56.8050000
  51.9120000  65.5290000  57.0390000  52.9190000  65.7560000  58.7500000
  50.5830000  65.1110000  55.5140000  52.5800000  65.9210000  56.4900000
   7.8820000  54.3050000   5.0320000   8.8670000  54.3000000   4.0130000
   6.6380000  55.0340000   4.8000000   8.0530000  53.6250000   6.2450000
   8.6710000  54.9590000   2.8120000   9.6810000  53.8320000   4.1580000
   6.4680000  55.7110000   3.5760000   5.6620000  55.0390000   5.8040000
   7.0770000  53.6300000   7.2490000   8.8660000  53.1520000   6.3760000
   9.6550000  54.9420000   1.7750000   7.4400000  55.6830000   2.5860000
   5.6670000  56.1980000   3.4240000   4.8490000  55.5110000   5.6730000
   5.8330000  54.3590000   7.0170000   7.2480000  52.9530000   8.4730000
   9.4440000  55.5860000   0.6030000  10.4700000  54.4730000   1.9110000
   7.2680000  56.3430000   1.3320000   4.8490000  54.3640000   8.0360000
   6.2750000  52.9800000   9.4630000   8.0490000  52.4660000   8.6250000
   8.2260000  56.3000000   0.3740000  10.1110000  55.5630000  -0.0730000
   6.4660000  56.8240000   1.1660000   4.0340000  54.8310000   7.8910000
   5.0440000  53.7050000   9.2360000   6.4470000  52.3200000  10.7170000
   8.0880000  56.7450000  -0.4540000   4.0600000  53.7210000  10.2740000
   5.4890000  52.3630000  11.6750000   7.2490000  51.8390000  10.8820000
   4.2710000  53.0780000  11.4460000   3.2450000  54.1900000  10.1370000
   5.6270000  51.9180000  12.5030000   3.6050000  53.1010000  12.1220000
   7.8380000  67.4660000  63.2440000   6.8540000  67.4710000  64.2630000
   9.0820000  66.7370000  63.4760000   7.6670000  68.1460000  62.0310000
   7.0490000  66.8120000  65.4640000   6.0390000  67.9390000  64.1180000
   9.2530000  66.0600000  64.7000000  10.0580000  66.7320000  62.4720000
   8.6430000  68.1410000  61.0270000   6.8540000  68.6190000  61.9000000
   6.0650000  66.8290000  66.5010000   8.2800000  66.0880000  65.6900000
  10.0540000  65.5730000  64.8520000  10.8720000  66.2590000  62.6030000
   9.8870000  67.4120000  61.2590000   8.4730000  68.8180000  59.8030000
   6.2760000  66.1850000  67.6730000   5.2500000  67.2980000  66.3650000
   8.4520000  65.4280000  66.9440000  10.8720000  67.4070000  60.2400000
   9.4450000  68.7910000  58.8130000   7.6720000  69.3050000  59.6510000
   7.4940000  65.4710000  67.9020000   5.6100000  66.2080000  68.3490000
   9.2540000  64.9470000  67.1100000  11.6860000  66.9390000  60.3850000
  10.6760000  68.0660000  59.0400000   9.2740000  69.4510000  57.5590000
   7.6330000  65.0260000  68.7300000  11.6600000  68.0500000  58.0020000
  10.2310000  69.4080000  56.6010000   8.4710000  69.9320000  57.3940000
  11.4490000  68.6930000  56.8300000  12.4750000  67.5810000  58.1390000
  10.0930000  69.8530000  55.7730000  12.1160000  68.6700000  56.1540000
   6.3340000  57.6360000  21.0740000   5.3500000  57.6410000  22.0930000
   7.5780000  56.9070000  21.3060000   6.1640000  58.3160000  19.8600000
   5.5460000  56.9810000  23.2930000   4.5360000  58.1080000  21.9480000
   7.7490000  56.2300000  22.5300000   8.5540000  56.9010000  20.3020000
   7.1390000  58.3110000  18.8570000   5.3500000  58.7880000  19.7300000
   4.5610000  56.9980000  24.3310000   6.7760000  56.2570000  23.5190000
   8.5500000  55.7420000  22.6820000   9.3680000  56.4290000  20.4330000
   8.3840000  57.5820000  19.0890000   6.9690000  58.9870000  17.6320000
   4.7720000  56.3550000  25.5030000   3.7470000  57.4670000  24.1940000
   6.9480000  55.5970000  24.7730000   9.3680000  57.5770000  18.0700000
   7.9420000  58.9600000  16.6430000   6.1680000  59.4750000  17.4810000
   5.9900000  55.6400000  25.7320000   4.1060000  56.3780000  26.1790000
   7.7510000  55.1160000  24.9390000  10.1820000  57.1090000  18.2140000
   9.1720000  58.2360000  16.8690000   7.7700000  59.6200000  15.3890000
   6.1290000  55.1950000  26.5600000  10.1560000  58.2190000  15.8320000
   8.7270000  59.5770000  14.4300000   6.9670000  60.1010000  15.2230000
   9.9450000  58.8630000  14.6590000  10.9710000  57.7500000  15.9680000
   8.5890000  60.0220000  13.6020000  10.6120000  58.8390000  13.9830000
   6.8350000  60.9130000  35.1300000   5.8510000  60.9170000  36.1500000
   8.0800000  60.1830000  35.3620000   6.6650000  61.5930000  33.9170000
   6.0470000  60.2580000  37.3500000   5.0370000  61.3850000  36.0050000
   8.2500000  59.5070000  36.5870000   9.0550000  60.1780000  34.3590000
   7.6410000  61.5880000  32.9140000   5.8510000  62.0650000  33.7870000
   5.0630000  60.2750000  38.3870000   7.2770000  59.5340000  37.5760000
   9.0510000  59.0190000  36.7380000   9.8690000  59.7060000  34.4890000
   8.8850000  60.8580000  33.1460000   7.4700000  62.2640000  31.6890000
   5.2740000  59.6320000  39.5600000   4.2480000  60.7440000  38.2510000
   7.4490000  58.8740000  38.8300000   9.8690000  60.8530000  32.1260000
   8.4430000  62.2370000  30.7000000   6.6690000  62.7520000  31.5370000
   6.4920000  58.9170000  39.7890000   4.6070000  59.6550000  40.2360000
   8.2520000  58.3930000  38.9960000  10.6830000  60.3860000  32.2710000
   9.6730000  61.5130000  30.9260000   8.2710000  62.8970000  29.4460000
   6.6300000  58.4720000  40.6170000  10.6580000  61.4960000  29.8890000
   9.2290000  62.8540000  28.4870000   7.4680000  63.3780000  29.2800000
  10.4470000  62.1390000  28.7160000  11.4720000  61.0270000  30.0250000
   9.0900000  63.2990000  27.6590000  11.1130000  62.1160000  28.0400000
   9.3860000  64.1350000  47.2020000  10.3700000  64.1300000  46.1830000
   8.1420000  64.8640000  46.9700000   9.5570000  63.4550000  48.4150000
  10.1750000  64.7900000  44.9830000  11.1850000  63.6630000  46.3280000
   7.9720000  65.5410000  45.7460000   7.1660000  64.8700000  47.9740000
   8.5810000  63.4600000  49.4190000  10.3700000  62.9830000  48.5460000
  11.1590000  64.7730000  43.9450000   8.9440000  65.5140000  44.7560000
   7.1700000  66.0290000  45.5940000   6.3530000  65.3420000  47.8430000
   7.3370000  64.1890000  49.1870000   8.7510000  62.7840000  50.6430000
  10.9480000  65.4160000  42.7730000  11.9740000  64.3040000  44.0820000
   8.7720000  66.1740000  43.5030000   6.3520000  64.1940000  50.2060000
   7.7790000  62.8110000  51.6330000   9.5520000  62.2960000  50.7950000
   9.7300000  66.1310000  42.5440000  11.6140000  65.3930000  42.0970000
   7.9700000  66.6550000  43.3370000   5.5380000  64.6620000  50.0620000
   6.5480000  63.5350000  51.4070000   7.9510000  62.1510000  52.8870000
   9.5920000  66.5760000  41.7160000   5.5640000  63.5520000  52.4440000
   6.9930000  62.1940000  53.8460000   8.7530000  61.6700000  53.0530000
   5.7750000  62.9080000  53.6170000   4.7490000  64.0210000  52.3080000
   7.1310000  61.7490000  54.6740000   5.1080000  62.9320000  54.2930000
   6.6760000  37.8230000  33.1460000   7.6610000  37.8180000  32.1260000
   5.4320000  38.5520000  32.9140000   6.8470000  37.1430000  34.3590000
   7.4650000  38.4770000  30.9260000   8.4750000  37.3500000  32.2710000
   5.2620000  39.2280000  31.6890000   4.4570000  38.5570000  33.9170000
   5.8710000  37.1480000  35.3620000   7.6610000  36.6700000  34.4890000
   8.4490000  38.4600000  29.8890000   6.2340000  39.2010000  30.7000000
   4.4610000  39.7160000  31.5370000   3.6430000  39.0290000  33.7870000
   4.6270000  37.8770000  35.1300000   6.0420000  36.4710000  36.5870000
   8.2380000  39.1040000  28.7160000   9.2640000  37.9910000  30.0250000
   6.0630000  39.8610000  29.4460000   3.6430000  37.8820000  36.1500000
   5.0690000  36.4980000  37.5760000   6.8430000  35.9830000  36.7380000
   7.0200000  39.8180000  28.4870000   8.9050000  39.0800000  28.0400000
   5.2600000  40.3420000  29.2800000   2.8280000  38.3490000  36.0050000
   3.8380000  37.2220000  37.3500000   5.2410000  35.8380000  38.8300000
   6.8820000  40.2630000  27.6590000   2.8540000  37.2390000  38.3870000
   4.2830000  35.8810000  39.7890000   6.0440000  35.3570000  38.9960000
   3.0650000  36.5960000  39.5600000   2.0390000  37.7080000  38.2510000
   4.4220000  35.4360000  40.6170000   2.3990000  36.6190000  40.2360000
   5.3630000  45.5550000  35.1300000   4.3790000  45.5600000  36.1500000
   6.6070000  44.8260000  35.3620000   5.1930000  46.2350000  33.9170000
   4.5750000  44.9010000  37.3500000   3.5650000  46.0280000  36.0050000
   6.7780000  44.1500000  36.5870000   7.5830000  44.8210000  34.3590000
   6.1680000  46.2300000  32.9140000   4.3790000  46.7080000  33.7870000
   3.5900000  44.9180000  38.3870000   5.8050000  44.1770000  37.5760000
   7.5790000  43.6620000  36.7380000   8.3970000  44.3490000  34.4890000
   7.4130000  45.5010000  33.1460000   5.9980000  46.9070000  31.6890000
   3.8020000  44.2740000  39.5600000   2.7760000  45.3870000  38.2510000
   5.9770000  43.5170000  38.8300000   8.3970000  45.4960000  32.1260000
   6.9710000  46.8800000  30.7000000   5.1970000  47.3950000  31.5370000
   5.0190000  43.5600000  39.7890000   3.1350000  44.2980000  40.2360000
   6.7800000  43.0360000  38.9960000   9.2110000  45.0290000  32.2710000
   8.2010000  46.1560000  30.9260000   6.7990000  47.5400000  29.4460000
   5.1580000  43.1150000  40.6170000   9.1850000  46.1390000  29.8890000
   7.7560000  47.4970000  28.4870000   5.9960000  48.0210000  29.2800000
   8.9740000  46.7820000  28.7160000  10.0000000  45.6700000  30.0250000
   7.6180000  47.9420000  27.6590000   9.6410000  46.7590000  28.0400000
   3.4660000   8.2330000   5.0320000   4.4500000   8.2280000   4.0130000
   2.2210000   8.9620000   4.8000000   3.6360000   7.5530000   6.2450000
   4.2540000   8.8870000   2.8120000   5.2640000   7.7610000   4.1580000
   2.0510000   9.6390000   3.5760000   1.2460000   8.9670000   5.8040000
   2.6600000   7.5580000   7.2490000   4.4500000   7.0810000   6.3760000
   5.2380000   8.8710000   1.7750000   3.0240000   9.6120000   2.5860000
   1.2500000  10.1270000   3.4240000   0.4320000   9.4400000   5.6730000
   1.4160000   8.2870000   7.0170000   2.8310000   6.8810000   8.4730000
   5.0270000   9.5140000   0.6030000   6.0530000   8.4020000   1.9110000
   2.8520000  10.2720000   1.3320000   0.4320000   8.2920000   8.0360000
   1.8580000   6.9090000   9.4630000   3.6320000   6.3940000   8.6250000
   3.8090000  10.2290000   0.3740000   5.6940000   9.4910000  -0.0730000
   2.0490000  10.7530000   1.1660000  -0.3820000   8.7600000   7.8910000
   0.6280000   7.6330000   9.2360000   2.0300000   6.2490000  10.7170000
   3.6710000  10.6740000  -0.4540000  -0.3570000   7.6500000  10.2740000
   1.0720000   6.2920000  11.6750000   2.8330000   5.7680000  10.8820000
  -0.1450000   7.0060000  11.4460000  -1.1710000   8.1190000  10.1370000
   1.2110000   5.8470000  12.5030000  -0.8120000   7.0300000  12.1220000
   2.9200000  18.1180000  49.1870000   1.9360000  18.1230000  50.2060000
   4.1640000  17.3890000  49.4190000   2.7490000  18.7980000  47.9740000
   2.1310000  17.4630000  51.4070000   1.1210000  18.5900000  50.0620000
   4.3350000  16.7120000  50.6430000   5.1400000  17.3840000  48.4150000
   3.7250000  18.7930000  46.9700000   1.9360000  19.2700000  47.8430000
   1.1470000  17.4800000  52.4440000   3.3620000  16.7390000  51.6330000
   5.1360000  16.2240000  50.7950000   5.9540000  16.9110000  48.5460000
   4.9690000  18.0640000  47.2020000   3.5550000  19.4700000  45.7460000
   1.3580000  16.8370000  53.6170000   0.3320000  17.9490000  52.3080000
   3.5340000  16.0790000  52.8870000   5.9540000  18.0590000  46.1830000
   4.5270000  19.4420000  44.7560000   2.7540000  19.9570000  45.5940000
   2.5760000  16.1220000  53.8460000   0.6920000  16.8600000  54.2930000
   4.3360000  15.5980000  53.0530000   6.7680000  17.5910000  46.3280000
   5.7580000  18.7180000  44.9830000   4.3560000  20.1020000  43.5030000
   2.7150000  15.6770000  54.6740000   6.7420000  18.7010000  43.9450000
   5.3130000  20.0590000  42.5440000   3.5530000  20.5830000  43.3370000
   6.5310000  19.3450000  42.7730000   7.5570000  18.2320000  44.0820000
   5.1750000  20.5040000  41.7160000   7.1980000  19.3210000  42.0970000
   2.4190000  14.8410000  35.1300000   1.4340000  14.8460000  36.1500000
   3.6630000  14.1120000  35.3620000   2.2480000  15.5210000  33.9170000
   1.6300000  14.1870000  37.3500000   0.6200000  15.3140000  36.0050000
   3.8330000  13.4350000  36.5870000   4.6390000  14.1070000  34.3590000
   3.2240000  15.5160000  32.9140000   1.4350000  15.9940000  33.7870000
   0.6460000  14.2040000  38.3870000   2.8610000  13.4620000  37.5760000
   4.6350000  12.9480000  36.7380000   5.4520000  13.6340000  34.4890000
   4.4680000  14.7870000  33.1460000   3.0540000  16.1930000  31.6890000
   0.8570000  13.5600000  39.5600000  -0.1690000  14.6720000  38.2510000
   3.0330000  12.8020000  38.8300000   5.4520000  14.7820000  32.1260000
   4.0260000  16.1650000  30.7000000   2.2520000  16.6800000  31.5370000
   2.0750000  12.8460000  39.7890000   0.1910000  13.5830000  40.2360000
   3.8350000  12.3210000  38.9960000   6.2670000  14.3140000  32.2710000
   5.2570000  15.4410000  30.9260000   3.8540000  16.8250000  29.4460000
   2.2130000  12.4000000  40.6170000   6.2410000  15.4240000  29.8890000
   4.8120000  16.7820000  28.4870000   3.0520000  17.3070000  29.2800000
   6.0300000  16.0680000  28.7160000   7.0560000  14.9550000  30.0250000
   4.6740000  17.2270000  27.6590000   6.6960000  16.0450000  28.0400000
   3.1550000  22.5200000  35.1300000   2.1710000  22.5250000  36.1500000
   4.3990000  21.7900000  35.3620000   2.9840000  23.2000000  33.9170000
   2.3660000  21.8650000  37.3500000   1.3560000  22.9920000  36.0050000
   4.5690000  21.1140000  36.5870000   5.3750000  21.7850000  34.3590000
   3.9600000  23.1950000  32.9140000   2.1710000  23.6720000  33.7870000
   1.3820000  21.8820000  38.3870000   3.5970000  21.1410000  37.5760000
   5.3710000  20.6260000  36.7380000   6.1880000  21.3130000  34.4890000
   5.2040000  22.4650000  33.1460000   3.7900000  23.8710000  31.6890000
   1.5930000  21.2390000  39.5600000   0.5670000  22.3510000  38.2510000
   3.7690000  20.4810000  38.8300000   6.1890000  22.4610000  32.1260000
   4.7620000  23.8440000  30.7000000   2.9880000  24.3590000  31.5370000
   2.8110000  20.5240000  39.7890000   0.9270000  21.2620000  40.2360000
   4.5710000  20.0000000  38.9960000   7.0030000  21.9930000  32.2710000
   5.9930000  23.1200000  30.9260000   4.5900000  24.5040000  29.4460000
   2.9490000  20.0790000  40.6170000   6.9770000  23.1030000  29.8890000
   5.5480000  24.4610000  28.4870000   3.7880000  24.9850000  29.2800000
   6.7660000  23.7460000  28.7160000   7.7920000  22.6340000  30.0250000
   5.4100000  24.9060000  27.6590000   7.4320000  23.7230000  28.0400000
   3.6560000  25.7960000  49.1870000   2.6720000  25.8010000  50.2060000
   4.9000000  25.0670000  49.4190000   3.4860000  26.4770000  47.9740000
   2.8670000  25.1420000  51.4070000   1.8580000  26.2690000  50.0620000
   5.0710000  24.3910000  50.6430000   5.8760000  25.0620000  48.4150000
   4.4610000  26.4710000  46.9700000   2.6720000  26.9490000  47.8430000
   1.8830000  25.1590000  52.4440000   4.0980000  24.4180000  51.6330000
   5.8720000  23.9030000  50.7950000   6.6900000  24.5900000  48.5460000
   5.7050000  25.7420000  47.2020000   4.2910000  27.1480000  45.7460000
   2.0940000  24.5150000  53.6170000   1.0690000  25.6280000  52.3080000
   4.2700000  23.7580000  52.8870000   6.6900000  25.7370000  46.1830000
   5.2630000  27.1210000  44.7560000   3.4900000  27.6360000  45.5940000
   3.3120000  23.8010000  53.8460000   1.4280000  24.5390000  54.2930000
   5.0730000  23.2770000  53.0530000   7.5040000  25.2700000  46.3280000
   6.4940000  26.3970000  44.9830000   5.0920000  27.7810000  43.5030000
   3.4510000  23.3560000  54.6740000   7.4780000  26.3800000  43.9450000
   6.0490000  27.7380000  42.5440000   4.2890000  28.2620000  43.3370000
   7.2670000  27.0230000  42.7730000   8.2930000  25.9110000  44.0820000
   5.9110000  28.1830000  41.7160000   7.9340000  27.0000000  42.0970000
   3.3900000  26.9210000  21.0740000   2.4050000  26.9260000  22.0930000
   4.6340000  26.1920000  21.3060000   3.2190000  27.6010000  19.8600000
   2.6010000  26.2670000  23.2930000   1.5910000  27.3940000  21.9480000
   4.8040000  25.5160000  22.5300000   5.6100000  26.1870000  20.3020000
   4.1950000  27.5960000  18.8570000   2.4060000  28.0740000  19.7300000
   1.6170000  26.2840000  24.3310000   3.8320000  25.5430000  23.5190000
   5.6050000  25.0280000  22.6820000   6.4230000  25.7150000  20.4330000
   5.4390000  26.8670000  19.0890000   4.0250000  28.2730000  17.6320000
   1.8280000  25.6400000  25.5030000   0.8020000  26.7530000  24.1940000
   4.0040000  24.8830000  24.7730000   6.4230000  26.8620000  18.0700000
   4.9970000  28.2460000  16.6430000   3.2230000  28.7610000  17.4810000
   3.0460000  24.9260000  25.7320000   1.1610000  25.6640000  26.1790000
   4.8060000  24.4020000  24.9390000   7.2380000  26.3950000  18.2140000
   6.2280000  27.5220000  16.8690000   4.8250000  28.9060000  15.3890000
   3.1840000  24.4810000  26.5600000   7.2120000  27.5050000  15.8320000
   5.7830000  28.8630000  14.4300000   4.0230000  29.3870000  15.2230000
   7.0010000  28.1480000  14.6590000   8.0270000  27.0360000  15.9680000
   5.6450000  29.3080000  13.6020000   7.6670000  28.1250000  13.9830000
   4.9380000  23.5900000   5.0320000   5.9220000  23.5850000   4.0130000
   3.6940000  24.3190000   4.8000000   5.1080000  22.9100000   6.2450000
   5.7270000  24.2450000   2.8120000   6.7360000  23.1180000   4.1580000
   3.5230000  24.9960000   3.5760000   2.7180000  24.3250000   5.8040000
   4.1330000  22.9150000   7.2490000   5.9220000  22.4380000   6.3760000
   6.7110000  24.2280000   1.7750000   4.4960000  24.9690000   2.5860000
   2.7220000  25.4840000   3.4240000   1.9040000  24.7970000   5.6730000
   2.8890000  23.6450000   7.0170000   4.3030000  22.2390000   8.4730000
   6.5000000  24.8710000   0.6030000   7.5250000  23.7590000   1.9110000
   4.3240000  25.6290000   1.3320000   1.9040000  23.6490000   8.0360000
   3.3300000  22.2660000   9.4630000   5.1040000  21.7510000   8.6250000
   5.2820000  25.5860000   0.3740000   7.1660000  24.8480000  -0.0730000
   3.5210000  26.1100000   1.1660000   1.0900000  24.1170000   7.8910000
   2.1000000  22.9900000   9.2360000   3.5020000  21.6060000  10.7170000
   5.1430000  26.0310000  -0.4540000   1.1160000  23.0070000  10.2740000
   2.5450000  21.6490000  11.6750000   4.3050000  21.1250000  10.8820000
   1.3270000  22.3640000  11.4460000   0.3010000  23.4760000  10.1370000
   2.6830000  21.2040000  12.5030000   0.6600000  22.3870000  12.1220000
   3.8910000  30.1980000  35.1300000   2.9070000  30.2030000  36.1500000
   5.1350000  29.4690000  35.3620000   3.7200000  30.8780000  33.9170000
   3.1020000  29.5440000  37.3500000   2.0920000  30.6710000  36.0050000
   5.3060000  28.7920000  36.5870000   6.1110000  29.4640000  34.3590000
   4.6960000  30.8730000  32.9140000   2.9070000  31.3510000  33.7870000
   2.1180000  29.5610000  38.3870000   4.3330000  28.8200000  37.5760000
   6.1070000  28.3050000  36.7380000   6.9250000  28.9910000  34.4890000
   5.9400000  30.1440000  33.1460000   4.5260000  31.5500000  31.6890000
   2.3290000  28.9170000  39.5600000   1.3030000  30.0300000  38.2510000
   4.5050000  28.1600000  38.8300000   6.9250000  30.1390000  32.1260000
   5.4980000  31.5230000  30.7000000   3.7250000  32.0370000  31.5370000
   3.5470000  28.2030000  39.7890000   1.6630000  28.9400000  40.2360000
   5.3070000  27.6790000  38.9960000   7.7390000  29.6710000  32.2710000
   6.7290000  30.7980000  30.9260000   5.3270000  32.1830000  29.4460000
   3.6860000  27.7580000  40.6170000   7.7130000  30.7820000  29.8890000
   6.2840000  32.1390000  28.4870000   4.5240000  32.6640000  29.2800000
   7.5020000  31.4250000  28.7160000   8.5280000  30.3130000  30.0250000
   6.1460000  32.5850000  27.6590000   8.1690000  31.4020000  28.0400000
   4.3920000  33.4750000  49.1870000   3.4080000  33.4800000  50.2060000
   5.6360000  32.7460000  49.4190000   4.2220000  34.1550000  47.9740000
   3.6040000  32.8210000  51.4070000   2.5940000  33.9480000  50.0620000
   5.8070000  32.0690000  50.6430000   6.6120000  32.7410000  48.4150000
   5.1970000  34.1500000  46.9700000   3.4080000  34.6280000  47.8430000
   2.6190000  32.8380000  52.4440000   4.8340000  32.0960000  51.6330000
   6.6080000  31.5820000  50.7950000   7.4260000  32.2680000  48.5460000
   6.4420000  33.4210000  47.2020000   5.0270000  34.8270000  45.7460000
   2.8310000  32.1940000  53.6170000   1.8050000  33.3060000  52.3080000
   5.0060000  31.4370000  52.8870000   7.4260000  33.4160000  46.1830000
   6.0000000  34.8000000  44.7560000   4.2260000  35.3140000  45.5940000
   4.0480000  31.4800000  53.8460000   2.1640000  32.2170000  54.2930000
   5.8090000  30.9550000  53.0530000   8.2400000  32.9480000  46.3280000
   7.2300000  34.0750000  44.9830000   5.8280000  35.4590000  43.5030000
   4.1870000  31.0340000  54.6740000   8.2150000  34.0580000  43.9450000
   6.7850000  35.4160000  42.5440000   5.0250000  35.9410000  43.3370000
   8.0030000  34.7020000  42.7730000   9.0290000  33.5890000  44.0820000
   6.6470000  35.8610000  41.7160000   8.6700000  34.6790000  42.0970000
   4.8940000  36.7520000  63.2440000   3.9090000  36.7570000  64.2630000
   6.1380000  36.0230000  63.4760000   4.7230000  37.4320000  62.0310000
   4.1050000  36.0980000  65.4640000   3.0950000  37.2240000  64.1180000
   6.3080000  35.3460000  64.7000000   7.1130000  36.0180000  62.4720000
   5.6990000  37.4270000  61.0270000   3.9090000  37.9040000  61.9000000
   3.1210000  36.1140000  66.5010000   5.3350000  35.3730000  65.6900000
   7.1090000  34.8580000  64.8520000   7.9270000  35.5450000  62.6030000
   6.9430000  36.6980000  61.2590000   5.5280000  38.1040000  59.8030000
   3.3320000  35.4710000  67.6730000   2.3060000  36.5830000  66.3650000
   5.5070000  34.7130000  66.9440000   7.9270000  36.6930000  60.2400000
   6.5010000  38.0760000  58.8130000   4.7270000  38.5910000  59.6510000
   4.5500000  34.7560000  67.9020000   2.6650000  35.4940000  68.3490000
   6.3100000  34.2320000  67.1100000   8.7410000  36.2250000  60.3850000
   7.7320000  37.3520000  59.0400000   6.3290000  38.7360000  57.5590000
   4.6880000  34.3110000  68.7300000   8.7160000  37.3350000  58.0020000
   7.2870000  38.6930000  56.6010000   5.5260000  39.2170000  57.3940000
   8.5050000  37.9790000  56.8300000   9.5300000  36.8660000  58.1390000
   7.1480000  39.1380000  55.7730000   9.1710000  37.9550000  56.1540000
   4.1260000  34.6000000  21.0740000   3.1420000  34.6050000  22.0930000
   5.3700000  33.8710000  21.3060000   3.9550000  35.2800000  19.8600000
   3.3370000  33.9460000  23.2930000   2.3270000  35.0730000  21.9480000
   5.5400000  33.1940000  22.5300000   6.3460000  33.8660000  20.3020000
   4.9310000  35.2750000  18.8570000   3.1420000  35.7530000  19.7300000
   2.3530000  33.9620000  24.3310000   4.5680000  33.2210000  23.5190000
   6.3420000  32.7070000  22.6820000   7.1590000  33.3930000  20.4330000
   6.1750000  34.5460000  19.0890000   4.7610000  35.9520000  17.6320000
   2.5640000  33.3190000  25.5030000   1.5380000  34.4310000  24.1940000
   4.7400000  32.5610000  24.7730000   7.1600000  34.5410000  18.0700000
   5.7330000  35.9240000  16.6430000   3.9590000  36.4390000  17.4810000
   3.7820000  32.6040000  25.7320000   1.8980000  33.3420000  26.1790000
   5.5420000  32.0800000  24.9390000   7.9740000  34.0730000  18.2140000
   6.9640000  35.2000000  16.8690000   5.5610000  36.5840000  15.3890000
   3.9200000  32.1590000  26.5600000   7.9480000  35.1830000  15.8320000
   6.5190000  36.5410000  14.4300000   4.7590000  37.0650000  15.2230000
   7.7370000  35.8270000  14.6590000   8.7630000  34.7140000  15.9680000
   6.3810000  36.9860000  13.6020000   8.4030000  35.8040000  13.9830000
   5.6740000  31.2690000   5.0320000   6.6580000  31.2640000   4.0130000
   4.4300000  31.9980000   4.8000000   5.8440000  30.5890000   6.2450000
   6.4630000  31.9230000   2.8120000   7.4730000  30.7960000   4.1580000
   4.2590000  32.6750000   3.5760000   3.4540000  32.0030000   5.8040000
   4.8690000  30.5940000   7.2490000   6.6580000  30.1160000   6.3760000
   7.4470000  31.9060000   1.7750000   5.2320000  32.6480000   2.5860000
   3.4580000  33.1620000   3.4240000   2.6400000  32.4760000   5.6730000
   3.6250000  31.3230000   7.0170000   5.0390000  29.9170000   8.4730000
   7.2360000  32.5500000   0.6030000   8.2620000  31.4380000   1.9110000
   5.0600000  33.3070000   1.3320000   2.6400000  31.3280000   8.0360000
   4.0670000  29.9440000   9.4630000   5.8400000  29.4300000   8.6250000
   6.0180000  33.2640000   0.3740000   7.9020000  32.5270000  -0.0730000
   4.2580000  33.7890000   1.1660000   1.8260000  31.7960000   7.8910000
   2.8360000  30.6690000   9.2360000   4.2380000  29.2850000  10.7170000
   5.8790000  33.7100000  -0.4540000   1.8520000  30.6860000  10.2740000
   3.2810000  29.3280000  11.6750000   5.0410000  28.8030000  10.8820000
   2.0630000  30.0420000  11.4460000   1.0370000  31.1540000  10.1370000
   3.4190000  28.8830000  12.5030000   1.3960000  30.0650000  12.1220000
   5.1280000  41.1540000  49.1870000   4.1440000  41.1590000  50.2060000
   6.3730000  40.4240000  49.4190000   4.9580000  41.8340000  47.9740000
   4.3400000  40.4990000  51.4070000   3.3300000  41.6260000  50.0620000
   6.5430000  39.7480000  50.6430000   7.3480000  40.4190000  48.4150000
   5.9340000  41.8290000  46.9700000   4.1440000  42.3060000  47.8430000
   3.3550000  40.5160000  52.4440000   5.5700000  39.7750000  51.6330000
   7.3440000  39.2600000  50.7950000   8.1620000  39.9470000  48.5460000
   7.1780000  41.0990000  47.2020000   5.7630000  42.5050000  45.7460000
   3.5670000  39.8730000  53.6170000   2.5410000  40.9850000  52.3080000
   5.7420000  39.1150000  52.8870000   8.1620000  41.0950000  46.1830000
   6.7360000  42.4780000  44.7560000   4.9620000  42.9930000  45.5940000
   4.7850000  39.1580000  53.8460000   2.9000000  39.8960000  54.2930000
   6.5450000  38.6340000  53.0530000   8.9760000  40.6270000  46.3280000
   7.9660000  41.7540000  44.9830000   6.5640000  43.1380000  43.5030000
   4.9230000  38.7130000  54.6740000   8.9510000  41.7370000  43.9450000
   7.5220000  43.0950000  42.5440000   5.7610000  43.6190000  43.3370000
   8.7390000  42.3800000  42.7730000   9.7650000  41.2680000  44.0820000
   7.3830000  43.5400000  41.7160000   9.4060000  42.3570000  42.0970000
   6.9110000  42.2240000  19.0890000   7.8960000  42.2190000  18.0700000
   5.6670000  42.9540000  18.8570000   7.0820000  41.5440000  20.3020000
   7.7000000  42.8790000  16.8690000   8.7100000  41.7520000  18.2140000
   5.4970000  43.6300000  17.6320000   4.6910000  42.9590000  19.8600000
   6.1060000  41.5490000  21.3060000   7.8960000  41.0720000  20.4330000
   8.6840000  42.8620000  15.8320000   6.4690000  43.6030000  16.6430000
   4.6960000  44.1180000  17.4810000   3.8780000  43.4310000  19.7300000
   4.8620000  42.2790000  21.0740000   6.2770000  40.8730000  22.5300000
   8.4730000  43.5050000  14.6590000   9.4990000  42.3930000  15.9680000
   6.2980000  44.2630000  15.3890000   3.8780000  42.2830000  22.0930000
   5.3040000  40.9000000  23.5190000   7.0780000  40.3850000  22.6820000
   7.2550000  44.2200000  14.4300000   9.1400000  43.4820000  13.9830000
   5.4950000  44.7440000  15.2230000   3.0630000  42.7510000  21.9480000
   4.0730000  41.6240000  23.2930000   5.4760000  40.2400000  24.7730000
   7.1170000  44.6650000  13.6020000   3.0890000  41.6410000  24.3310000
   4.5180000  40.2830000  25.7320000   6.2780000  39.7590000  24.9390000
   3.3000000  40.9980000  25.5030000   2.2740000  42.1100000  24.1940000
   4.6570000  39.8380000  26.5600000   2.6340000  41.0210000  26.1790000
   4.3610000  39.0020000   7.0170000   3.3760000  39.0070000   8.0360000
   5.6050000  38.2730000   7.2490000   4.1900000  39.6820000   5.8040000
   3.5720000  38.3470000   9.2360000   2.5620000  39.4740000   7.8910000
   5.7750000  37.5960000   8.4730000   6.5810000  38.2670000   6.2450000
   5.1660000  39.6770000   4.8000000   3.3770000  40.1540000   5.6730000
   2.5880000  38.3640000  10.2740000   4.8030000  37.6230000   9.4630000
   6.5760000  37.1080000   8.6250000   7.3940000  37.7950000   6.3760000
   6.4100000  38.9480000   5.0320000   4.9950000  40.3530000   3.5760000
   2.7990000  37.7210000  11.4460000   1.7730000  38.8330000  10.1370000
   4.9750000  36.9630000  10.7170000   7.3940000  38.9430000   4.0130000
   5.9680000  40.3260000   2.5860000   4.1940000  40.8410000   3.4240000
   4.0170000  37.0060000  11.6750000   2.1320000  37.7440000  12.1220000
   5.7770000  36.4820000  10.8820000   8.2090000  38.4750000   4.1580000
   7.1990000  39.6020000   2.8120000   5.7960000  40.9860000   1.3320000
   4.1550000  36.5610000  12.5030000   8.1830000  39.5850000   1.7750000
   6.7540000  40.9430000   0.3740000   4.9940000  41.4670000   1.1660000
   7.9720000  40.2290000   0.6030000   8.9980000  39.1160000   1.9110000
   6.6150000  41.3880000  -0.4540000   8.6380000  40.2050000  -0.0730000
   5.8650000  48.8320000  49.1870000   4.8800000  48.8370000  50.2060000
   7.1090000  48.1030000  49.4190000   5.6940000  49.5120000  47.9740000
   5.0760000  48.1780000  51.4070000   4.0660000  49.3050000  50.0620000
   7.2790000  47.4260000  50.6430000   8.0840000  48.0980000  48.4150000
   6.6700000  49.5070000  46.9700000   4.8800000  49.9850000  47.8430000
   4.0920000  48.1950000  52.4440000   6.3060000  47.4540000  51.6330000
   8.0800000  46.9390000  50.7950000   8.8980000  47.6250000  48.5460000
   7.9140000  48.7780000  47.2020000   6.4990000  50.1840000  45.7460000
   4.3030000  47.5510000  53.6170000   3.2770000  48.6640000  52.3080000
   6.4780000  46.7940000  52.8870000   8.8980000  48.7730000  46.1830000
   7.4720000  50.1570000  44.7560000   5.6980000  50.6710000  45.5940000
   5.5210000  46.8370000  53.8460000   3.6360000  47.5740000  54.2930000
   7.2810000  46.3130000  53.0530000   9.7120000  48.3050000  46.3280000
   8.7030000  49.4320000  44.9830000   7.3000000  50.8170000  43.5030000
   5.6590000  46.3920000  54.6740000   9.6870000  49.4160000  43.9450000
   8.2580000  50.7740000  42.5440000   6.4970000  51.2980000  43.3370000
   9.4760000  50.0590000  42.7730000  10.5010000  48.9470000  44.0820000
   8.1190000  51.2190000  41.7160000  10.1420000  50.0360000  42.0970000
   6.6010000  56.5110000  49.1870000   5.6160000  56.5160000  50.2060000
   7.8450000  55.7820000  49.4190000   6.4300000  57.1910000  47.9740000
   5.8120000  55.8560000  51.4070000   4.8020000  56.9830000  50.0620000
   8.0150000  55.1050000  50.6430000   8.8200000  55.7770000  48.4150000
   7.4060000  57.1860000  46.9700000   5.6160000  57.6630000  47.8430000
   4.8280000  55.8730000  52.4440000   7.0430000  55.1320000  51.6330000
   8.8160000  54.6170000  50.7950000   9.6340000  55.3040000  48.5460000
   8.6500000  56.4570000  47.2020000   7.2350000  57.8620000  45.7460000
   5.0390000  55.2300000  53.6170000   4.0130000  56.3420000  52.3080000
   7.2140000  54.4720000  52.8870000   9.6340000  56.4520000  46.1830000
   8.2080000  57.8350000  44.7560000   6.4340000  58.3500000  45.5940000
   6.2570000  54.5150000  53.8460000   4.3720000  55.2530000  54.2930000
   8.0170000  53.9910000  53.0530000  10.4490000  55.9840000  46.3280000
   9.4390000  57.1110000  44.9830000   8.0360000  58.4950000  43.5030000
   6.3950000  54.0700000  54.6740000  10.4230000  57.0940000  43.9450000
   8.9940000  58.4520000  42.5440000   7.2340000  58.9760000  43.3370000
  10.2120000  57.7380000  42.7730000  11.2380000  56.6250000  44.0820000
   8.8550000  58.8970000  41.7160000  10.8780000  57.7140000  42.0970000
   6.0990000  53.2340000  35.1300000   5.1150000  53.2390000  36.1500000
   7.3430000  52.5050000  35.3620000   5.9290000  53.9140000  33.9170000
   5.3110000  52.5800000  37.3500000   4.3010000  53.7070000  36.0050000
   7.5140000  51.8280000  36.5870000   8.3190000  52.5000000  34.3590000
   6.9050000  53.9090000  32.9140000   5.1150000  54.3870000  33.7870000
   4.3260000  52.5960000  38.3870000   6.5410000  51.8550000  37.5760000
   8.3150000  51.3410000  36.7380000   9.1330000  52.0270000  34.4890000
   8.1490000  53.1800000  33.1460000   6.7340000  54.5860000  31.6890000
   4.5380000  51.9530000  39.5600000   3.5120000  53.0650000  38.2510000
   6.7130000  51.1950000  38.8300000   9.1330000  53.1750000  32.1260000
   7.7070000  54.5580000  30.7000000   5.9330000  55.0730000  31.5370000
   5.7550000  51.2390000  39.7890000   3.8710000  51.9760000  40.2360000
   7.5160000  50.7140000  38.9960000   9.9470000  52.7070000  32.2710000
   8.9370000  53.8340000  30.9260000   7.5350000  55.2180000  29.4460000
   5.8940000  50.7930000  40.6170000   9.9220000  53.8170000  29.8890000
   8.4930000  55.1750000  28.4870000   6.7320000  55.6990000  29.2800000
   9.7100000  54.4610000  28.7160000  10.7360000  53.3480000  30.0250000
   8.3540000  55.6200000  27.6590000  10.3770000  54.4380000  28.0400000
   7.1460000  46.6260000   5.0320000   8.1300000  46.6210000   4.0130000
   5.9020000  47.3550000   4.8000000   7.3170000  45.9460000   6.2450000
   7.9350000  47.2800000   2.8120000   8.9450000  46.1540000   4.1580000
   5.7320000  48.0320000   3.5760000   4.9260000  47.3600000   5.8040000
   6.3410000  45.9510000   7.2490000   8.1300000  45.4740000   6.3760000
   8.9190000  47.2640000   1.7750000   6.7040000  48.0050000   2.5860000
   4.9300000  48.5200000   3.4240000   4.1130000  47.8330000   5.6730000
   5.0970000  46.6800000   7.0170000   6.5110000  45.2740000   8.4730000
   8.7080000  47.9070000   0.6030000   9.7340000  46.7950000   1.9110000
   6.5320000  48.6650000   1.3320000   4.1120000  46.6850000   8.0360000
   5.5390000  45.3020000   9.4630000   7.3130000  44.7870000   8.6250000
   7.4900000  48.6220000   0.3740000   9.3740000  47.8840000  -0.0730000
   5.7300000  49.1460000   1.1660000   3.2980000  47.1530000   7.8910000
   4.3080000  46.0260000   9.2360000   5.7110000  44.6420000  10.7170000
   7.3520000  49.0670000  -0.4540000   3.3240000  46.0430000  10.2740000
   4.7530000  44.6850000  11.6750000   6.5130000  44.1610000  10.8820000
   3.5350000  45.3990000  11.4460000   2.5090000  46.5120000  10.1370000
   4.8910000  44.2400000  12.5030000   2.8690000  45.4230000  12.1220000
   3.9670000  11.5100000  19.0890000   4.9510000  11.5050000  18.0700000
   2.7230000  12.2390000  18.8570000   4.1370000  10.8300000  20.3020000
   4.7560000  12.1640000  16.8690000   5.7650000  11.0370000  18.2140000
   2.5520000  12.9160000  17.6320000   1.7470000  12.2440000  19.8600000
   3.1620000  10.8350000  21.3060000   4.9510000  10.3570000  20.4330000
   5.7400000  12.1470000  15.8320000   3.5250000  12.8890000  16.6430000
   1.7510000  13.4030000  17.4810000   0.9330000  12.7170000  19.7300000
   1.9180000  11.5640000  21.0740000   3.3320000  10.1580000  22.5300000
   5.5290000  12.7910000  14.6590000   6.5540000  11.6790000  15.9680000
   3.3530000  13.5480000  15.3890000   0.9330000  11.5690000  22.0930000
   2.3590000  10.1860000  23.5190000   4.1330000   9.6710000  22.6820000
   4.3110000  13.5050000  14.4300000   6.1950000  12.7680000  13.9830000
   2.5500000  14.0300000  15.2230000   0.1190000  12.0370000  21.9480000
   1.1290000  10.9100000  23.2930000   2.5310000   9.5260000  24.7730000
   4.1720000  13.9510000  13.6020000   0.1450000  10.9270000  24.3310000
   1.5740000   9.5690000  25.7320000   3.3340000   9.0440000  24.9390000
   0.3560000  10.2830000  25.5030000  -0.6700000  11.3960000  24.1940000
   1.7120000   9.1240000  26.5600000  -0.3110000  10.3060000  26.1790000
   4.7030000  19.1890000  19.0890000   5.6870000  19.1840000  18.0700000
   3.4590000  19.9180000  18.8570000   4.8740000  18.5080000  20.3020000
   5.4920000  19.8430000  16.8690000   6.5020000  18.7160000  18.2140000
   3.2880000  20.5940000  17.6320000   2.4830000  19.9230000  19.8600000
   3.8980000  18.5140000  21.3060000   5.6870000  18.0360000  20.4330000
   6.4760000  19.8260000  15.8320000   4.2610000  20.5670000  16.6430000
   2.4870000  21.0820000  17.4810000   1.6690000  20.3950000  19.7300000
   2.6540000  19.2430000  21.0740000   4.0680000  17.8370000  22.5300000
   6.2650000  20.4700000  14.6590000   7.2910000  19.3570000  15.9680000
   4.0890000  21.2270000  15.3890000   1.6690000  19.2480000  22.0930000
   3.0960000  17.8640000  23.5190000   4.8690000  17.3490000  22.6820000
   5.0470000  21.1840000  14.4300000   6.9310000  20.4460000  13.9830000
   3.2870000  21.7080000  15.2230000   0.8550000  19.7150000  21.9480000
   1.8650000  18.5880000  23.2930000   3.2670000  17.2040000  24.7730000
   4.9080000  21.6290000  13.6020000   0.8810000  18.6050000  24.3310000
   2.3100000  17.2470000  25.7320000   4.0700000  16.7230000  24.9390000
   1.0920000  17.9620000  25.5030000   0.0660000  19.0740000  24.1940000
   2.4480000  16.8020000  26.5600000   0.4250000  17.9850000  26.1790000
   7.6470000  49.9030000  19.0890000   8.6320000  49.8980000  18.0700000
   6.4030000  50.6320000  18.8570000   7.8180000  49.2230000  20.3020000
   8.4360000  50.5570000  16.8690000   9.4460000  49.4300000  18.2140000
   6.2330000  51.3090000  17.6320000   5.4280000  50.6370000  19.8600000
   6.8420000  49.2280000  21.3060000   8.6320000  48.7500000  20.4330000
   9.4200000  50.5400000  15.8320000   7.2050000  51.2820000  16.6430000
   5.4320000  51.7960000  17.4810000   4.6140000  51.1100000  19.7300000
   5.5980000  49.9570000  21.0740000   7.0130000  48.5510000  22.5300000
   9.2090000  51.1840000  14.6590000  10.2350000  50.0720000  15.9680000
   7.0340000  51.9410000  15.3890000   4.6140000  49.9620000  22.0930000
   6.0400000  48.5780000  23.5190000   7.8140000  48.0640000  22.6820000
   7.9910000  51.8980000  14.4300000   9.8760000  51.1610000  13.9830000
   6.2310000  52.4230000  15.2230000   3.7990000  50.4300000  21.9480000
   4.8090000  49.3030000  23.2930000   6.2120000  47.9190000  24.7730000
   7.8530000  52.3440000  13.6020000   3.8250000  49.3200000  24.3310000
   5.2540000  47.9620000  25.7320000   7.0150000  47.4370000  24.9390000
   4.0360000  48.6760000  25.5030000   3.0100000  49.7890000  24.1940000
   5.3930000  47.5170000  26.5600000   3.3700000  48.6990000  26.1790000
   3.4210000  21.3950000  63.2440000   2.4370000  21.4000000  64.2630000
   4.6650000  20.6660000  63.4760000   3.2510000  22.0750000  62.0310000
   2.6330000  20.7400000  65.4640000   1.6230000  21.8670000  64.1180000
   4.8360000  19.9890000  64.7000000   5.6410000  20.6600000  62.4720000
   4.2260000  22.0700000  61.0270000   2.4370000  22.5470000  61.9000000
   1.6480000  20.7570000  66.5010000   3.8630000  20.0160000  65.6900000
   5.6370000  19.5010000  64.8520000   6.4550000  20.1880000  62.6030000
   5.4710000  21.3400000  61.2590000   4.0560000  22.7460000  59.8030000
   1.8600000  20.1140000  67.6730000   0.8340000  21.2260000  66.3650000
   4.0350000  19.3560000  66.9440000   6.4550000  21.3360000  60.2400000
   5.0290000  22.7190000  58.8130000   3.2550000  23.2340000  59.6510000
   3.0770000  19.3990000  67.9020000   1.1930000  20.1370000  68.3490000
   4.8380000  18.8750000  67.1100000   7.2690000  20.8680000  60.3850000
   6.2590000  21.9950000  59.0400000   4.8570000  23.3790000  57.5590000
   3.2160000  18.9540000  68.7300000   7.2440000  21.9780000  58.0020000
   5.8140000  23.3360000  56.6010000   4.0540000  23.8600000  57.3940000
   7.0320000  22.6220000  56.8300000   8.0580000  21.5090000  58.1390000
   5.6760000  23.7810000  55.7730000   7.6990000  22.5980000  56.1540000
   4.2020000  15.9120000   5.0320000   5.1860000  15.9070000   4.0130000
   2.9580000  16.6410000   4.8000000   4.3720000  15.2320000   6.2450000
   4.9900000  16.5660000   2.8120000   6.0000000  15.4390000   4.1580000
   2.7870000  17.3180000   3.5760000   1.9820000  16.6460000   5.8040000
   3.3960000  15.2370000   7.2490000   5.1860000  14.7590000   6.3760000
   5.9750000  16.5490000   1.7750000   3.7600000  17.2900000   2.5860000
   1.9860000  17.8050000   3.4240000   1.1680000  17.1190000   5.6730000
   2.1520000  15.9660000   7.0170000   3.5670000  14.5600000   8.4730000
   5.7630000  17.1930000   0.6030000   6.7890000  16.0800000   1.9110000
   3.5880000  17.9500000   1.3320000   1.1680000  15.9710000   8.0360000
   2.5940000  14.5870000   9.4630000   4.3680000  14.0730000   8.6250000
   4.5460000  17.9070000   0.3740000   6.4300000  17.1700000  -0.0730000
   2.7850000  18.4310000   1.1660000   0.3540000  16.4390000   7.8910000
   1.3640000  15.3120000   9.2360000   2.7660000  13.9270000  10.7170000
   4.4070000  18.3520000  -0.4540000   0.3790000  15.3280000  10.2740000
   1.8080000  13.9700000  11.6750000   3.5690000  13.4460000  10.8820000
   0.5910000  14.6850000  11.4460000  -0.4350000  15.7970000  10.1370000
   1.9470000  13.5250000  12.5030000  -0.0760000  14.7080000  12.1220000
   4.1570000  29.0730000  63.2440000   3.1730000  29.0780000  64.2630000
   5.4020000  28.3440000  63.4760000   3.9870000  29.7530000  62.0310000
   3.3690000  28.4190000  65.4640000   2.3590000  29.5460000  64.1180000
   5.5720000  27.6670000  64.7000000   6.3770000  28.3390000  62.4720000
   4.9630000  29.7480000  61.0270000   3.1730000  30.2260000  61.9000000
   2.3840000  28.4360000  66.5010000   4.5990000  27.6950000  65.6900000
   6.3730000  27.1800000  64.8520000   7.1910000  27.8670000  62.6030000
   6.2070000  29.0190000  61.2590000   4.7920000  30.4250000  59.8030000
   2.5960000  27.7920000  67.6730000   1.5700000  28.9050000  66.3650000
   4.7710000  27.0350000  66.9440000   7.1910000  29.0140000  60.2400000
   5.7650000  30.3980000  58.8130000   3.9910000  30.9120000  59.6510000
   3.8140000  27.0780000  67.9020000   1.9290000  27.8150000  68.3490000
   5.5740000  26.5540000  67.1100000   8.0050000  28.5470000  60.3850000
   6.9950000  29.6730000  59.0400000   5.5930000  31.0580000  57.5590000
   3.9520000  26.6330000  68.7300000   7.9800000  29.6570000  58.0020000
   6.5510000  31.0150000  56.6010000   4.7900000  31.5390000  57.3940000
   7.7680000  30.3000000  56.8300000   8.7940000  29.1880000  58.1390000
   6.4120000  31.4600000  55.7730000   8.4350000  30.2770000  56.1540000
   5.6300000  44.4300000  63.2440000   4.6450000  44.4350000  64.2630000
   6.8740000  43.7010000  63.4760000   5.4590000  45.1110000  62.0310000
   4.8410000  43.7760000  65.4640000   3.8310000  44.9030000  64.1180000
   7.0440000  43.0250000  64.7000000   7.8500000  43.6960000  62.4720000
   6.4350000  45.1050000  61.0270000   4.6450000  45.5830000  61.9000000
   3.8570000  43.7930000  66.5010000   6.0720000  43.0520000  65.6900000
   7.8450000  42.5370000  64.8520000   8.6630000  43.2240000  62.6030000
   7.6790000  44.3760000  61.2590000   6.2640000  45.7820000  59.8030000
   4.0680000  43.1490000  67.6730000   3.0420000  44.2620000  66.3650000
   6.2430000  42.3920000  66.9440000   8.6630000  44.3710000  60.2400000
   7.2370000  45.7550000  58.8130000   5.4630000  46.2700000  59.6510000
   5.2860000  42.4350000  67.9020000   3.4010000  43.1730000  68.3490000
   7.0460000  41.9110000  67.1100000   9.4780000  43.9040000  60.3850000
   8.4680000  45.0310000  59.0400000   7.0650000  46.4150000  57.5590000
   5.4240000  41.9900000  68.7300000   9.4520000  45.0140000  58.0020000
   8.0230000  46.3720000  56.6010000   6.2630000  46.8960000  57.3940000
   9.2410000  45.6570000  56.8300000  10.2670000  44.5450000  58.1390000
   7.8840000  46.8170000  55.7730000   9.9070000  45.6340000  56.1540000
   6.3660000  52.1090000  63.2440000   5.3810000  52.1140000  64.2630000
   7.6100000  51.3800000  63.4760000   6.1950000  52.7890000  62.0310000
   5.5770000  51.4550000  65.4640000   4.5670000  52.5820000  64.1180000
   7.7800000  50.7030000  64.7000000   8.5860000  51.3750000  62.4720000
   7.1710000  52.7840000  61.0270000   5.3820000  53.2620000  61.9000000
   4.5930000  51.4720000  66.5010000   6.8080000  50.7300000  65.6900000
   8.5820000  50.2160000  64.8520000   9.3990000  50.9020000  62.6030000
   8.4150000  52.0550000  61.2590000   7.0010000  53.4610000  59.8030000
   4.8040000  50.8280000  67.6730000   3.7780000  51.9400000  66.3650000
   6.9800000  50.0710000  66.9440000   9.3990000  52.0500000  60.2400000
   7.9730000  53.4340000  58.8130000   6.1990000  53.9480000  59.6510000
   6.0220000  50.1140000  67.9020000   4.1380000  50.8510000  68.3490000
   7.7820000  49.5890000  67.1100000  10.2140000  51.5820000  60.3850000
   9.2040000  52.7090000  59.0400000   7.8010000  54.0930000  57.5590000
   6.1600000  49.6680000  68.7300000  10.1880000  52.6920000  58.0020000
   8.7590000  54.0500000  56.6010000   6.9990000  54.5750000  57.3940000
   9.9770000  53.3360000  56.8300000  11.0030000  52.2240000  58.1390000
   8.6210000  54.4950000  55.7730000  10.6430000  53.3130000  56.1540000
   7.1020000  59.7880000  63.2440000   6.1180000  59.7930000  64.2630000
   8.3460000  59.0590000  63.4760000   6.9310000  60.4680000  62.0310000
   6.3130000  59.1330000  65.4640000   5.3030000  60.2600000  64.1180000
   8.5160000  58.3820000  64.7000000   9.3220000  59.0530000  62.4720000
   7.9070000  60.4630000  61.0270000   6.1180000  60.9400000  61.9000000
   5.3290000  59.1500000  66.5010000   7.5440000  58.4090000  65.6900000
   9.3180000  57.8940000  64.8520000  10.1350000  58.5810000  62.6030000
   9.1510000  59.7330000  61.2590000   7.7370000  61.1390000  59.8030000
   5.5400000  58.5070000  67.6730000   4.5140000  59.6190000  66.3650000
   7.7160000  57.7490000  66.9440000  10.1360000  59.7290000  60.2400000
   8.7090000  61.1120000  58.8130000   6.9350000  61.6270000  59.6510000
   6.7580000  57.7920000  67.9020000   4.8740000  58.5300000  68.3490000
   8.5180000  57.2680000  67.1100000  10.9500000  59.2610000  60.3850000
   9.9400000  60.3880000  59.0400000   8.5370000  61.7720000  57.5590000
   6.8960000  57.3470000  68.7300000  10.9240000  60.3710000  58.0020000
   9.4950000  61.7290000  56.6010000   7.7350000  62.2530000  57.3940000
  10.7130000  61.0140000  56.8300000  11.7390000  59.9020000  58.1390000
   9.3570000  62.1740000  55.7730000  11.3790000  60.9910000  56.1540000
