Cpptraj Generated Restart                                                       
 1944
   7.7840000   9.4380000   5.6780000   6.8000000   9.4430000   6.6970000
   9.0280000   8.7090000   5.9100000   7.6130000  10.1180000   4.4650000
   6.9950000   8.7840000   7.8980000   5.9850000   9.9100000   6.5520000
   9.1990000   8.0320000   7.1340000  10.0040000   8.7040000   4.9060000
   8.5890000  10.1130000   3.4610000   6.8000000  10.5900000   4.3340000
   6.0110000   8.8000000   8.9350000   8.2260000   8.0590000   8.1240000
  10.0000000   7.5440000   7.2860000  10.8180000   8.2310000   5.0370000
   9.8330000   9.3840000   3.6930000   8.4190000  10.7900000   2.2370000
   6.2220000   8.1570000  10.1070000   5.1960000   9.2690000   8.7990000
   8.3980000   7.3990000   9.3780000  10.8180000   9.3790000   2.6740000
   9.3910000  10.7620000   1.2470000   7.6180000  11.2770000   2.0850000
   7.4400000   7.4420000  10.3360000   5.5560000   8.1800000  10.7830000
   9.2000000   6.9180000   9.5440000  11.6320000   8.9110000   2.8190000
  10.6220000  10.0380000   1.4740000   9.2200000  11.4220000  -0.0070000
   7.5790000   6.9970000  11.1640000  11.6060000  10.0210000   0.4360000
  10.1770000  11.3790000  -0.9650000   8.4170000  11.9030000  -0.1720000
  11.3950000  10.6650000  -0.7360000  12.4210000   9.5520000   0.5730000
  10.0390000  11.8240000  -1.7930000  12.0620000  10.6410000  -1.4120000
   9.5980000   4.9820000  17.7500000  10.5830000   4.9770000  16.7310000
   8.3540000   5.7110000  17.5180000   9.7690000   4.3020000  18.9630000
  10.3870000   5.6360000  15.5300000  11.3970000   4.5090000  16.8760000
   8.1840000   6.3880000  16.2940000   7.3790000   5.7160000  18.5220000
   8.7930000   4.3070000  19.9670000  10.5830000   3.8290000  19.0940000
  11.3710000   5.6190000  14.4930000   9.1570000   6.3610000  15.3040000
   7.3830000   6.8750000  16.1420000   6.5650000   6.1890000  18.3910000
   7.5490000   5.0360000  19.7350000   8.9640000   3.6300000  21.1910000
  11.1600000   6.2630000  13.3210000  12.1860000   5.1510000  14.6290000
   8.9850000   7.0200000  14.0500000   6.5650000   5.0410000  20.7540000
   7.9910000   3.6570000  22.1810000   9.7650000   3.1430000  21.3430000
   9.9420000   6.9770000  13.0920000  11.8270000   6.2400000  12.6450000
   8.1820000   7.5020000  13.8840000   5.7510000   5.5090000  20.6090000
   6.7600000   4.3820000  21.9540000   8.1630000   2.9980000  23.4350000
   9.8040000   7.4220000  12.2640000   5.7760000   4.3990000  22.9920000
   7.2050000   3.0410000  24.3930000   8.9660000   2.5160000  23.6000000
   5.9870000   3.7550000  24.1640000   4.9620000   4.8670000  22.8550000
   7.3440000   2.5960000  25.2210000   5.3210000   3.7780000  24.8400000
   8.0500000   8.3130000  33.7920000   7.0660000   8.3180000  34.8110000
   9.2950000   7.5840000  34.0240000   7.8800000   8.9930000  32.5790000
   7.2620000   7.6590000  36.0110000   6.2520000   8.7850000  34.6660000
   9.4650000   6.9070000  35.2480000  10.2700000   7.5790000  33.0200000
   8.8560000   8.9880000  31.5750000   7.0660000   9.4650000  32.4480000
   6.2770000   7.6750000  37.0490000   8.4920000   6.9340000  36.2380000
  10.2660000   6.4200000  35.4000000  11.0840000   7.1060000  33.1510000
  10.1000000   8.2590000  31.8070000   8.6850000   9.6650000  30.3510000
   6.4890000   7.0320000  38.2210000   5.4630000   8.1440000  36.9120000
   8.6640000   6.2740000  37.4910000  11.0840000   8.2540000  30.7880000
   9.6580000   9.6370000  29.3610000   7.8840000  10.1520000  30.1990000
   7.7070000   6.3170000  38.4500000   5.8220000   7.0550000  38.8970000
   9.4670000   5.7930000  37.6570000  11.8980000   7.7860000  30.9320000
  10.8880000   8.9130000  29.5870000   9.4860000  10.2970000  28.1070000
   7.8450000   5.8720000  39.2780000  11.8730000   8.8960000  28.5500000
  10.4440000  10.2540000  27.1480000   8.6830000  10.7780000  27.9410000
  11.6610000   9.5400000  27.3780000  12.6870000   8.4270000  28.6860000
  10.3050000  10.6990000  26.3200000  12.3280000   9.5170000  26.7010000
   9.0210000  20.3930000  19.7350000   8.0370000  20.3980000  20.7540000
  10.2660000  19.6640000  19.9670000   8.8510000  21.0730000  18.5220000
   8.2330000  19.7390000  21.9540000   7.2230000  20.8660000  20.6090000
  10.4360000  18.9870000  21.1910000  11.2410000  19.6590000  18.9630000
   9.8270000  21.0680000  17.5180000   8.0370000  21.5460000  18.3910000
   7.2480000  19.7560000  22.9920000   9.4630000  19.0150000  22.1810000
  11.2370000  18.5000000  21.3430000  12.0550000  19.1870000  19.0940000
  11.0710000  20.3390000  17.7500000   9.6560000  21.7450000  16.2940000
   7.4600000  19.1120000  24.1640000   6.4340000  20.2250000  22.8550000
   9.6350000  18.3550000  23.4350000  12.0550000  20.3340000  16.7310000
  10.6290000  21.7180000  15.3040000   8.8550000  22.2320000  16.1420000
   8.6780000  18.3980000  24.3930000   6.7930000  19.1350000  24.8400000
  10.4380000  17.8740000  23.6000000  12.8690000  19.8670000  16.8760000
  11.8590000  20.9930000  15.5300000  10.4570000  22.3780000  14.0500000
   8.8160000  17.9530000  25.2210000  12.8440000  20.9770000  14.4930000
  11.4150000  22.3350000  13.0920000   9.6540000  22.8590000  13.8840000
  12.6320000  21.6200000  13.3210000  13.6580000  20.5080000  14.6290000
  11.2760000  22.7800000  12.2640000  13.2990000  21.5970000  12.6450000
  11.5720000  23.6160000  31.8070000  12.5560000  23.6110000  30.7880000
  10.3280000  24.3450000  31.5750000  11.7430000  22.9360000  33.0200000
  12.3610000  24.2700000  29.5870000  13.3710000  23.1430000  30.9320000
  10.1570000  25.0220000  30.3510000   9.3520000  24.3500000  32.5790000
  10.7670000  22.9410000  34.0240000  12.5560000  22.4630000  33.1510000
  13.3450000  24.2530000  28.5500000  11.1300000  24.9950000  29.3610000
   9.3560000  25.5090000  30.1990000   8.5380000  24.8230000  32.4480000
   9.5230000  23.6700000  33.7920000  10.9370000  22.2640000  35.2480000
  13.1340000  24.8970000  27.3780000  14.1600000  23.7850000  28.6860000
  10.9580000  25.6540000  28.1070000   8.5380000  23.6750000  34.8110000
   9.9650000  22.2910000  36.2380000  11.7380000  21.7770000  35.4000000
  11.9160000  25.6110000  27.1480000  13.8000000  24.8740000  26.7010000
  10.1560000  26.1360000  27.9410000   7.7240000  24.1430000  34.6660000
   8.7340000  23.0160000  36.0110000  10.1360000  21.6320000  37.4910000
  11.7770000  26.0560000  26.3200000   7.7500000  23.0330000  37.0490000
   9.1790000  21.6750000  38.4500000  10.9390000  21.1500000  37.6570000
   7.9610000  22.3890000  38.2210000   6.9350000  23.5010000  36.9120000
   9.3170000  21.2300000  39.2780000   7.2940000  22.4120000  38.8970000
   8.2850000  12.7150000  19.7350000   7.3010000  12.7200000  20.7540000
   9.5290000  11.9860000  19.9670000   8.1150000  13.3950000  18.5220000
   7.4970000  12.0600000  21.9540000   6.4870000  13.1870000  20.6090000
   9.7000000  11.3090000  21.1910000  10.5050000  11.9800000  18.9630000
   9.0900000  13.3900000  17.5180000   7.3010000  13.8670000  18.3910000
   6.5120000  12.0770000  22.9920000   8.7270000  11.3360000  22.1810000
  10.5010000  10.8210000  21.3430000  11.3190000  11.5080000  19.0940000
  10.3350000  12.6600000  17.7500000   8.9200000  14.0660000  16.2940000
   6.7240000  11.4340000  24.1640000   5.6980000  12.5460000  22.8550000
   8.8990000  10.6760000  23.4350000  11.3190000  12.6560000  16.7310000
   9.8930000  14.0390000  15.3040000   8.1190000  14.5540000  16.1420000
   7.9410000  10.7190000  24.3930000   6.0570000  11.4570000  24.8400000
   9.7020000  10.1950000  23.6000000  12.1330000  12.1880000  16.8760000
  11.1230000  13.3150000  15.5300000   9.7210000  14.6990000  14.0500000
   8.0800000  10.2740000  25.2210000  12.1080000  13.2980000  14.4930000
  10.6780000  14.6560000  13.0920000   8.9180000  15.1800000  13.8840000
  11.8960000  13.9420000  13.3210000  12.9220000  12.8290000  14.6290000
  10.5400000  15.1010000  12.2640000  12.5630000  13.9180000  12.6450000
  10.8360000  15.9370000  31.8070000  11.8200000  15.9320000  30.7880000
   9.5920000  16.6660000  31.5750000  11.0060000  15.2570000  33.0200000
  11.6250000  16.5920000  29.5870000  12.6340000  15.4650000  30.9320000
   9.4210000  17.3430000  30.3510000   8.6160000  16.6720000  32.5790000
  10.0310000  15.2620000  34.0240000  11.8200000  14.7850000  33.1510000
  12.6090000  16.5750000  28.5500000  10.3940000  17.3160000  29.3610000
   8.6200000  17.8310000  30.1990000   7.8020000  17.1440000  32.4480000
   8.7870000  15.9920000  33.7920000  10.2010000  14.5860000  35.2480000
  12.3980000  17.2180000  27.3780000  13.4230000  16.1060000  28.6860000
  10.2220000  17.9760000  28.1070000   7.8020000  15.9960000  34.8110000
   9.2290000  14.6130000  36.2380000  11.0020000  14.0980000  35.4000000
  11.1800000  17.9330000  27.1480000  13.0640000  17.1950000  26.7010000
   9.4190000  18.4570000  27.9410000   6.9880000  16.4640000  34.6660000
   7.9980000  15.3370000  36.0110000   9.4000000  13.9530000  37.4910000
  11.0410000  18.3780000  26.3200000   7.0140000  15.3540000  37.0490000
   8.4430000  13.9960000  38.4500000  10.2030000  13.4720000  37.6570000
   7.2250000  14.7100000  38.2210000   6.1990000  15.8230000  36.9120000
   8.5810000  13.5510000  39.2780000   6.5580000  14.7340000  38.8970000
   7.0480000   1.7590000   5.6780000   6.0640000   1.7640000   6.6970000
   8.2920000   1.0300000   5.9100000   6.8770000   2.4390000   4.4650000
   6.2590000   1.1050000   7.8980000   5.2490000   2.2320000   6.5520000
   8.4620000   0.3530000   7.1340000   9.2680000   1.0250000   4.9060000
   7.8530000   2.4340000   3.4610000   6.0640000   2.9120000   4.3340000
   5.2750000   1.1220000   8.9350000   7.4900000   0.3810000   8.1240000
   9.2640000  -0.1340000   7.2860000  10.0810000   0.5520000   5.0370000
   9.0970000   1.7050000   3.6930000   7.6830000   3.1110000   2.2370000
   5.4860000   0.4780000  10.1070000   4.4600000   1.5910000   8.7990000
   7.6620000  -0.2790000   9.3780000  10.0820000   1.7000000   2.6740000
   8.6550000   3.0840000   1.2470000   6.8810000   3.5980000   2.0850000
   6.7040000  -0.2360000  10.3360000   4.8200000   0.5010000  10.7830000
   8.4640000  -0.7600000   9.5440000  10.8960000   1.2320000   2.8190000
   9.8860000   2.3590000   1.4740000   8.4830000   3.7440000  -0.0070000
   6.8420000  -0.6810000  11.1640000  10.8700000   2.3430000   0.4360000
   9.4410000   3.7010000  -0.9650000   7.6810000   4.2250000  -0.1720000
  10.6590000   2.9860000  -0.7360000  11.6850000   1.8740000   0.5730000
   9.3030000   4.1460000  -1.7930000  11.3250000   2.9630000  -1.4120000
  10.5690000  17.0620000   3.6930000  11.5540000  17.0570000   2.6740000
   9.3250000  17.7910000   3.4610000  10.7400000  16.3820000   4.9060000
  11.3580000  17.7170000   1.4740000  12.3680000  16.5900000   2.8190000
   9.1550000  18.4680000   2.2370000   8.3500000  17.7970000   4.4650000
   9.7640000  16.3870000   5.9100000  11.5540000  15.9100000   5.0370000
  12.3420000  17.7000000   0.4360000  10.1270000  18.4410000   1.2470000
   8.3540000  18.9560000   2.0850000   7.5360000  18.2690000   4.3340000
   8.5200000  17.1160000   5.6780000   9.9350000  15.7110000   7.1340000
  12.1310000  18.3430000  -0.7360000  13.1570000  17.2310000   0.5730000
   9.9560000  19.1010000  -0.0070000   7.5360000  17.1210000   6.6970000
   8.9620000  15.7380000   8.1240000  10.7360000  15.2230000   7.2860000
  10.9130000  19.0580000  -0.9650000  12.7980000  18.3200000  -1.4120000
   9.1530000  19.5820000  -0.1720000   6.7210000  17.5890000   6.5520000
   7.7310000  16.4620000   7.8980000   9.1340000  15.0780000   9.3780000
  10.7750000  19.5030000  -1.7930000   6.7470000  16.4790000   8.9350000
   8.1760000  15.1210000  10.3360000   9.9370000  14.5970000   9.5440000
   6.9580000  15.8350000  10.1070000   5.9320000  16.9480000   8.7990000
   8.3150000  14.6760000  11.1640000   6.2920000  15.8590000  10.7830000
  13.0370000  26.9090000  33.6060000  12.0450000  26.3370000  34.4380000
  14.2680000  27.3970000  34.2110000  12.8570000  27.0110000  32.2190000
  12.2230000  26.2360000  35.8130000  11.2390000  26.0160000  34.0490000
  14.4240000  27.2770000  35.6020000  15.2490000  27.9540000  33.3800000
  13.8390000  27.5680000  31.3880000  12.0440000  26.6930000  31.8460000
  11.2270000  25.6500000  36.6760000  13.4480000  26.7120000  36.4120000
  15.2250000  27.5950000  36.0030000  16.0620000  28.2710000  33.7520000
  15.0690000  28.0560000  31.9920000  13.6820000  27.6870000  29.9960000
  11.4250000  25.5530000  38.0110000  10.4180000  25.3260000  36.3010000
  13.6120000  26.5870000  37.8340000  16.0610000  28.6280000  31.1600000
  14.6580000  28.2530000  29.1870000  12.8810000  27.3700000  29.5960000
  12.6330000  26.0360000  38.5960000  10.7570000  25.1610000  38.5610000
  14.4120000  26.8930000  38.2460000  16.8670000  28.9490000  31.5500000
  15.8830000  28.7290000  29.7850000  14.4940000  28.3780000  27.7640000
  12.7540000  25.9710000  39.5370000  16.8790000  29.3140000  28.9220000
  15.4730000  28.9290000  27.0020000  13.6940000  28.0720000  27.3520000
  16.6810000  29.4120000  27.5870000  17.6880000  29.6380000  29.2980000
  15.3520000  28.9940000  26.0620000  17.3490000  29.8030000  27.0370000
  10.5620000   4.9980000   5.4920000   9.5700000   4.4260000   6.3250000
  11.7930000   5.4860000   6.0970000  10.3830000   5.1000000   4.1050000
   9.7490000   4.3250000   7.6990000   8.7650000   4.1050000   5.9350000
  11.9490000   5.3660000   7.4890000  12.7740000   6.0430000   5.2660000
  11.3640000   5.6570000   3.2740000   9.5690000   4.7830000   3.7330000
   8.7530000   3.7390000   8.5620000  10.9730000   4.8010000   8.2980000
  12.7510000   5.6840000   7.8890000  13.5870000   6.3600000   5.6390000
  12.5950000   6.1450000   3.8790000  11.2070000   5.7770000   1.8830000
   8.9510000   3.6420000   9.8980000   7.9430000   3.4150000   8.1870000
  11.1370000   4.6760000   9.7210000  13.5860000   6.7170000   3.0470000
  12.1830000   6.3420000   1.0730000  10.4060000   5.4590000   1.4820000
  10.1580000   4.1250000  10.4830000   8.2820000   3.2500000  10.4470000
  11.9370000   4.9820000  10.1330000  14.3920000   7.0380000   3.4360000
  13.4080000   6.8180000   1.6720000  12.0190000   6.4670000  -0.3500000
  10.2790000   4.0600000  11.4230000  14.4040000   7.4040000   0.8090000
  12.9980000   7.0180000  -1.1110000  11.2200000   6.1610000  -0.7610000
  14.2060000   7.5010000  -0.5270000  15.2140000   7.7280000   1.1840000
  12.8770000   7.0830000  -2.0520000  14.8740000   7.8930000  -1.0760000
  13.5970000  12.6990000  31.9920000  14.5890000  13.2700000  31.1600000
  12.3660000  12.2110000  31.3880000  13.7760000  12.5970000  33.3800000
  14.4100000  13.3710000  29.7850000  15.3940000  13.5910000  31.5500000
  12.2100000  12.3300000  29.9960000  11.3850000  11.6530000  32.2190000
  12.7950000  12.0390000  34.2110000  14.5900000  12.9140000  33.7520000
  15.4060000  13.9570000  28.9220000  13.1860000  12.8950000  29.1870000
  11.4080000  12.0130000  29.5960000  10.5720000  11.3360000  31.8460000
  11.5640000  11.5510000  33.6060000  12.9520000  11.9200000  35.6020000
  15.2080000  14.0540000  27.5870000  16.2160000  14.2810000  29.2980000
  13.0220000  13.0210000  27.7640000  10.5730000  10.9800000  34.4380000
  11.9760000  11.3550000  36.4120000  13.7530000  12.2380000  36.0030000
  14.0010000  13.5720000  27.0020000  15.8770000  14.4460000  27.0370000
  12.2220000  12.7140000  27.3520000   9.7670000  10.6590000  34.0490000
  10.7510000  10.8790000  35.8130000  12.1400000  11.2300000  37.8340000
  13.8800000  13.6370000  26.0620000   9.7550000  10.2930000  36.6760000
  11.1610000  10.6780000  38.5960000  12.9390000  11.5360000  38.2460000
   9.9530000  10.1960000  38.0110000   8.9450000   9.9690000  36.3010000
  11.2820000  10.6140000  39.5370000   9.2850000   9.8040000  38.5610000
  13.0960000   9.4220000  17.9360000  14.0880000   9.9930000  17.1030000
  11.8650000   8.9340000  17.3310000  13.2750000   9.3200000  19.3230000
  13.9090000  10.0950000  15.7290000  14.8930000  10.3150000  17.4930000
  11.7090000   9.0530000  15.9390000  10.8840000   8.3770000  18.1620000
  12.2940000   8.7630000  20.1540000  14.0890000   9.6370000  19.6950000
  14.9050000  10.6800000  14.8660000  12.6840000   9.6190000  15.1300000
  10.9070000   8.7360000  15.5390000  10.0700000   8.0590000  17.7890000
  11.0630000   8.2750000  19.5490000  12.4500000   8.6430000  21.5450000
  14.7070000  10.7780000  13.5300000  15.7150000  11.0040000  15.2410000
  12.5210000   9.7440000  13.7070000  10.0710000   7.7030000  20.3810000
  11.4750000   8.0780000  22.3550000  13.2520000   8.9610000  21.9460000
  13.5000000  10.2950000  12.9450000  15.3760000  11.1690000  12.9810000
  11.7210000   9.4380000  13.2950000   9.2660000   7.3820000  19.9920000
  10.2500000   7.6020000  21.7560000  11.6380000   7.9530000  23.7780000
  13.3790000  10.3600000  12.0050000   9.2540000   7.0160000  22.6190000
  10.6590000   7.4020000  24.5390000  12.4380000   8.2590000  24.1890000
   9.4520000   6.9190000  23.9550000   8.4440000   6.6920000  22.2440000
  10.7810000   7.3370000  25.4800000   8.7840000   6.5270000  24.5040000
  12.5350000  23.6320000  19.5490000  11.5440000  23.0600000  20.3810000
  13.7660000  24.1200000  20.1540000  12.3560000  23.7340000  18.1620000
  11.7220000  22.9590000  21.7560000  10.7380000  22.7390000  19.9920000
  13.9230000  24.0000000  21.5450000  14.7470000  24.6770000  19.3230000
  13.3370000  24.2910000  17.3310000  11.5430000  23.4170000  17.7890000
  10.7260000  22.3730000  22.6190000  12.9470000  23.4350000  22.3550000
  14.7240000  24.3180000  21.9460000  15.5610000  24.9940000  19.6950000
  14.5680000  24.7790000  17.9360000  13.1810000  24.4110000  15.9390000
  10.9240000  22.2760000  23.9550000   9.9160000  22.0490000  22.2440000
  13.1110000  23.3100000  23.7780000  15.5600000  25.3510000  17.1030000
  14.1570000  24.9760000  15.1300000  12.3790000  24.0930000  15.5390000
  12.1320000  22.7590000  24.5390000  10.2560000  21.8840000  24.5040000
  13.9100000  23.6160000  24.1890000  16.3650000  25.6720000  17.4930000
  15.3810000  25.4520000  15.7290000  13.9930000  25.1010000  13.7070000
  12.2530000  22.6940000  25.4800000  16.3770000  26.0380000  14.8660000
  14.9720000  25.6520000  12.9450000  13.1930000  24.7950000  13.2950000
  16.1790000  26.1350000  13.5300000  17.1870000  26.3620000  15.2410000
  14.8510000  25.7170000  12.0050000  16.8480000  26.5270000  12.9810000
  13.8320000  17.1010000  17.9360000  14.8240000  17.6720000  17.1030000
  12.6010000  16.6130000  17.3310000  14.0110000  16.9990000  19.3230000
  14.6450000  17.7730000  15.7290000  15.6290000  17.9930000  17.4930000
  12.4450000  16.7320000  15.9390000  11.6200000  16.0550000  18.1620000
  13.0300000  16.4410000  20.1540000  14.8250000  17.3160000  19.6950000
  15.6410000  18.3590000  14.8660000  13.4210000  17.2970000  15.1300000
  11.6430000  16.4140000  15.5390000  10.8060000  15.7380000  17.7890000
  11.7990000  15.9530000  19.5490000  13.1870000  16.3220000  21.5450000
  15.4430000  18.4560000  13.5300000  16.4510000  18.6830000  15.2410000
  13.2570000  17.4230000  13.7070000  10.8070000  15.3820000  20.3810000
  12.2110000  15.7570000  22.3550000  13.9880000  16.6390000  21.9460000
  14.2360000  17.9740000  12.9450000  16.1120000  18.8480000  12.9810000
  12.4570000  17.1160000  13.2950000  10.0020000  15.0610000  19.9920000
  10.9860000  15.2810000  21.7560000  12.3740000  15.6310000  23.7780000
  14.1150000  18.0380000  12.0050000   9.9900000  14.6950000  22.6190000
  11.3960000  15.0800000  24.5390000  13.1740000  15.9380000  24.1890000
  10.1880000  14.5980000  23.9550000   9.1800000  14.3710000  22.2440000
  11.5170000  15.0150000  25.4800000   9.5200000  14.2060000  24.5040000
  13.3310000  13.8240000   3.8790000  14.3230000  14.3950000   3.0470000
  12.1000000  13.3360000   3.2740000  13.5100000  13.7220000   5.2660000
  14.1440000  14.4960000   1.6720000  15.1280000  14.7160000   3.4360000
  11.9430000  13.4550000   1.8830000  11.1190000  12.7780000   4.1050000
  12.5290000  13.1640000   6.0970000  14.3240000  14.0390000   5.6390000
  15.1400000  15.0820000   0.8090000  12.9190000  14.0200000   1.0730000
  11.1420000  13.1380000   1.4820000  10.3050000  12.4610000   3.7330000
  11.2980000  12.6760000   5.4920000  12.6850000  13.0450000   7.4890000
  14.9420000  15.1790000  -0.5270000  15.9500000  15.4060000   1.1840000
  12.7560000  14.1460000  -0.3500000  10.3060000  12.1050000   6.3250000
  11.7090000  12.4800000   8.2980000  13.4870000  13.3630000   7.8890000
  13.7350000  14.6970000  -1.1110000  15.6100000  15.5710000  -1.0760000
  11.9560000  13.8390000  -0.7610000   9.5010000  11.7840000   5.9350000
  10.4850000  12.0040000   7.6990000  11.8730000  12.3540000   9.7210000
  13.6130000  14.7620000  -2.0520000   9.4890000  11.4180000   8.5620000
  10.8940000  11.8030000  10.4830000  12.6730000  12.6610000  10.1330000
   9.6870000  11.3210000   9.8980000   8.6790000  11.0940000   8.1870000
  11.0150000  11.7380000  11.4230000   9.0180000  10.9290000  10.4470000
  14.3330000  20.3770000  31.9920000  15.3250000  20.9490000  31.1600000
  13.1020000  19.8890000  31.3880000  14.5130000  20.2750000  33.3800000
  15.1460000  21.0500000  29.7850000  16.1300000  21.2700000  31.5500000
  12.9460000  20.0090000  29.9960000  12.1210000  19.3320000  32.2190000
  13.5310000  19.7180000  34.2110000  15.3260000  20.5930000  33.7520000
  16.1420000  21.6360000  28.9220000  13.9220000  20.5740000  29.1870000
  12.1450000  19.6910000  29.5960000  11.3080000  19.0150000  31.8460000
  12.3010000  19.2300000  33.6060000  13.6880000  19.5990000  35.6020000
  15.9440000  21.7330000  27.5870000  16.9520000  21.9600000  29.2980000
  13.7580000  20.6990000  27.7640000  11.3090000  18.6590000  34.4380000
  12.7120000  19.0330000  36.4120000  14.4890000  19.9160000  36.0030000
  14.7370000  21.2500000  27.0020000  16.6130000  22.1250000  27.0370000
  12.9580000  20.3930000  27.3520000  10.5030000  18.3370000  34.0490000
  11.4870000  18.5570000  35.8130000  12.8760000  18.9080000  37.8340000
  14.6160000  21.3150000  26.0620000  10.4910000  17.9720000  36.6760000
  11.8970000  18.3570000  38.5960000  13.6760000  19.2150000  38.2460000
  10.6890000  17.8740000  38.0110000   9.6820000  17.6480000  36.3010000
  12.0180000  18.2920000  39.5370000  10.0210000  17.4830000  38.5610000
  12.0340000  20.3550000   5.4920000  11.0420000  19.7830000   6.3250000
  13.2650000  20.8430000   6.0970000  11.8550000  20.4570000   4.1050000
  11.2210000  19.6820000   7.6990000  10.2370000  19.4620000   5.9350000
  13.4210000  20.7240000   7.4890000  14.2460000  21.4000000   5.2660000
  12.8360000  21.0140000   3.2740000  11.0410000  20.1400000   3.7330000
  10.2250000  19.0970000   8.5620000  12.4460000  20.1580000   8.2980000
  14.2230000  21.0410000   7.8890000  15.0600000  21.7180000   5.6390000
  14.0670000  21.5020000   3.8790000  12.6800000  21.1340000   1.8830000
  10.4230000  18.9990000   9.8980000   9.4150000  18.7730000   8.1870000
  12.6090000  20.0330000   9.7210000  15.0590000  22.0740000   3.0470000
  13.6550000  21.6990000   1.0730000  11.8780000  20.8160000   1.4820000
  11.6300000  19.4820000  10.4830000   9.7540000  18.6080000  10.4470000
  13.4090000  20.3390000  10.1330000  15.8640000  22.3950000   3.4360000
  14.8800000  22.1750000   1.6720000  13.4920000  21.8240000  -0.3500000
  11.7520000  19.4170000  11.4230000  15.8760000  22.7610000   0.8090000
  14.4710000  22.3750000  -1.1110000  12.6920000  21.5180000  -0.7610000
  15.6780000  22.8580000  -0.5270000  16.6860000  23.0850000   1.1840000
  14.3490000  22.4400000  -2.0520000  16.3470000  23.2500000  -1.0760000
   4.2870000   4.9980000   5.4920000   3.2950000   4.4260000   6.3250000
   5.5170000   5.4860000   6.0970000   4.1070000   5.1000000   4.1050000
   3.4730000   4.3250000   7.6990000   2.4890000   4.1050000   5.9350000
   5.6740000   5.3660000   7.4890000   6.4990000   6.0430000   5.2660000
   5.0880000   5.6570000   3.2740000   3.2940000   4.7830000   3.7330000
   2.4770000   3.7390000   8.5620000   4.6980000   4.8010000   8.2980000
   6.4750000   5.6840000   7.8890000   7.3120000   6.3600000   5.6390000
   6.3190000   6.1450000   3.8790000   4.9320000   5.7770000   1.8830000
   2.6750000   3.6420000   9.8980000   1.6680000   3.4150000   8.1870000
   4.8620000   4.6760000   9.7210000   7.3110000   6.7170000   3.0470000
   5.9080000   6.3420000   1.0730000   4.1310000   5.4590000   1.4820000
   3.8830000   4.1250000  10.4830000   2.0070000   3.2500000  10.4470000
   5.6620000   4.9820000  10.1330000   8.1160000   7.0380000   3.4360000
   7.1330000   6.8180000   1.6720000   5.7440000   6.4670000  -0.3500000
   4.0040000   4.0600000  11.4230000   8.1290000   7.4040000   0.8090000
   6.7230000   7.0180000  -1.1110000   4.9440000   6.1610000  -0.7610000
   7.9310000   7.5010000  -0.5270000   8.9380000   7.7280000   1.1840000
   6.6020000   7.0830000  -2.0520000   8.5990000   7.8930000  -1.0760000
   5.0230000  12.6760000   5.4920000   4.0310000  12.1050000   6.3250000
   6.2540000  13.1640000   6.0970000   4.8430000  12.7780000   4.1050000
   4.2100000  12.0040000   7.6990000   3.2260000  11.7840000   5.9350000
   6.4100000  13.0450000   7.4890000   7.2350000  13.7220000   5.2660000
   5.8250000  13.3360000   3.2740000   4.0300000  12.4610000   3.7330000
   3.2140000  11.4180000   8.5620000   5.4340000  12.4800000   8.2980000
   7.2110000  13.3630000   7.8890000   8.0480000  14.0390000   5.6390000
   7.0550000  13.8240000   3.8790000   5.6680000  13.4550000   1.8830000
   3.4120000  11.3210000   9.8980000   2.4040000  11.0940000   8.1870000
   5.5980000  12.3540000   9.7210000   8.0470000  14.3950000   3.0470000
   6.6440000  14.0200000   1.0730000   4.8670000  13.1380000   1.4820000
   4.6190000  11.8030000  10.4830000   2.7430000  10.9290000  10.4470000
   6.3980000  12.6610000  10.1330000   8.8530000  14.7160000   3.4360000
   7.8690000  14.4960000   1.6720000   6.4800000  14.1460000  -0.3500000
   4.7400000  11.7380000  11.4230000   8.8650000  15.0820000   0.8090000
   7.4590000  14.6970000  -1.1110000   5.6800000  13.8390000  -0.7610000
   8.6670000  15.1790000  -0.5270000   9.6740000  15.4060000   1.1840000
   7.3380000  14.7620000  -2.0520000   9.3350000  15.5710000  -1.0760000
   5.7590000  20.3550000   5.4920000   4.7670000  19.7830000   6.3250000
   6.9900000  20.8430000   6.0970000   5.5800000  20.4570000   4.1050000
   4.9460000  19.6820000   7.6990000   3.9620000  19.4620000   5.9350000
   7.1460000  20.7240000   7.4890000   7.9710000  21.4000000   5.2660000
   6.5610000  21.0140000   3.2740000   4.7660000  20.1400000   3.7330000
   3.9500000  19.0970000   8.5620000   6.1700000  20.1580000   8.2980000
   7.9480000  21.0410000   7.8890000   8.7840000  21.7180000   5.6390000
   7.7910000  21.5020000   3.8790000   6.4040000  21.1340000   1.8830000
   4.1480000  18.9990000   9.8980000   3.1400000  18.7730000   8.1870000
   6.3340000  20.0330000   9.7210000   8.7830000  22.0740000   3.0470000
   7.3800000  21.6990000   1.0730000   5.6030000  20.8160000   1.4820000
   5.3550000  19.4820000  10.4830000   3.4790000  18.6080000  10.4470000
   7.1340000  20.3390000  10.1330000   9.5890000  22.3950000   3.4360000
   8.6050000  22.1750000   1.6720000   7.2160000  21.8240000  -0.3500000
   5.4760000  19.4170000  11.4230000   9.6010000  22.7610000   0.8090000
   8.1950000  22.3750000  -1.1110000   6.4170000  21.5180000  -0.7610000
   9.4030000  22.8580000  -0.5270000  10.4110000  23.0850000   1.1840000
   8.0740000  22.4400000  -2.0520000  10.0710000  23.2500000  -1.0760000
   4.7880000   8.2750000  19.5490000   3.7960000   7.7030000  20.3810000
   6.0190000   8.7630000  20.1540000   4.6090000   8.3770000  18.1620000
   3.9750000   7.6020000  21.7560000   2.9910000   7.3820000  19.9920000
   6.1750000   8.6430000  21.5450000   7.0000000   9.3200000  19.3230000
   5.5900000   8.9340000  17.3310000   3.7950000   8.0590000  17.7890000
   2.9790000   7.0160000  22.6190000   5.1990000   8.0780000  22.3550000
   6.9770000   8.9610000  21.9460000   7.8130000   9.6370000  19.6950000
   6.8210000   9.4220000  17.9360000   5.4330000   9.0530000  15.9390000
   3.1770000   6.9190000  23.9550000   2.1690000   6.6920000  22.2440000
   5.3630000   7.9530000  23.7780000   7.8120000   9.9930000  17.1030000
   6.4090000   9.6190000  15.1300000   4.6320000   8.7360000  15.5390000
   4.3840000   7.4020000  24.5390000   2.5080000   6.5270000  24.5040000
   6.1630000   8.2590000  24.1890000   8.6180000  10.3150000  17.4930000
   7.6340000  10.0950000  15.7290000   6.2450000   9.7440000  13.7070000
   4.5050000   7.3370000  25.4800000   8.6300000  10.6800000  14.8660000
   7.2240000  10.2950000  12.9450000   5.4460000   9.4380000  13.2950000
   8.4320000  10.7780000  13.5300000   9.4400000  11.0040000  15.2410000
   7.1030000  10.3600000  12.0050000   9.1000000  11.1690000  12.9810000
   5.2890000  11.5510000  33.6060000   4.2970000  10.9800000  34.4380000
   6.5200000  12.0390000  34.2110000   5.1100000  11.6530000  32.2190000
   4.4760000  10.8790000  35.8130000   3.4920000  10.6590000  34.0490000
   6.6760000  11.9200000  35.6020000   7.5010000  12.5970000  33.3800000
   6.0910000  12.2110000  31.3880000   4.2960000  11.3360000  31.8460000
   3.4800000  10.2930000  36.6760000   5.7010000  11.3550000  36.4120000
   7.4780000  12.2380000  36.0030000   8.3150000  12.9140000  33.7520000
   7.3220000  12.6990000  31.9920000   5.9350000  12.3300000  29.9960000
   3.6780000  10.1960000  38.0110000   2.6700000   9.9690000  36.3010000
   5.8640000  11.2300000  37.8340000   8.3140000  13.2700000  31.1600000
   6.9100000  12.8950000  29.1870000   5.1330000  12.0130000  29.5960000
   4.8850000  10.6780000  38.5960000   3.0090000   9.8040000  38.5610000
   6.6640000  11.5360000  38.2460000   9.1190000  13.5910000  31.5500000
   8.1350000  13.3710000  29.7850000   6.7470000  13.0210000  27.7640000
   5.0060000  10.6140000  39.5370000   9.1310000  13.9570000  28.9220000
   7.7260000  13.5720000  27.0020000   5.9470000  12.7140000  27.3520000
   8.9330000  14.0540000  27.5870000   9.9410000  14.2810000  29.2980000
   7.6040000  13.6370000  26.0620000   9.6010000  14.4460000  27.0370000
  15.0620000  15.9920000  33.7920000  14.0770000  15.9960000  34.8110000
  16.3060000  15.2620000  34.0240000  14.8910000  16.6720000  32.5790000
  14.2730000  15.3370000  36.0110000  13.2630000  16.4640000  34.6660000
  16.4760000  14.5860000  35.2480000  17.2820000  15.2570000  33.0200000
  15.8670000  16.6660000  31.5750000  14.0780000  17.1440000  32.4480000
  13.2890000  15.3540000  37.0490000  15.5040000  14.6130000  36.2380000
  17.2780000  14.0980000  35.4000000  18.0950000  14.7850000  33.1510000
  17.1110000  15.9370000  31.8070000  15.6970000  17.3430000  30.3510000
  13.5000000  14.7100000  38.2210000  12.4740000  15.8230000  36.9120000
  15.6760000  13.9530000  37.4910000  18.0950000  15.9320000  30.7880000
  16.6690000  17.3160000  29.3610000  14.8950000  17.8310000  30.1990000
  14.7180000  13.9960000  38.4500000  12.8340000  14.7340000  38.8970000
  16.4780000  13.4720000  37.6570000  18.9100000  15.4650000  30.9320000
  17.9000000  16.5920000  29.5870000  16.4970000  17.9760000  28.1070000
  14.8560000  13.5510000  39.2780000  18.8840000  16.5750000  28.5500000
  17.4550000  17.9330000  27.1480000  15.6950000  18.4570000  27.9410000
  18.6730000  17.2180000  27.3780000  19.6990000  16.1060000  28.6860000
  17.3170000  18.3780000  26.3200000  19.3390000  17.1950000  26.7010000
   7.5570000  17.1010000  17.9360000   8.5490000  17.6720000  17.1030000
   6.3260000  16.6130000  17.3310000   7.7360000  16.9990000  19.3230000
   8.3700000  17.7730000  15.7290000   9.3540000  17.9930000  17.4930000
   6.1690000  16.7320000  15.9390000   5.3450000  16.0550000  18.1620000
   6.7550000  16.4410000  20.1540000   8.5500000  17.3160000  19.6950000
   9.3660000  18.3590000  14.8660000   7.1450000  17.2970000  15.1300000
   5.3680000  16.4140000  15.5390000   4.5310000  15.7380000  17.7890000
   5.5240000  15.9530000  19.5490000   6.9110000  16.3220000  21.5450000
   9.1680000  18.4560000  13.5300000  10.1760000  18.6830000  15.2410000
   6.9820000  17.4230000  13.7070000   4.5320000  15.3820000  20.3810000
   5.9350000  15.7570000  22.3550000   7.7130000  16.6390000  21.9460000
   7.9600000  17.9740000  12.9450000   9.8360000  18.8480000  12.9810000
   6.1820000  17.1160000  13.2950000   3.7270000  15.0610000  19.9920000
   4.7110000  15.2810000  21.7560000   6.0990000  15.6310000  23.7780000
   7.8390000  18.0380000  12.0050000   3.7150000  14.6950000  22.6190000
   5.1200000  15.0800000  24.5390000   6.8990000  15.9380000  24.1890000
   3.9130000  14.5980000  23.9550000   2.9050000  14.3710000  22.2440000
   5.2410000  15.0150000  25.4800000   3.2440000  14.2060000  24.5040000
  14.3260000   8.3130000  33.7920000  13.3410000   8.3180000  34.8110000
  15.5700000   7.5840000  34.0240000  14.1550000   8.9930000  32.5790000
  13.5370000   7.6590000  36.0110000  12.5270000   8.7850000  34.6660000
  15.7400000   6.9070000  35.2480000  16.5460000   7.5790000  33.0200000
  15.1310000   8.9880000  31.5750000  13.3420000   9.4650000  32.4480000
  12.5530000   7.6750000  37.0490000  14.7680000   6.9340000  36.2380000
  16.5410000   6.4200000  35.4000000  17.3590000   7.1060000  33.1510000
  16.3750000   8.2590000  31.8070000  14.9600000   9.6650000  30.3510000
  12.7640000   7.0320000  38.2210000  11.7380000   8.1440000  36.9120000
  14.9400000   6.2740000  37.4910000  17.3590000   8.2540000  30.7880000
  15.9330000   9.6370000  29.3610000  14.1590000  10.1520000  30.1990000
  13.9820000   6.3170000  38.4500000  12.0970000   7.0550000  38.8970000
  15.7420000   5.7930000  37.6570000  18.1740000   7.7860000  30.9320000
  17.1640000   8.9130000  29.5870000  15.7610000  10.2970000  28.1070000
  14.1200000   5.8720000  39.2780000  18.1480000   8.8960000  28.5500000
  16.7190000  10.2540000  27.1480000  14.9590000  10.7780000  27.9410000
  17.9370000   9.5400000  27.3780000  18.9630000   8.4270000  28.6860000
  16.5810000  10.6990000  26.3200000  18.6030000   9.5170000  26.7010000
  17.3460000  20.3390000  17.7500000  18.3300000  20.3340000  16.7310000
  16.1020000  21.0680000  17.5180000  17.5170000  19.6590000  18.9630000
  18.1350000  20.9930000  15.5300000  19.1450000  19.8670000  16.8760000
  15.9310000  21.7450000  16.2940000  15.1260000  21.0730000  18.5220000
  16.5410000  19.6640000  19.9670000  18.3300000  19.1870000  19.0940000
  19.1190000  20.9770000  14.4930000  16.9040000  21.7180000  15.3040000
  15.1300000  22.2320000  16.1420000  14.3120000  21.5460000  18.3910000
  15.2970000  20.3930000  19.7350000  16.7110000  18.9870000  21.1910000
  18.9080000  21.6200000  13.3210000  19.9340000  20.5080000  14.6290000
  16.7320000  22.3780000  14.0500000  14.3120000  20.3980000  20.7540000
  15.7390000  19.0150000  22.1810000  17.5120000  18.5000000  21.3430000
  17.6900000  22.3350000  13.0920000  19.5740000  21.5970000  12.6450000
  15.9300000  22.8590000  13.8840000  13.4980000  20.8660000  20.6090000
  14.5080000  19.7390000  21.9540000  15.9100000  18.3550000  23.4350000
  17.5510000  22.7800000  12.2640000  13.5240000  19.7560000  22.9920000
  14.9530000  18.3980000  24.3930000  16.7130000  17.8740000  23.6000000
  13.7350000  19.1120000  24.1640000  12.7090000  20.2250000  22.8550000
  15.0910000  17.9530000  25.2210000  13.0680000  19.1350000  24.8400000
  15.7980000  23.6700000  33.7920000  14.8140000  23.6750000  34.8110000
  17.0420000  22.9410000  34.0240000  15.6270000  24.3500000  32.5790000
  15.0090000  23.0160000  36.0110000  13.9990000  24.1430000  34.6660000
  17.2130000  22.2640000  35.2480000  18.0180000  22.9360000  33.0200000
  16.6030000  24.3450000  31.5750000  14.8140000  24.8230000  32.4480000
  14.0250000  23.0330000  37.0490000  16.2400000  22.2910000  36.2380000
  18.0140000  21.7770000  35.4000000  18.8310000  22.4630000  33.1510000
  17.8470000  23.6160000  31.8070000  16.4330000  25.0220000  30.3510000
  14.2360000  22.3890000  38.2210000  13.2100000  23.5010000  36.9120000
  16.4120000  21.6320000  37.4910000  18.8320000  23.6110000  30.7880000
  17.4050000  24.9950000  29.3610000  15.6320000  25.5090000  30.1990000
  15.4540000  21.6750000  38.4500000  13.5700000  22.4120000  38.8970000
  17.2140000  21.1500000  37.6570000  19.6460000  23.1430000  30.9320000
  18.6360000  24.2700000  29.5870000  17.2330000  25.6540000  28.1070000
  15.5920000  21.2300000  39.2780000  19.6200000  24.2530000  28.5500000
  18.1910000  25.6110000  27.1480000  16.4310000  26.1360000  27.9410000
  19.4090000  24.8970000  27.3780000  20.4350000  23.7850000  28.6860000
  18.0530000  26.0560000  26.3200000  20.0760000  24.8740000  26.7010000
  14.5610000  12.7150000  19.7350000  13.5760000  12.7200000  20.7540000
  15.8050000  11.9860000  19.9670000  14.3900000  13.3950000  18.5220000
  13.7720000  12.0600000  21.9540000  12.7620000  13.1870000  20.6090000
  15.9750000  11.3090000  21.1910000  16.7800000  11.9800000  18.9630000
  15.3660000  13.3900000  17.5180000  13.5760000  13.8670000  18.3910000
  12.7880000  12.0770000  22.9920000  15.0030000  11.3360000  22.1810000
  16.7760000  10.8210000  21.3430000  17.5940000  11.5080000  19.0940000
  16.6100000  12.6600000  17.7500000  15.1950000  14.0660000  16.2940000
  12.9990000  11.4340000  24.1640000  11.9730000  12.5460000  22.8550000
  15.1740000  10.6760000  23.4350000  17.5940000  12.6560000  16.7310000
  16.1680000  14.0390000  15.3040000  14.3940000  14.5540000  16.1420000
  14.2170000  10.7190000  24.3930000  12.3320000  11.4570000  24.8400000
  15.9770000  10.1950000  23.6000000  18.4090000  12.1880000  16.8760000
  17.3990000  13.3150000  15.5300000  15.9960000  14.6990000  14.0500000
  14.3550000  10.2740000  25.2210000  18.3830000  13.2980000  14.4930000
  16.9540000  14.6560000  13.0920000  15.1930000  15.1800000  13.8840000
  18.1720000  13.9420000  13.3210000  19.1980000  12.8290000  14.6290000
  16.8150000  15.1010000  12.2640000  18.8380000  13.9180000  12.6450000
  14.0590000   9.4380000   5.6780000  13.0750000   9.4430000   6.6970000
  15.3030000   8.7090000   5.9100000  13.8890000  10.1180000   4.4650000
  13.2710000   8.7840000   7.8980000  12.2610000   9.9100000   6.5520000
  15.4740000   8.0320000   7.1340000  16.2790000   8.7040000   4.9060000
  14.8650000  10.1130000   3.4610000  13.0750000  10.5900000   4.3340000
  12.2860000   8.8000000   8.9350000  14.5010000   8.0590000   8.1240000
  16.2750000   7.5440000   7.2860000  17.0930000   8.2310000   5.0370000
  16.1090000   9.3840000   3.6930000  14.6940000  10.7900000   2.2370000
  12.4980000   8.1570000  10.1070000  11.4720000   9.2690000   8.7990000
  14.6730000   7.3990000   9.3780000  17.0930000   9.3790000   2.6740000
  15.6670000  10.7620000   1.2470000  13.8930000  11.2770000   2.0850000
  13.7150000   7.4420000  10.3360000  11.8310000   8.1800000  10.7830000
  15.4760000   6.9180000   9.5440000  17.9070000   8.9110000   2.8190000
  16.8970000  10.0380000   1.4740000  15.4950000  11.4220000  -0.0070000
  13.8540000   6.9970000  11.1640000  17.8820000  10.0210000   0.4360000
  16.4530000  11.3790000  -0.9650000  14.6920000  11.9030000  -0.1720000
  17.6700000  10.6650000  -0.7360000  18.6960000   9.5520000   0.5730000
  16.3140000  11.8240000  -1.7930000  18.3370000  10.6410000  -1.4120000
  13.3230000   1.7590000   5.6780000  12.3390000   1.7640000   6.6970000
  14.5670000   1.0300000   5.9100000  13.1530000   2.4390000   4.4650000
  12.5340000   1.1050000   7.8980000  11.5250000   2.2320000   6.5520000
  14.7380000   0.3530000   7.1340000  15.5430000   1.0250000   4.9060000
  14.1280000   2.4340000   3.4610000  12.3390000   2.9120000   4.3340000
  11.5500000   1.1220000   8.9350000  13.7650000   0.3810000   8.1240000
  15.5390000  -0.1340000   7.2860000  16.3570000   0.5520000   5.0370000
  15.3720000   1.7050000   3.6930000  13.9580000   3.1110000   2.2370000
  11.7610000   0.4780000  10.1070000  10.7360000   1.5910000   8.7990000
  13.9370000  -0.2790000   9.3780000  16.3570000   1.7000000   2.6740000
  14.9310000   3.0840000   1.2470000  13.1570000   3.5980000   2.0850000
  12.9790000  -0.2360000  10.3360000  11.0950000   0.5010000  10.7830000
  14.7400000  -0.7600000   9.5440000  17.1710000   1.2320000   2.8190000
  16.1610000   2.3590000   1.4740000  14.7590000   3.7440000  -0.0070000
  13.1180000  -0.6810000  11.1640000  17.1450000   2.3430000   0.4360000
  15.7160000   3.7010000  -0.9650000  13.9560000   4.2250000  -0.1720000
  16.9340000   2.9860000  -0.7360000  17.9600000   1.8740000   0.5730000
  15.5780000   4.1460000  -1.7930000  17.6010000   2.9630000  -1.4120000
   6.0250000  19.2300000  33.6060000   5.0330000  18.6590000  34.4380000
   7.2560000  19.7180000  34.2110000   5.8460000  19.3320000  32.2190000
   5.2120000  18.5570000  35.8130000   4.2280000  18.3370000  34.0490000
   7.4130000  19.5990000  35.6020000   8.2370000  20.2750000  33.3800000
   6.8270000  19.8890000  31.3880000   5.0320000  19.0150000  31.8460000
   4.2160000  17.9720000  36.6760000   6.4370000  19.0330000  36.4120000
   8.2140000  19.9160000  36.0030000   9.0510000  20.5930000  33.7520000
   8.0580000  20.3770000  31.9920000   6.6710000  20.0090000  29.9960000
   4.4140000  17.8740000  38.0110000   3.4060000  17.6480000  36.3010000
   6.6000000  18.9080000  37.8340000   9.0500000  20.9490000  31.1600000
   7.6470000  20.5740000  29.1870000   5.8690000  19.6910000  29.5960000
   5.6210000  18.3570000  38.5960000   3.7460000  17.4830000  38.5610000
   7.4000000  19.2150000  38.2460000   9.8550000  21.2700000  31.5500000
   8.8710000  21.0500000  29.7850000   7.4830000  20.6990000  27.7640000
   5.7430000  18.2920000  39.5370000   9.8670000  21.6360000  28.9220000
   8.4620000  21.2500000  27.0020000   6.6830000  20.3930000  27.3520000
   9.6690000  21.7330000  27.5870000  10.6770000  21.9600000  29.2980000
   8.3410000  21.3150000  26.0620000  10.3380000  22.1250000  27.0370000
  15.8740000   4.9820000  17.7500000  16.8580000   4.9770000  16.7310000
  14.6300000   5.7110000  17.5180000  16.0440000   4.3020000  18.9630000
  16.6620000   5.6360000  15.5300000  17.6720000   4.5090000  16.8760000
  14.4590000   6.3880000  16.2940000  13.6540000   5.7160000  18.5220000
  15.0690000   4.3070000  19.9670000  16.8580000   3.8290000  19.0940000
  17.6470000   5.6190000  14.4930000  15.4320000   6.3610000  15.3040000
  13.6580000   6.8750000  16.1420000  12.8400000   6.1890000  18.3910000
  13.8240000   5.0360000  19.7350000  15.2390000   3.6300000  21.1910000
  17.4360000   6.2630000  13.3210000  18.4610000   5.1510000  14.6290000
  15.2600000   7.0200000  14.0500000  12.8400000   5.0410000  20.7540000
  14.2660000   3.6570000  22.1810000  16.0400000   3.1430000  21.3430000
  16.2180000   6.9770000  13.0920000  18.1020000   6.2400000  12.6450000
  14.4570000   7.5020000  13.8840000  12.0260000   5.5090000  20.6090000
  13.0360000   4.3820000  21.9540000  14.4380000   2.9980000  23.4350000
  16.0790000   7.4220000  12.2640000  12.0520000   4.3990000  22.9920000
  13.4810000   3.0410000  24.3930000  15.2410000   2.5160000  23.6000000
  12.2630000   3.7550000  24.1640000  11.2370000   4.8670000  22.8550000
  13.6190000   2.5960000  25.2210000  11.5960000   3.7780000  24.8400000
  14.7950000  17.1160000   5.6780000  13.8110000  17.1210000   6.6970000
  16.0400000  16.3870000   5.9100000  14.6250000  17.7970000   4.4650000
  14.0070000  16.4620000   7.8980000  12.9970000  17.5890000   6.5520000
  16.2100000  15.7110000   7.1340000  17.0150000  16.3820000   4.9060000
  15.6010000  17.7910000   3.4610000  13.8110000  18.2690000   4.3340000
  13.0220000  16.4790000   8.9350000  15.2370000  15.7380000   8.1240000
  17.0110000  15.2230000   7.2860000  17.8290000  15.9100000   5.0370000
  16.8450000  17.0620000   3.6930000  15.4300000  18.4680000   2.2370000
  13.2340000  15.8350000  10.1070000  12.2080000  16.9480000   8.7990000
  15.4090000  15.0780000   9.3780000  17.8290000  17.0570000   2.6740000
  16.4030000  18.4410000   1.2470000  14.6290000  18.9560000   2.0850000
  14.4520000  15.1210000  10.3360000  12.5670000  15.8590000  10.7830000
  16.2120000  14.5970000   9.5440000  18.6430000  16.5900000   2.8190000
  17.6330000  17.7170000   1.4740000  16.2310000  19.1010000  -0.0070000
  14.5900000  14.6760000  11.1640000  18.6180000  17.7000000   0.4360000
  17.1890000  19.0580000  -0.9650000  15.4280000  19.5820000  -0.1720000
  18.4060000  18.3430000  -0.7360000  19.4320000  17.2310000   0.5730000
  17.0500000  19.5030000  -1.7930000  19.0730000  18.3200000  -1.4120000
   8.2930000  24.7790000  17.9360000   9.2850000  25.3510000  17.1030000
   7.0620000  24.2910000  17.3310000   8.4720000  24.6770000  19.3230000
   9.1060000  25.4520000  15.7290000  10.0900000  25.6720000  17.4930000
   6.9060000  24.4110000  15.9390000   6.0810000  23.7340000  18.1620000
   7.4910000  24.1200000  20.1540000   9.2860000  24.9940000  19.6950000
  10.1020000  26.0380000  14.8660000   7.8810000  24.9760000  15.1300000
   6.1040000  24.0930000  15.5390000   5.2670000  23.4170000  17.7890000
   6.2600000  23.6320000  19.5490000   7.6470000  24.0000000  21.5450000
   9.9040000  26.1350000  13.5300000  10.9120000  26.3620000  15.2410000
   7.7180000  25.1010000  13.7070000   5.2680000  23.0600000  20.3810000
   6.6710000  23.4350000  22.3550000   8.4490000  24.3180000  21.9460000
   8.6970000  25.6520000  12.9450000  10.5720000  26.5270000  12.9810000
   6.9180000  24.7950000  13.2950000   4.4630000  22.7390000  19.9920000
   5.4470000  22.9590000  21.7560000   6.8350000  23.3100000  23.7780000
   8.5750000  25.7170000  12.0050000   4.4510000  22.3730000  22.6190000
   5.8560000  22.7590000  24.5390000   7.6350000  23.6160000  24.1890000
   4.6490000  22.2760000  23.9550000   3.6410000  22.0490000  22.2440000
   5.9770000  22.6940000  25.4800000   3.9800000  21.8840000  24.5040000
   6.7610000  26.9090000  33.6060000   5.7700000  26.3370000  34.4380000
   7.9920000  27.3970000  34.2110000   6.5820000  27.0110000  32.2190000
   5.9480000  26.2360000  35.8130000   4.9640000  26.0160000  34.0490000
   8.1490000  27.2770000  35.6020000   8.9730000  27.9540000  33.3800000
   7.5630000  27.5680000  31.3880000   5.7690000  26.6930000  31.8460000
   4.9520000  25.6500000  36.6760000   7.1730000  26.7120000  36.4120000
   8.9500000  27.5950000  36.0030000   9.7870000  28.2710000  33.7520000
   8.7940000  28.0560000  31.9920000   7.4070000  27.6870000  29.9960000
   5.1500000  25.5530000  38.0110000   4.1420000  25.3260000  36.3010000
   7.3370000  26.5870000  37.8340000   9.7860000  28.6280000  31.1600000
   8.3830000  28.2530000  29.1870000   6.6050000  27.3700000  29.5960000
   6.3580000  26.0360000  38.5960000   4.4820000  25.1610000  38.5610000
   8.1360000  26.8930000  38.2460000  10.5910000  28.9490000  31.5500000
   9.6070000  28.7290000  29.7850000   8.2190000  28.3780000  27.7640000
   6.4790000  25.9710000  39.5370000  10.6030000  29.3140000  28.9220000
   9.1980000  28.9290000  27.0020000   7.4190000  28.0720000  27.3520000
  10.4050000  29.4120000  27.5870000  11.4130000  29.6380000  29.2980000
   9.0770000  28.9940000  26.0620000  11.0740000  29.8030000  27.0370000
  17.8400000  11.5510000  33.6060000  16.8480000  10.9800000  34.4380000
  19.0710000  12.0390000  34.2110000  17.6600000  11.6530000  32.2190000
  17.0270000  10.8790000  35.8130000  16.0430000  10.6590000  34.0490000
  19.2270000  11.9200000  35.6020000  20.0520000  12.5970000  33.3800000
  18.6420000  12.2110000  31.3880000  16.8470000  11.3360000  31.8460000
  16.0310000  10.2930000  36.6760000  18.2510000  11.3550000  36.4120000
  20.0280000  12.2380000  36.0030000  20.8650000  12.9140000  33.7520000
  19.8720000  12.6990000  31.9920000  18.4850000  12.3300000  29.9960000
  16.2290000  10.1960000  38.0110000  15.2210000   9.9690000  36.3010000
  18.4150000  11.2300000  37.8340000  20.8640000  13.2700000  31.1600000
  19.4610000  12.8950000  29.1870000  17.6840000  12.0130000  29.5960000
  17.4360000  10.6780000  38.5960000  15.5600000   9.8040000  38.5610000
  19.2150000  11.5360000  38.2460000  21.6700000  13.5910000  31.5500000
  20.6860000  13.3710000  29.7850000  19.2970000  13.0210000  27.7640000
  17.5570000  10.6140000  39.5370000  21.6820000  13.9570000  28.9220000
  20.2760000  13.5720000  27.0020000  18.4970000  12.7140000  27.3520000
  21.4840000  14.0540000  27.5870000  22.4910000  14.2810000  29.2980000
  20.1550000  13.6370000  26.0620000  22.1520000  14.4460000  27.0370000
  17.3390000   8.2750000  19.5490000  16.3470000   7.7030000  20.3810000
  18.5690000   8.7630000  20.1540000  17.1590000   8.3770000  18.1620000
  16.5250000   7.6020000  21.7560000  15.5410000   7.3820000  19.9920000
  18.7260000   8.6430000  21.5450000  19.5510000   9.3200000  19.3230000
  18.1400000   8.9340000  17.3310000  16.3460000   8.0590000  17.7890000
  15.5290000   7.0160000  22.6190000  17.7500000   8.0780000  22.3550000
  19.5270000   8.9610000  21.9460000  20.3640000   9.6370000  19.6950000
  19.3710000   9.4220000  17.9360000  17.9840000   9.0530000  15.9390000
  15.7270000   6.9190000  23.9550000  14.7190000   6.6920000  22.2440000
  17.9140000   7.9530000  23.7780000  20.3630000   9.9930000  17.1030000
  18.9600000   9.6190000  15.1300000  17.1830000   8.7360000  15.5390000
  16.9350000   7.4020000  24.5390000  15.0590000   6.5270000  24.5040000
  18.7130000   8.2590000  24.1890000  21.1680000  10.3150000  17.4930000
  20.1840000  10.0950000  15.7290000  18.7960000   9.7440000  13.7070000
  17.0560000   7.3370000  25.4800000  21.1800000  10.6800000  14.8660000
  19.7750000  10.2950000  12.9450000  17.9960000   9.4380000  13.2950000
  20.9820000  10.7780000  13.5300000  21.9900000  11.0040000  15.2410000
  19.6540000  10.3600000  12.0050000  21.6510000  11.1690000  12.9810000
  20.1070000  17.1010000  17.9360000  21.0990000  17.6720000  17.1030000
  18.8760000  16.6130000  17.3310000  20.2870000  16.9990000  19.3230000
  20.9200000  17.7730000  15.7290000  21.9040000  17.9930000  17.4930000
  18.7200000  16.7320000  15.9390000  17.8950000  16.0550000  18.1620000
  19.3050000  16.4410000  20.1540000  21.1000000  17.3160000  19.6950000
  21.9160000  18.3590000  14.8660000  19.6960000  17.2970000  15.1300000
  17.9190000  16.4140000  15.5390000  17.0820000  15.7380000  17.7890000
  18.0750000  15.9530000  19.5490000  19.4620000  16.3220000  21.5450000
  21.7190000  18.4560000  13.5300000  22.7260000  18.6830000  15.2410000
  19.5320000  17.4230000  13.7070000  17.0830000  15.3820000  20.3810000
  18.4860000  15.7570000  22.3550000  20.2630000  16.6390000  21.9460000
  20.5110000  17.9740000  12.9450000  22.3870000  18.8480000  12.9810000
  18.7320000  17.1160000  13.2950000  16.2770000  15.0610000  19.9920000
  17.2610000  15.2810000  21.7560000  18.6500000  15.6310000  23.7780000
  20.3900000  18.0380000  12.0050000  16.2650000  14.6950000  22.6190000
  17.6710000  15.0800000  24.5390000  19.4500000  15.9380000  24.1890000
  16.4630000  14.5980000  23.9550000  15.4560000  14.3710000  22.2440000
  17.7920000  15.0150000  25.4800000  15.7950000  14.2060000  24.5040000
  18.5760000  19.2300000  33.6060000  17.5840000  18.6590000  34.4380000
  19.8070000  19.7180000  34.2110000  18.3970000  19.3320000  32.2190000
  17.7630000  18.5570000  35.8130000  16.7790000  18.3370000  34.0490000
  19.9630000  19.5990000  35.6020000  20.7880000  20.2750000  33.3800000
  19.3780000  19.8890000  31.3880000  17.5830000  19.0150000  31.8460000
  16.7670000  17.9720000  36.6760000  18.9870000  19.0330000  36.4120000
  20.7650000  19.9160000  36.0030000  21.6010000  20.5930000  33.7520000
  20.6090000  20.3770000  31.9920000  19.2210000  20.0090000  29.9960000
  16.9650000  17.8740000  38.0110000  15.9570000  17.6480000  36.3010000
  19.1510000  18.9080000  37.8340000  21.6000000  20.9490000  31.1600000
  20.1970000  20.5740000  29.1870000  18.4200000  19.6910000  29.5960000
  18.1720000  18.3570000  38.5960000  16.2960000  17.4830000  38.5610000
  19.9510000  19.2150000  38.2460000  22.4060000  21.2700000  31.5500000
  21.4220000  21.0500000  29.7850000  20.0330000  20.6990000  27.7640000
  18.2930000  18.2920000  39.5370000  22.4180000  21.6360000  28.9220000
  21.0120000  21.2500000  27.0020000  19.2340000  20.3930000  27.3520000
  22.2200000  21.7330000  27.5870000  23.2280000  21.9600000  29.2980000
  20.8910000  21.3150000  26.0620000  22.8880000  22.1250000  27.0370000
  19.3120000  26.9090000  33.6060000  18.3200000  26.3370000  34.4380000
  20.5430000  27.3970000  34.2110000  19.1330000  27.0110000  32.2190000
  18.4990000  26.2360000  35.8130000  17.5150000  26.0160000  34.0490000
  20.6990000  27.2770000  35.6020000  21.5240000  27.9540000  33.3800000
  20.1140000  27.5680000  31.3880000  18.3190000  26.6930000  31.8460000
  17.5030000  25.6500000  36.6760000  19.7230000  26.7120000  36.4120000
  21.5010000  27.5950000  36.0030000  22.3380000  28.2710000  33.7520000
  21.3450000  28.0560000  31.9920000  19.9570000  27.6870000  29.9960000
  17.7010000  25.5530000  38.0110000  16.6930000  25.3260000  36.3010000
  19.8870000  26.5870000  37.8340000  22.3370000  28.6280000  31.1600000
  20.9330000  28.2530000  29.1870000  19.1560000  27.3700000  29.5960000
  18.9080000  26.0360000  38.5960000  17.0320000  25.1610000  38.5610000
  20.6870000  26.8930000  38.2460000  23.1420000  28.9490000  31.5500000
  22.1580000  28.7290000  29.7850000  20.7690000  28.3780000  27.7640000
  19.0290000  25.9710000  39.5370000  23.1540000  29.3140000  28.9220000
  21.7480000  28.9290000  27.0020000  19.9700000  28.0720000  27.3520000
  22.9560000  29.4120000  27.5870000  23.9640000  29.6380000  29.2980000
  21.6270000  28.9940000  26.0620000  23.6240000  29.8030000  27.0370000
  16.8370000   4.9980000   5.4920000  15.8450000   4.4260000   6.3250000
  18.0680000   5.4860000   6.0970000  16.6580000   5.1000000   4.1050000
  16.0240000   4.3250000   7.6990000  15.0400000   4.1050000   5.9350000
  18.2250000   5.3660000   7.4890000  19.0490000   6.0430000   5.2660000
  17.6390000   5.6570000   3.2740000  15.8440000   4.7830000   3.7330000
  15.0280000   3.7390000   8.5620000  17.2490000   4.8010000   8.2980000
  19.0260000   5.6840000   7.8890000  19.8630000   6.3600000   5.6390000
  18.8700000   6.1450000   3.8790000  17.4830000   5.7770000   1.8830000
  15.2260000   3.6420000   9.8980000  14.2180000   3.4150000   8.1870000
  17.4120000   4.6760000   9.7210000  19.8620000   6.7170000   3.0470000
  18.4590000   6.3420000   1.0730000  16.6810000   5.4590000   1.4820000
  16.4330000   4.1250000  10.4830000  14.5580000   3.2500000  10.4470000
  18.2120000   4.9820000  10.1330000  20.6670000   7.0380000   3.4360000
  19.6830000   6.8180000   1.6720000  18.2950000   6.4670000  -0.3500000
  16.5550000   4.0600000  11.4230000  20.6790000   7.4040000   0.8090000
  19.2740000   7.0180000  -1.1110000  17.4950000   6.1610000  -0.7610000
  20.4810000   7.5010000  -0.5270000  21.4890000   7.7280000   1.1840000
  19.1530000   7.0830000  -2.0520000  21.1500000   7.8930000  -1.0760000
  17.5730000  12.6760000   5.4920000  16.5810000  12.1050000   6.3250000
  18.8040000  13.1640000   6.0970000  17.3940000  12.7780000   4.1050000
  16.7600000  12.0040000   7.6990000  15.7760000  11.7840000   5.9350000
  18.9610000  13.0450000   7.4890000  19.7850000  13.7220000   5.2660000
  18.3750000  13.3360000   3.2740000  16.5810000  12.4610000   3.7330000
  15.7640000  11.4180000   8.5620000  17.9850000  12.4800000   8.2980000
  19.7620000  13.3630000   7.8890000  20.5990000  14.0390000   5.6390000
  19.6060000  13.8240000   3.8790000  18.2190000  13.4550000   1.8830000
  15.9620000  11.3210000   9.8980000  14.9540000  11.0940000   8.1870000
  18.1490000  12.3540000   9.7210000  20.5980000  14.3950000   3.0470000
  19.1950000  14.0200000   1.0730000  17.4170000  13.1380000   1.4820000
  17.1700000  11.8030000  10.4830000  15.2940000  10.9290000  10.4470000
  18.9480000  12.6610000  10.1330000  21.4030000  14.7160000   3.4360000
  20.4190000  14.4960000   1.6720000  19.0310000  14.1460000  -0.3500000
  17.2910000  11.7380000  11.4230000  21.4150000  15.0820000   0.8090000
  20.0100000  14.6970000  -1.1110000  18.2310000  13.8390000  -0.7610000
  21.2170000  15.1790000  -0.5270000  22.2250000  15.4060000   1.1840000
  19.8890000  14.7620000  -2.0520000  21.8860000  15.5710000  -1.0760000
  20.8430000  24.7790000  17.9360000  21.8350000  25.3510000  17.1030000
  19.6130000  24.2910000  17.3310000  21.0230000  24.6770000  19.3230000
  21.6570000  25.4520000  15.7290000  22.6410000  25.6720000  17.4930000
  19.4560000  24.4110000  15.9390000  18.6310000  23.7340000  18.1620000
  20.0420000  24.1200000  20.1540000  21.8360000  24.9940000  19.6950000
  22.6530000  26.0380000  14.8660000  20.4320000  24.9760000  15.1300000
  18.6550000  24.0930000  15.5390000  17.8180000  23.4170000  17.7890000
  18.8110000  23.6320000  19.5490000  20.1980000  24.0000000  21.5450000
  22.4550000  26.1350000  13.5300000  23.4620000  26.3620000  15.2410000
  20.2680000  25.1010000  13.7070000  17.8190000  23.0600000  20.3810000
  19.2220000  23.4350000  22.3550000  20.9990000  24.3180000  21.9460000
  21.2470000  25.6520000  12.9450000  23.1230000  26.5270000  12.9810000
  19.4680000  24.7950000  13.2950000  17.0140000  22.7390000  19.9920000
  17.9980000  22.9590000  21.7560000  19.3860000  23.3100000  23.7780000
  21.1260000  25.7170000  12.0050000  17.0020000  22.3730000  22.6190000
  18.4070000  22.7590000  24.5390000  20.1860000  23.6160000  24.1890000
  17.1990000  22.2760000  23.9550000  16.1920000  22.0490000  22.2440000
  18.5280000  22.6940000  25.4800000  16.5310000  21.8840000  24.5040000
  18.3100000  20.3550000   5.4920000  17.3180000  19.7830000   6.3250000
  19.5400000  20.8430000   6.0970000  18.1300000  20.4570000   4.1050000
  17.4960000  19.6820000   7.6990000  16.5120000  19.4620000   5.9350000
  19.6970000  20.7240000   7.4890000  20.5210000  21.4000000   5.2660000
  19.1110000  21.0140000   3.2740000  17.3170000  20.1400000   3.7330000
  16.5000000  19.0970000   8.5620000  18.7210000  20.1580000   8.2980000
  20.4980000  21.0410000   7.8890000  21.3350000  21.7180000   5.6390000
  20.3420000  21.5020000   3.8790000  18.9550000  21.1340000   1.8830000
  16.6980000  18.9990000   9.8980000  15.6900000  18.7730000   8.1870000
  18.8850000  20.0330000   9.7210000  21.3340000  22.0740000   3.0470000
  19.9310000  21.6990000   1.0730000  18.1530000  20.8160000   1.4820000
  17.9060000  19.4820000  10.4830000  16.0300000  18.6080000  10.4470000
  19.6840000  20.3390000  10.1330000  22.1390000  22.3950000   3.4360000
  21.1550000  22.1750000   1.6720000  19.7670000  21.8240000  -0.3500000
  18.0270000  19.4170000  11.4230000  22.1510000  22.7610000   0.8090000
  20.7460000  22.3750000  -1.1110000  18.9670000  21.5180000  -0.7610000
  21.9530000  22.8580000  -0.5270000  22.9610000  23.0850000   1.1840000
  20.6250000  22.4400000  -2.0520000  22.6220000  23.2500000  -1.0760000
   4.0590000  12.6600000  17.7500000   5.0440000  12.6560000  16.7310000
   2.8150000  13.3900000  17.5180000   4.2300000  11.9800000  18.9630000
   4.8480000  13.3150000  15.5300000   5.8580000  12.1880000  16.8760000
   2.6450000  14.0660000  16.2940000   1.8390000  13.3950000  18.5220000
   3.2540000  11.9860000  19.9670000   5.0440000  11.5080000  19.0940000
   5.8320000  13.2980000  14.4930000   3.6170000  14.0390000  15.3040000
   1.8440000  14.5540000  16.1420000   1.0260000  13.8670000  18.3910000
   2.0100000  12.7150000  19.7350000   3.4250000  11.3090000  21.1910000
   5.6210000  13.9420000  13.3210000   6.6470000  12.8290000  14.6290000
   3.4460000  14.6990000  14.0500000   1.0260000  12.7200000  20.7540000
   2.4520000  11.3360000  22.1810000   4.2260000  10.8210000  21.3430000
   4.4030000  14.6560000  13.0920000   6.2880000  13.9180000  12.6450000
   2.6430000  15.1800000  13.8840000   0.2110000  13.1870000  20.6090000
   1.2210000  12.0600000  21.9540000   2.6240000  10.6760000  23.4350000
   4.2650000  15.1010000  12.2640000   0.2370000  12.0770000  22.9920000
   1.6660000  10.7190000  24.3930000   3.4260000  10.1950000  23.6000000
   0.4480000  11.4340000  24.1640000  -0.5780000  12.5460000  22.8550000
   1.8050000  10.2740000  25.2210000  -0.2180000  11.4570000  24.8400000
   3.5580000   9.3840000   3.6930000   4.5420000   9.3790000   2.6740000
   2.3140000  10.1130000   3.4610000   3.7290000   8.7040000   4.9060000
   4.3470000  10.0380000   1.4740000   5.3570000   8.9110000   2.8190000
   2.1430000  10.7900000   2.2370000   1.3380000  10.1180000   4.4650000
   2.7530000   8.7090000   5.9100000   4.5420000   8.2310000   5.0370000
   5.3310000  10.0210000   0.4360000   3.1160000  10.7620000   1.2470000
   1.3420000  11.2770000   2.0850000   0.5250000  10.5900000   4.3340000
   1.5090000   9.4380000   5.6780000   2.9230000   8.0320000   7.1340000
   5.1200000  10.6650000  -0.7360000   6.1460000   9.5520000   0.5730000
   2.9440000  11.4220000  -0.0070000   0.5240000   9.4430000   6.6970000
   1.9510000   8.0590000   8.1240000   3.7240000   7.5440000   7.2860000
   3.9020000  11.3790000  -0.9650000   5.7860000  10.6410000  -1.4120000
   2.1420000  11.9030000  -0.1720000  -0.2900000   9.9100000   6.5520000
   0.7200000   8.7840000   7.8980000   2.1230000   7.3990000   9.3780000
   3.7630000  11.8240000  -1.7930000  -0.2640000   8.8000000   8.9350000
   1.1650000   7.4420000  10.3360000   2.9250000   6.9180000   9.5440000
  -0.0530000   8.1570000  10.1070000  -1.0790000   9.2690000   8.7990000
   1.3030000   6.9970000  11.1640000  -0.7200000   8.1800000  10.7830000
   4.5610000  15.9370000  31.8070000   5.5450000  15.9320000  30.7880000
   3.3160000  16.6660000  31.5750000   4.7310000  15.2570000  33.0200000
   5.3490000  16.5920000  29.5870000   6.3590000  15.4650000  30.9320000
   3.1460000  17.3430000  30.3510000   2.3410000  16.6720000  32.5790000
   3.7550000  15.2620000  34.0240000   5.5450000  14.7850000  33.1510000
   6.3330000  16.5750000  28.5500000   4.1190000  17.3160000  29.3610000
   2.3450000  17.8310000  30.1990000   1.5270000  17.1440000  32.4480000
   2.5110000  15.9920000  33.7920000   3.9260000  14.5860000  35.2480000
   6.1220000  17.2180000  27.3780000   7.1480000  16.1060000  28.6860000
   3.9470000  17.9760000  28.1070000   1.5270000  15.9960000  34.8110000
   2.9530000  14.6130000  36.2380000   4.7270000  14.0980000  35.4000000
   4.9040000  17.9330000  27.1480000   6.7890000  17.1950000  26.7010000
   3.1440000  18.4570000  27.9410000   0.7130000  16.4640000  34.6660000
   1.7230000  15.3370000  36.0110000   3.1250000  13.9530000  37.4910000
   4.7660000  18.3780000  26.3200000   0.7380000  15.3540000  37.0490000
   2.1670000  13.9960000  38.4500000   3.9280000  13.4720000  37.6570000
   0.9500000  14.7100000  38.2210000  -0.0760000  15.8230000  36.9120000
   2.3060000  13.5510000  39.2780000   0.2830000  14.7340000  38.8970000
   0.7730000   1.7590000   5.6780000  -0.2120000   1.7640000   6.6970000
   2.0170000   1.0300000   5.9100000   0.6020000   2.4390000   4.4650000
  -0.0160000   1.1050000   7.8980000  -1.0260000   2.2320000   6.5520000
   2.1870000   0.3530000   7.1340000   2.9920000   1.0250000   4.9060000
   1.5780000   2.4340000   3.4610000  -0.2120000   2.9120000   4.3340000
  -1.0000000   1.1220000   8.9350000   1.2150000   0.3810000   8.1240000
   2.9880000  -0.1340000   7.2860000   3.8060000   0.5520000   5.0370000
   2.8220000   1.7050000   3.6930000   1.4070000   3.1110000   2.2370000
  -0.7890000   0.4780000  10.1070000  -1.8150000   1.5910000   8.7990000
   1.3860000  -0.2790000   9.3780000   3.8060000   1.7000000   2.6740000
   2.3800000   3.0840000   1.2470000   0.6060000   3.5980000   2.0850000
   0.4290000  -0.2360000  10.3360000  -1.4560000   0.5010000  10.7830000
   2.1890000  -0.7600000   9.5440000   4.6210000   1.2320000   2.8190000
   3.6110000   2.3590000   1.4740000   2.2080000   3.7440000  -0.0070000
   0.5670000  -0.6810000  11.1640000   4.5950000   2.3430000   0.4360000
   3.1660000   3.7010000  -0.9650000   1.4060000   4.2250000  -0.1720000
   4.3840000   2.9860000  -0.7360000   5.4100000   1.8740000   0.5730000
   3.0270000   4.1460000  -1.7930000   5.0500000   2.9630000  -1.4120000
   1.7750000   8.3130000  33.7920000   0.7910000   8.3180000  34.8110000
   3.0190000   7.5840000  34.0240000   1.6050000   8.9930000  32.5790000
   0.9860000   7.6590000  36.0110000  -0.0240000   8.7850000  34.6660000
   3.1900000   6.9070000  35.2480000   3.9950000   7.5790000  33.0200000
   2.5800000   8.9880000  31.5750000   0.7910000   9.4650000  32.4480000
   0.0020000   7.6750000  37.0490000   2.2170000   6.9340000  36.2380000
   3.9910000   6.4200000  35.4000000   4.8090000   7.1060000  33.1510000
   3.8240000   8.2590000  31.8070000   2.4100000   9.6650000  30.3510000
   0.2130000   7.0320000  38.2210000  -0.8130000   8.1440000  36.9120000
   2.3890000   6.2740000  37.4910000   4.8090000   8.2540000  30.7880000
   3.3820000   9.6370000  29.3610000   1.6090000  10.1520000  30.1990000
   1.4310000   6.3170000  38.4500000  -0.4530000   7.0550000  38.8970000
   3.1920000   5.7930000  37.6570000   5.6230000   7.7860000  30.9320000
   4.6130000   8.9130000  29.5870000   3.2110000  10.2970000  28.1070000
   1.5700000   5.8720000  39.2780000   5.5970000   8.8960000  28.5500000
   4.1680000  10.2540000  27.1480000   2.4080000  10.7780000  27.9410000
   5.3860000   9.5400000  27.3780000   6.4120000   8.4270000  28.6860000
   4.0300000  10.6990000  26.3200000   6.0530000   9.5170000  26.7010000
   3.3230000   4.9820000  17.7500000   4.3080000   4.9770000  16.7310000
   2.0790000   5.7110000  17.5180000   3.4940000   4.3020000  18.9630000
   4.1120000   5.6360000  15.5300000   5.1220000   4.5090000  16.8760000
   1.9090000   6.3880000  16.2940000   1.1030000   5.7160000  18.5220000
   2.5180000   4.3070000  19.9670000   4.3070000   3.8290000  19.0940000
   5.0960000   5.6190000  14.4930000   2.8810000   6.3610000  15.3040000
   1.1070000   6.8750000  16.1420000   0.2900000   6.1890000  18.3910000
   1.2740000   5.0360000  19.7350000   2.6880000   3.6300000  21.1910000
   4.8850000   6.2630000  13.3210000   5.9110000   5.1510000  14.6290000
   2.7090000   7.0200000  14.0500000   0.2900000   5.0410000  20.7540000
   1.7160000   3.6570000  22.1810000   3.4900000   3.1430000  21.3430000
   3.6670000   6.9770000  13.0920000   5.5510000   6.2400000  12.6450000
   1.9070000   7.5020000  13.8840000  -0.5250000   5.5090000  20.6090000
   0.4850000   4.3820000  21.9540000   1.8880000   2.9980000  23.4350000
   3.5290000   7.4220000  12.2640000  -0.4990000   4.3990000  22.9920000
   0.9300000   3.0410000  24.3930000   2.6900000   2.5160000  23.6000000
  -0.2880000   3.7550000  24.1640000  -1.3140000   4.8670000  22.8550000
   1.0680000   2.5960000  25.2210000  -0.9540000   3.7780000  24.8400000
   4.7950000  20.3390000  17.7500000   5.7800000  20.3340000  16.7310000
   3.5510000  21.0680000  17.5180000   4.9660000  19.6590000  18.9630000
   5.5840000  20.9930000  15.5300000   6.5940000  19.8670000  16.8760000
   3.3810000  21.7450000  16.2940000   2.5760000  21.0730000  18.5220000
   3.9900000  19.6640000  19.9670000   5.7800000  19.1870000  19.0940000
   6.5680000  20.9770000  14.4930000   4.3530000  21.7180000  15.3040000
   2.5800000  22.2320000  16.1420000   1.7620000  21.5460000  18.3910000
   2.7460000  20.3930000  19.7350000   4.1610000  18.9870000  21.1910000
   6.3570000  21.6200000  13.3210000   7.3830000  20.5080000  14.6290000
   4.1820000  22.3780000  14.0500000   1.7620000  20.3980000  20.7540000
   3.1880000  19.0150000  22.1810000   4.9620000  18.5000000  21.3430000
   5.1390000  22.3350000  13.0920000   7.0240000  21.5970000  12.6450000
   3.3790000  22.8590000  13.8840000   0.9470000  20.8660000  20.6090000
   1.9570000  19.7390000  21.9540000   3.3600000  18.3550000  23.4350000
   5.0010000  22.7800000  12.2640000   0.9730000  19.7560000  22.9920000
   2.4020000  18.3980000  24.3930000   4.1630000  17.8740000  23.6000000
   1.1840000  19.1120000  24.1640000   0.1580000  20.2250000  22.8550000
   2.5410000  17.9530000  25.2210000   0.5180000  19.1350000  24.8400000
   5.2970000  23.6160000  31.8070000   6.2810000  23.6110000  30.7880000
   4.0530000  24.3450000  31.5750000   5.4670000  22.9360000  33.0200000
   6.0850000  24.2700000  29.5870000   7.0950000  23.1430000  30.9320000
   3.8820000  25.0220000  30.3510000   3.0770000  24.3500000  32.5790000
   4.4910000  22.9410000  34.0240000   6.2810000  22.4630000  33.1510000
   7.0700000  24.2530000  28.5500000   4.8550000  24.9950000  29.3610000
   3.0810000  25.5090000  30.1990000   2.2630000  24.8230000  32.4480000
   3.2470000  23.6700000  33.7920000   4.6620000  22.2640000  35.2480000
   6.8580000  24.8970000  27.3780000   7.8840000  23.7850000  28.6860000
   4.6830000  25.6540000  28.1070000   2.2630000  23.6750000  34.8110000
   3.6890000  22.2910000  36.2380000   5.4630000  21.7770000  35.4000000
   5.6410000  25.6110000  27.1480000   7.5250000  24.8740000  26.7010000
   3.8800000  26.1360000  27.9410000   1.4490000  24.1430000  34.6660000
   2.4590000  23.0160000  36.0110000   3.8610000  21.6320000  37.4910000
   5.5020000  26.0560000  26.3200000   1.4740000  23.0330000  37.0490000
   2.9030000  21.6750000  38.4500000   4.6640000  21.1500000  37.6570000
   1.6860000  22.3890000  38.2210000   0.6600000  23.5010000  36.9120000
   3.0420000  21.2300000  39.2780000   1.0190000  22.4120000  38.8970000
   2.2450000  17.1160000   5.6780000   1.2600000  17.1210000   6.6970000
   3.4890000  16.3870000   5.9100000   2.0740000  17.7970000   4.4650000
   1.4560000  16.4620000   7.8980000   0.4460000  17.5890000   6.5520000
   3.6590000  15.7110000   7.1340000   4.4650000  16.3820000   4.9060000
   3.0500000  17.7910000   3.4610000   1.2610000  18.2690000   4.3340000
   0.4720000  16.4790000   8.9350000   2.6870000  15.7380000   8.1240000
   4.4610000  15.2230000   7.2860000   5.2780000  15.9100000   5.0370000
   4.2940000  17.0620000   3.6930000   2.8800000  18.4680000   2.2370000
   0.6830000  15.8350000  10.1070000  -0.3430000  16.9480000   8.7990000
   2.8590000  15.0780000   9.3780000   5.2780000  17.0570000   2.6740000
   3.8520000  18.4410000   1.2470000   2.0780000  18.9560000   2.0850000
   1.9010000  15.1210000  10.3360000   0.0170000  15.8590000  10.7830000
   3.6610000  14.5970000   9.5440000   6.0930000  16.5900000   2.8190000
   5.0830000  17.7170000   1.4740000   3.6800000  19.1010000  -0.0070000
   2.0390000  14.6760000  11.1640000   6.0670000  17.7000000   0.4360000
   4.6380000  19.0580000  -0.9650000   2.8780000  19.5820000  -0.1720000
   5.8560000  18.3430000  -0.7360000   6.8820000  17.2310000   0.5730000
   4.5000000  19.5030000  -1.7930000   6.5220000  18.3200000  -1.4120000
  18.8260000  23.1410000  43.3270000  76.7500000  88.0100000  84.5200000
