default_name
  9000
   9.2230000  18.4630000  48.7860000   8.2390000  18.4680000  49.8050000
  10.4670000  17.7340000  49.0180000   9.0530000  19.1430000  47.5720000
   8.4340000  17.8090000  51.0050000   7.4240000  18.9360000  49.6600000
  10.6380000  17.0570000  50.2420000  11.4430000  17.7290000  48.0140000
  10.0280000  19.1380000  46.5690000   8.2390000  19.6160000  47.4420000
   7.4500000  17.8250000  52.0430000   9.6650000  17.0840000  51.2310000
  11.4390000  16.5700000  50.3940000  12.2570000  17.2560000  48.1450000
  11.2720000  18.4090000  46.8010000   9.8580000  19.8150000  45.3440000
   7.6610000  17.1820000  53.2150000   6.6350000  18.2940000  51.9060000
   9.8370000  16.4240000  52.4850000  12.2570000  18.4040000  45.7820000
  10.8300000  19.7870000  44.3550000   9.0570000  20.3020000  45.1930000
   8.8790000  16.4680000  53.4440000   6.9950000  17.2050000  53.8910000
  10.6390000  15.9430000  52.6510000  13.0710000  17.9360000  45.9260000
  12.0610000  19.0630000  44.5810000  10.6590000  20.4470000  43.1010000
   9.0180000  16.0220000  54.2720000  13.0450000  19.0460000  43.5440000
  11.6160000  20.4040000  42.1420000   9.8560000  20.9280000  42.9350000
  12.8340000  19.6900000  42.3710000  13.8600000  18.5770000  43.6800000
  11.4780000  20.8490000  41.3140000  13.5010000  19.6670000  41.6950000
  10.7710000  15.1320000  32.7440000  11.7550000  15.1270000  31.7250000
   9.5270000  15.8610000  32.5120000  10.9420000  14.4520000  33.9570000
  11.5600000  15.7860000  30.5240000  12.5700000  14.6590000  31.8700000
   9.3570000  16.5380000  31.2880000   8.5510000  15.8660000  33.5160000
   9.9660000  14.4570000  34.9610000  11.7550000  13.9790000  34.0880000
  12.5440000  15.7690000  29.4870000  10.3290000  16.5110000  30.2980000
   8.5550000  17.0250000  31.1360000   7.7380000  16.3390000  33.3850000
   8.7220000  15.1860000  34.7290000  10.1360000  13.7800000  36.1850000
  12.3330000  16.4130000  28.3150000  13.3590000  15.3010000  29.6230000
  10.1570000  17.1700000  29.0440000   7.7370000  15.1910000  35.7480000
   9.1640000  13.8080000  37.1750000  10.9380000  13.2930000  36.3370000
  11.1150000  17.1270000  28.0860000  12.9990000  16.3900000  27.6390000
   9.3550000  17.6520000  28.8780000   6.9230000  15.6590000  35.6030000
   7.9330000  14.5320000  36.9480000   9.3360000  13.1480000  38.4290000
  10.9770000  17.5730000  27.2580000   6.9490000  14.5490000  37.9860000
   8.3780000  13.1910000  39.3870000  10.1380000  12.6660000  38.5940000
   7.1600000  13.9050000  39.1580000   6.1340000  15.0180000  37.8490000
   8.5160000  12.7460000  40.2150000   6.4940000  13.9280000  39.8340000
   8.2210000  11.9090000  20.6720000   7.2360000  11.9140000  21.6910000
   9.4650000  11.1800000  20.9040000   8.0500000  12.5890000  19.4590000
   7.4320000  11.2550000  22.8920000   6.4220000  12.3820000  21.5460000
   9.6350000  10.5030000  22.1280000  10.4400000  11.1750000  19.9000000
   9.0260000  12.5840000  18.4550000   7.2360000  13.0620000  19.3280000
   6.4480000  11.2720000  23.9290000   8.6630000  10.5310000  23.1180000
  10.4360000  10.0160000  22.2800000  11.2540000  10.7030000  20.0310000
  10.2700000  11.8550000  18.6870000   8.8550000  13.2610000  17.2310000
   6.6590000  10.6280000  25.1010000   5.6330000  11.7410000  23.7930000
   8.8340000   9.8710000  24.3720000  11.2540000  11.8500000  17.6680000
   9.8280000  13.2340000  16.2410000   8.0540000  13.7490000  17.0790000
   7.8770000   9.9140000  25.3300000   5.9920000  10.6520000  25.7770000
   9.6370000   9.3900000  24.5380000  12.0690000  11.3830000  17.8130000
  11.0590000  12.5090000  16.4680000   9.6560000  13.8940000  14.9870000
   8.0150000   9.4690000  26.1580000  12.0430000  12.4930000  15.4300000
  10.6140000  13.8510000  14.0290000   8.8530000  14.3750000  14.8220000
  11.8320000  13.1360000  14.2580000  12.8580000  12.0240000  15.5670000
  10.4750000  14.2960000  13.2010000  12.4980000  13.1130000  13.5820000
   8.9570000  19.5880000  20.6720000   7.9720000  19.5930000  21.6910000
  10.2010000  18.8590000  20.9040000   8.7860000  20.2680000  19.4590000
   8.1680000  18.9340000  22.8920000   7.1580000  20.0600000  21.5460000
  10.3710000  18.1820000  22.1280000  11.1770000  18.8540000  19.9000000
   9.7620000  20.2630000  18.4550000   7.9720000  20.7410000  19.3280000
   7.1840000  18.9500000  23.9290000   9.3990000  18.2090000  23.1180000
  11.1720000  17.6950000  22.2800000  11.9900000  18.3810000  20.0310000
  11.0060000  19.5340000  18.6870000   9.5910000  20.9400000  17.2310000
   7.3950000  18.3070000  25.1010000   6.3690000  19.4190000  23.7930000
   9.5700000  17.5490000  24.3720000  11.9900000  19.5290000  17.6680000
  10.5640000  20.9120000  16.2410000   8.7900000  21.4270000  17.0790000
   8.6130000  17.5920000  25.3300000   6.7280000  18.3300000  25.7770000
  10.3730000  17.0680000  24.5380000  12.8050000  19.0610000  17.8130000
  11.7950000  20.1880000  16.4680000  10.3920000  21.5720000  14.9870000
   8.7510000  17.1470000  26.1580000  12.7790000  20.1710000  15.4300000
  11.3500000  21.5290000  14.0290000   9.5900000  22.0530000  14.8220000
  12.5680000  20.8150000  14.2580000  13.5940000  19.7020000  15.5670000
  11.2110000  21.9740000  13.2010000  13.2340000  20.7920000  13.5820000
  13.2140000  42.5700000  18.6870000  14.1990000  42.5650000  17.6680000
  11.9700000  43.2990000  18.4550000  13.3850000  41.8890000  19.9000000
  14.0030000  43.2240000  16.4680000  15.0130000  42.0970000  17.8130000
  11.8000000  43.9750000  17.2310000  10.9940000  43.3040000  19.4590000
  12.4090000  41.8950000  20.9040000  14.1990000  41.4170000  20.0310000
  14.9870000  43.2070000  15.4300000  12.7720000  43.9480000  16.2410000
  10.9990000  44.4630000  17.0790000  10.1810000  43.7760000  19.3280000
  11.1650000  42.6240000  20.6720000  12.5800000  41.2180000  22.1280000
  14.7760000  43.8510000  14.2580000  15.8020000  42.7380000  15.5670000
  12.6010000  44.6080000  14.9870000  10.1810000  42.6290000  21.6910000
  11.6070000  41.2450000  23.1180000  13.3810000  40.7300000  22.2800000
  13.5580000  44.5650000  14.0290000  15.4430000  43.8270000  13.5820000
  11.7980000  45.0890000  14.8220000   9.3660000  43.0960000  21.5460000
  10.3760000  41.9690000  22.8920000  11.7790000  40.5850000  24.3720000
  13.4200000  45.0100000  13.2010000   9.3920000  41.9860000  23.9290000
  10.8210000  40.6280000  25.3300000  12.5810000  40.1040000  24.5380000
   9.6030000  41.3430000  25.1010000   8.5770000  42.4550000  23.7930000
  10.9600000  40.1830000  26.1580000   8.9370000  41.3660000  25.7770000
   9.6930000  27.2670000  20.6720000   8.7080000  27.2710000  21.6910000
  10.9370000  26.5370000  20.9040000   9.5220000  27.9470000  19.4590000
   8.9040000  26.6120000  22.8920000   7.8940000  27.7390000  21.5460000
  11.1070000  25.8610000  22.1280000  11.9130000  26.5320000  19.9000000
  10.4980000  27.9410000  18.4550000   8.7090000  28.4190000  19.3280000
   7.9200000  26.6290000  23.9290000  10.1350000  25.8880000  23.1180000
  11.9090000  25.3730000  22.2800000  12.7260000  26.0600000  20.0310000
  11.7420000  27.2120000  18.6870000  10.3280000  28.6180000  17.2310000
   8.1310000  25.9850000  25.1010000   7.1050000  27.0980000  23.7930000
  10.3070000  25.2280000  24.3720000  12.7260000  27.2070000  17.6680000
  11.3000000  28.5910000  16.2410000   9.5260000  29.1060000  17.0790000
   9.3490000  25.2710000  25.3300000   7.4650000  26.0090000  25.7770000
  11.1090000  24.7470000  24.5380000  13.5410000  26.7400000  17.8130000
  12.5310000  27.8670000  16.4680000  11.1280000  29.2510000  14.9870000
   9.4870000  24.8260000  26.1580000  13.5150000  27.8500000  15.4300000
  12.0860000  29.2080000  14.0290000  10.3260000  29.7320000  14.8220000
  13.3040000  28.4930000  14.2580000  14.3300000  27.3810000  15.5670000
  11.9480000  29.6530000  13.2010000  13.9700000  28.4700000  13.5820000
  11.2410000  23.9350000   4.6300000  12.2250000  23.9310000   3.6110000
   9.9970000  24.6650000   4.3980000  11.4110000  23.2550000   5.8430000
  12.0300000  24.5900000   2.4110000  13.0390000  23.4630000   3.7560000
   9.8260000  25.3410000   3.1740000   9.0210000  24.6700000   5.4020000
  10.4360000  23.2610000   6.8470000  12.2250000  22.7830000   5.9740000
  13.0140000  24.5730000   1.3730000  10.7990000  25.3140000   2.1840000
   9.0250000  25.8290000   3.0220000   8.2070000  25.1420000   5.2710000
   9.1920000  23.9900000   6.6150000  10.6060000  22.5840000   8.0710000
  12.8030000  25.2170000   0.2010000  13.8280000  24.1040000   1.5100000
  10.6270000  25.9740000   0.9310000   8.2070000  23.9950000   7.6340000
   9.6330000  22.6110000   9.0610000  11.4070000  22.0960000   8.2230000
  11.5850000  25.9310000  -0.0280000  13.4690000  25.1930000  -0.4750000
   9.8240000  26.4550000   0.7650000   7.3930000  24.4620000   7.4890000
   8.4030000  23.3350000   8.8350000   9.8050000  21.9510000  10.3150000
  11.4460000  26.3760000  -0.8560000   7.4190000  23.3520000   9.8720000
   8.8480000  21.9940000  11.2740000  10.6080000  21.4700000  10.4810000
   7.6300000  22.7090000  11.0440000   6.6040000  23.8210000   9.7360000
   8.9860000  21.5490000  12.1020000   6.9630000  22.7320000  11.7210000
  10.6950000  33.8200000  48.7860000   9.7110000  33.8250000  49.8050000
  11.9390000  33.0910000  49.0180000  10.5250000  34.5000000  47.5720000
   9.9070000  33.1660000  51.0050000   8.8970000  34.2930000  49.6600000
  12.1100000  32.4140000  50.2420000  12.9150000  33.0860000  48.0140000
  11.5010000  34.4950000  46.5690000   9.7110000  34.9730000  47.4420000
   8.9220000  33.1830000  52.0430000  11.1370000  32.4420000  51.2310000
  12.9110000  31.9270000  50.3940000  13.7290000  32.6130000  48.1450000
  12.7450000  33.7660000  46.8010000  11.3300000  35.1720000  45.3440000
   9.1340000  32.5390000  53.2150000   8.1080000  33.6520000  51.9060000
  11.3090000  31.7820000  52.4850000  13.7290000  33.7610000  45.7820000
  12.3030000  35.1450000  44.3550000  10.5290000  35.6590000  45.1930000
  10.3510000  31.8250000  53.4440000   8.4670000  32.5620000  53.8910000
  12.1120000  31.3000000  52.6510000  14.5430000  33.2930000  45.9260000
  13.5330000  34.4200000  44.5810000  12.1310000  35.8050000  43.1010000
  10.4900000  31.3800000  54.2720000  14.5180000  34.4030000  43.5440000
  13.0890000  35.7610000  42.1420000  11.3280000  36.2860000  42.9350000
  14.3060000  35.0470000  42.3710000  15.3320000  33.9350000  43.6800000
  12.9500000  36.2070000  41.3140000  14.9730000  35.0240000  41.6950000
  11.1970000  37.0970000  62.8420000  10.2120000  37.1020000  63.8620000
  12.4410000  36.3680000  63.0740000  11.0260000  37.7770000  61.6290000
  10.4080000  36.4430000  65.0620000   9.3980000  37.5700000  63.7170000
  12.6110000  35.6910000  64.2990000  13.4160000  36.3630000  62.0710000
  12.0020000  37.7720000  60.6260000  10.2120000  38.2500000  61.4990000
   9.4240000  36.4600000  66.0990000  11.6390000  35.7180000  65.2880000
  13.4120000  35.2040000  64.4500000  14.2300000  35.8900000  62.2010000
  13.2460000  37.0430000  60.8580000  11.8310000  38.4490000  59.4010000
   9.6350000  35.8160000  67.2720000   8.6090000  36.9280000  65.9630000
  11.8100000  35.0590000  66.5420000  14.2300000  37.0380000  59.8380000
  12.8040000  38.4210000  58.4120000  11.0300000  38.9360000  59.2490000
  10.8530000  35.1020000  67.5010000   8.9680000  35.8390000  67.9480000
  12.6130000  34.5770000  66.7080000  15.0450000  36.5700000  59.9830000
  14.0350000  37.6970000  58.6380000  12.6320000  39.0810000  57.1580000
  10.9910000  34.6560000  68.3290000  15.0190000  37.6800000  57.6010000
  13.5900000  39.0380000  56.1990000  11.8290000  39.5630000  56.9920000
  14.8080000  38.3240000  56.4280000  15.8340000  37.2110000  57.7370000
  13.4510000  39.4830000  55.3710000  15.4740000  38.3010000  55.7520000
  10.4290000  34.9450000  20.6720000   9.4450000  34.9500000  21.6910000
  11.6730000  34.2160000  20.9040000  10.2580000  35.6250000  19.4590000
   9.6400000  34.2910000  22.8920000   8.6300000  35.4180000  21.5460000
  11.8430000  33.5390000  22.1280000  12.6490000  34.2110000  19.9000000
  11.2340000  35.6200000  18.4550000   9.4450000  36.0980000  19.3280000
   8.6560000  34.3080000  23.9290000  10.8710000  33.5660000  23.1180000
  12.6450000  33.0520000  22.2800000  13.4620000  33.7380000  20.0310000
  12.4780000  34.8910000  18.6870000  11.0640000  36.2970000  17.2310000
   8.8670000  33.6640000  25.1010000   7.8410000  34.7760000  23.7930000
  11.0430000  32.9070000  24.3720000  13.4630000  34.8860000  17.6680000
  12.0360000  36.2700000  16.2410000  10.2620000  36.7840000  17.0790000
  10.0850000  32.9500000  25.3300000   8.2010000  33.6870000  25.7770000
  11.8450000  32.4250000  24.5380000  14.2770000  34.4180000  17.8130000
  13.2670000  35.5450000  16.4680000  11.8640000  36.9290000  14.9870000
  10.2230000  32.5050000  26.1580000  14.2510000  35.5280000  15.4300000
  12.8220000  36.8860000  14.0290000  11.0620000  37.4110000  14.8220000
  14.0400000  36.1720000  14.2580000  15.0660000  35.0600000  15.5670000
  12.6840000  37.3310000  13.2010000  14.7060000  36.1490000  13.5820000
  12.9790000  38.1680000  32.7440000  13.9640000  38.1630000  31.7250000
  11.7350000  38.8970000  32.5120000  13.1500000  37.4880000  33.9570000
  13.7680000  38.8220000  30.5240000  14.7780000  37.6950000  31.8700000
  11.5650000  39.5740000  31.2880000  10.7600000  38.9020000  33.5160000
  12.1740000  37.4930000  34.9610000  13.9640000  37.0150000  34.0880000
  14.7520000  38.8050000  29.4870000  12.5380000  39.5460000  30.2980000
  10.7640000  40.0610000  31.1360000   9.9460000  39.3750000  33.3850000
  10.9300000  38.2220000  34.7290000  12.3450000  36.8160000  36.1850000
  14.5410000  39.4490000  28.3150000  15.5670000  38.3360000  29.6230000
  12.3660000  40.2060000  29.0440000   9.9460000  38.2270000  35.7480000
  11.3720000  36.8430000  37.1750000  13.1460000  36.3290000  36.3370000
  13.3230000  40.1630000  28.0860000  15.2080000  39.4260000  27.6390000
  11.5630000  40.6870000  28.8780000   9.1320000  38.6950000  35.6030000
  10.1410000  37.5680000  36.9480000  11.5440000  36.1830000  38.4290000
  13.1850000  40.6080000  27.2580000   9.1570000  37.5840000  37.9860000
  10.5860000  36.2260000  39.3870000  12.3470000  35.7020000  38.5940000
   9.3680000  36.9410000  39.1580000   8.3430000  38.0530000  37.8490000
  10.7250000  35.7810000  40.2150000   8.7020000  36.9640000  39.8340000
  11.9330000  44.7760000  62.8420000  10.9480000  44.7810000  63.8620000
  13.1770000  44.0460000  63.0740000  11.7620000  45.4560000  61.6290000
  11.1440000  44.1210000  65.0620000  10.1340000  45.2480000  63.7170000
  13.3470000  43.3700000  64.2990000  14.1530000  44.0410000  62.0710000
  12.7380000  45.4510000  60.6260000  10.9480000  45.9280000  61.4990000
  10.1600000  44.1380000  66.0990000  12.3750000  43.3970000  65.2880000
  14.1480000  42.8820000  64.4500000  14.9660000  43.5690000  62.2010000
  13.9820000  44.7210000  60.8580000  12.5670000  46.1270000  59.4010000
  10.3710000  43.4950000  67.2720000   9.3450000  44.6070000  65.9630000
  12.5460000  42.7370000  66.5420000  14.9660000  44.7170000  59.8380000
  13.5400000  46.1000000  58.4120000  11.7660000  46.6150000  59.2490000
  11.5890000  42.7800000  67.5010000   9.7040000  43.5180000  67.9480000
  13.3490000  42.2560000  66.7080000  15.7810000  44.2490000  59.9830000
  14.7710000  45.3760000  58.6380000  13.3680000  46.7600000  57.1580000
  11.7270000  42.3350000  68.3290000  15.7550000  45.3590000  57.6010000
  14.3260000  46.7170000  56.1990000  12.5660000  47.2410000  56.9920000
  15.5440000  46.0020000  56.4280000  16.5700000  44.8900000  57.7370000
  14.1870000  47.1620000  55.3710000  16.2100000  45.9790000  55.7520000
  11.9770000  31.6140000   4.6300000  12.9610000  31.6090000   3.6110000
  10.7330000  32.3430000   4.3980000  12.1480000  30.9340000   5.8430000
  12.7660000  32.2680000   2.4110000  13.7760000  31.1420000   3.7560000
  10.5620000  33.0200000   3.1740000   9.7570000  32.3480000   5.4020000
  11.1720000  30.9390000   6.8470000  12.9610000  30.4620000   5.9740000
  13.7500000  32.2520000   1.3730000  11.5350000  32.9930000   2.1840000
   9.7610000  33.5070000   3.0220000   8.9430000  32.8210000   5.2710000
   9.9280000  31.6680000   6.6150000  11.3420000  30.2620000   8.0710000
  13.5390000  32.8950000   0.2010000  14.5650000  31.7830000   1.5100000
  11.3630000  33.6530000   0.9310000   8.9430000  31.6730000   7.6340000
  10.3700000  30.2900000   9.0610000  12.1430000  29.7750000   8.2230000
  12.3210000  33.6100000  -0.0280000  14.2050000  32.8720000  -0.4750000
  10.5610000  34.1340000   0.7650000   8.1290000  32.1410000   7.4890000
   9.1390000  31.0140000   8.8350000  10.5410000  29.6300000  10.3150000
  12.1820000  34.0550000  -0.8560000   8.1550000  31.0310000   9.8720000
   9.5840000  29.6730000  11.2740000  11.3440000  29.1490000  10.4810000
   8.3660000  30.3870000  11.0440000   7.3400000  31.5000000   9.7360000
   9.7220000  29.2280000  12.1020000   7.6990000  30.4100000  11.7210000
  11.4310000  41.4990000  48.7860000  10.4470000  41.5040000  49.8050000
  12.6760000  40.7700000  49.0180000  11.2610000  42.1790000  47.5720000
  10.6430000  40.8440000  51.0050000   9.6330000  41.9710000  49.6600000
  12.8460000  40.0930000  50.2420000  13.6510000  40.7640000  48.0140000
  12.2370000  42.1740000  46.5690000  10.4470000  42.6510000  47.4420000
   9.6580000  40.8610000  52.0430000  11.8730000  40.1200000  51.2310000
  13.6470000  39.6050000  50.3940000  14.4650000  40.2920000  48.1450000
  13.4810000  41.4450000  46.8010000  12.0660000  42.8500000  45.3440000
   9.8700000  40.2180000  53.2150000   8.8440000  41.3300000  51.9060000
  12.0450000  39.4600000  52.4850000  14.4650000  41.4400000  45.7820000
  13.0390000  42.8230000  44.3550000  11.2650000  43.3380000  45.1930000
  11.0880000  39.5030000  53.4440000   9.2030000  40.2410000  53.8910000
  12.8480000  38.9790000  52.6510000  15.2790000  40.9720000  45.9260000
  14.2690000  42.0990000  44.5810000  12.8670000  43.4830000  43.1010000
  11.2260000  39.0580000  54.2720000  15.2540000  42.0820000  43.5440000
  13.8250000  43.4400000  42.1420000  12.0640000  43.9640000  42.9350000
  15.0420000  42.7260000  42.3710000  16.0680000  41.6130000  43.6800000
  13.6860000  43.8850000  41.3140000  15.7090000  42.7020000  41.6950000
   9.7690000   8.5780000   4.6300000  10.7530000   8.5730000   3.6110000
   8.5240000   9.3070000   4.3980000   9.9390000   7.8980000   5.8430000
  10.5570000   9.2330000   2.4110000  11.5670000   8.1060000   3.7560000
   8.3540000   9.9840000   3.1740000   7.5490000   9.3130000   5.4020000
   8.9630000   7.9030000   6.8470000  10.7530000   7.4260000   5.9740000
  11.5420000   9.2160000   1.3730000   9.3270000   9.9570000   2.1840000
   7.5530000  10.4720000   3.0220000   6.7350000   9.7850000   5.2710000
   7.7190000   8.6320000   6.6150000   9.1340000   7.2270000   8.0710000
  11.3300000   9.8590000   0.2010000  12.3560000   8.7470000   1.5100000
   9.1550000  10.6170000   0.9310000   6.7350000   8.6370000   7.6340000
   8.1610000   7.2540000   9.0610000   9.9350000   6.7390000   8.2230000
  10.1120000  10.5740000  -0.0280000  11.9970000   9.8360000  -0.4750000
   8.3520000  11.0980000   0.7650000   5.9210000   9.1050000   7.4890000
   6.9310000   7.9780000   8.8350000   8.3330000   6.5940000  10.3150000
   9.9740000  11.0190000  -0.8560000   5.9460000   7.9950000   9.8720000
   7.3750000   6.6370000  11.2740000   9.1360000   6.1130000  10.4810000
   6.1580000   7.3510000  11.0440000   5.1320000   8.4640000   9.7360000
   7.5140000   6.1920000  12.1020000   5.4910000   7.3750000  11.7210000
   9.7240000  21.7400000  62.8420000   8.7400000  21.7450000  63.8620000
  10.9680000  21.0110000  63.0740000   9.5540000  22.4200000  61.6290000
   8.9360000  21.0850000  65.0620000   7.9260000  22.2120000  63.7170000
  11.1390000  20.3340000  64.2990000  11.9440000  21.0060000  62.0710000
  10.5300000  22.4150000  60.6260000   8.7400000  22.8920000  61.4990000
   7.9510000  21.1020000  66.0990000  10.1660000  20.3610000  65.2880000
  11.9400000  19.8460000  64.4500000  12.7580000  20.5330000  62.2010000
  11.7740000  21.6860000  60.8580000  10.3590000  23.0920000  59.4010000
   8.1630000  20.4590000  67.2720000   7.1370000  21.5710000  65.9630000
  10.3380000  19.7010000  66.5420000  12.7580000  21.6810000  59.8380000
  11.3320000  23.0640000  58.4120000   9.5580000  23.5790000  59.2490000
   9.3800000  19.7440000  67.5010000   7.4960000  20.4820000  67.9480000
  11.1410000  19.2200000  66.7080000  13.5720000  21.2130000  59.9830000
  12.5620000  22.3400000  58.6380000  11.1600000  23.7240000  57.1580000
   9.5190000  19.2990000  68.3290000  13.5470000  22.3230000  57.6010000
  12.1180000  23.6810000  56.1990000  10.3570000  24.2050000  56.9920000
  13.3350000  22.9670000  56.4280000  14.3610000  21.8540000  57.7370000
  11.9790000  24.1260000  55.3710000  14.0020000  22.9430000  55.7520000
  10.5050000  16.2570000   4.6300000  11.4890000  16.2520000   3.6110000
   9.2610000  16.9860000   4.3980000  10.6750000  15.5770000   5.8430000
  11.2930000  16.9110000   2.4110000  12.3030000  15.7840000   3.7560000
   9.0900000  17.6630000   3.1740000   8.2850000  16.9910000   5.4020000
   9.7000000  15.5820000   6.8470000  11.4890000  15.1040000   5.9740000
  12.2780000  16.8940000   1.3730000  10.0630000  17.6360000   2.1840000
   8.2890000  18.1500000   3.0220000   7.4710000  17.4640000   5.2710000
   8.4550000  16.3110000   6.6150000   9.8700000  14.9050000   8.0710000
  12.0660000  17.5380000   0.2010000  13.0920000  16.4260000   1.5100000
   9.8910000  18.2950000   0.9310000   7.4710000  16.3160000   7.6340000
   8.8970000  14.9320000   9.0610000  10.6710000  14.4180000   8.2230000
  10.8490000  18.2520000  -0.0280000  12.7330000  17.5150000  -0.4750000
   9.0880000  18.7770000   0.7650000   6.6570000  16.7840000   7.4890000
   7.6670000  15.6570000   8.8350000   9.0690000  14.2730000  10.3150000
  10.7100000  18.6970000  -0.8560000   6.6820000  15.6740000   9.8720000
   8.1120000  14.3160000  11.2740000   9.8720000  13.7910000  10.4810000
   6.8940000  15.0300000  11.0440000   5.8680000  16.1420000   9.7360000
   8.2500000  13.8710000  12.1020000   6.2270000  15.0530000  11.7210000
   9.9590000  26.1420000  48.7860000   8.9750000  26.1460000  49.8050000
  11.2030000  25.4120000  49.0180000   9.7890000  26.8220000  47.5720000
   9.1700000  25.4870000  51.0050000   8.1610000  26.6140000  49.6600000
  11.3740000  24.7360000  50.2420000  12.1790000  25.4070000  48.0140000
  10.7640000  26.8170000  46.5690000   8.9750000  27.2940000  47.4420000
   8.1860000  25.5040000  52.0430000  10.4010000  24.7630000  51.2310000
  12.1750000  24.2480000  50.3940000  12.9930000  24.9350000  48.1450000
  12.0080000  26.0870000  46.8010000  10.5940000  27.4930000  45.3440000
   8.3970000  24.8610000  53.2150000   7.3720000  25.9730000  51.9060000
  10.5730000  24.1030000  52.4850000  12.9930000  26.0820000  45.7820000
  11.5670000  27.4660000  44.3550000   9.7930000  27.9810000  45.1930000
   9.6150000  24.1460000  53.4440000   7.7310000  24.8840000  53.8910000
  11.3760000  23.6220000  52.6510000  13.8070000  25.6150000  45.9260000
  12.7970000  26.7420000  44.5810000  11.3950000  28.1260000  43.1010000
   9.7540000  23.7010000  54.2720000  13.7810000  26.7250000  43.5440000
  12.3520000  28.0830000  42.1420000  10.5920000  28.6070000  42.9350000
  13.5700000  27.3680000  42.3710000  14.5960000  26.2560000  43.6800000
  12.2140000  28.5280000  41.3140000  14.2370000  27.3450000  41.6950000
  10.4600000  29.4180000  62.8420000   9.4760000  29.4230000  63.8620000
  11.7050000  28.6890000  63.0740000  10.2900000  30.0990000  61.6290000
   9.6720000  28.7640000  65.0620000   8.6620000  29.8910000  63.7170000
  11.8750000  28.0130000  64.2990000  12.6800000  28.6840000  62.0710000
  11.2660000  30.0930000  60.6260000   9.4760000  30.5710000  61.4990000
   8.6880000  28.7810000  66.0990000  10.9020000  28.0400000  65.2880000
  12.6760000  27.5250000  64.4500000  13.4940000  28.2120000  62.2010000
  12.5100000  29.3640000  60.8580000  11.0950000  30.7700000  59.4010000
   8.8990000  28.1370000  67.2720000   7.8730000  29.2500000  65.9630000
  11.0740000  27.3800000  66.5420000  13.4940000  29.3590000  59.8380000
  12.0680000  30.7430000  58.4120000  10.2940000  31.2580000  59.2490000
  10.1170000  27.4230000  67.5010000   8.2320000  28.1610000  67.9480000
  11.8770000  26.8990000  66.7080000  14.3080000  28.8920000  59.9830000
  13.2980000  30.0190000  58.6380000  11.8960000  31.4030000  57.1580000
  10.2550000  26.9780000  68.3290000  14.2830000  30.0020000  57.6010000
  12.8540000  31.3600000  56.1990000  11.0930000  31.8840000  56.9920000
  14.0720000  30.6450000  56.4280000  15.0970000  29.5330000  57.7370000
  12.7150000  31.8050000  55.3710000  14.7380000  30.6220000  55.7520000
  11.5070000  22.8110000  32.7440000  12.4920000  22.8060000  31.7250000
  10.2630000  23.5400000  32.5120000  11.6780000  22.1300000  33.9570000
  12.2960000  23.4650000  30.5240000  13.3060000  22.3380000  31.8700000
  10.0930000  24.2160000  31.2880000   9.2870000  23.5450000  33.5160000
  10.7020000  22.1360000  34.9610000  12.4910000  21.6580000  34.0880000
  13.2800000  23.4480000  29.4870000  11.0650000  24.1890000  30.2980000
   9.2910000  24.7040000  31.1360000   8.4740000  24.0170000  33.3850000
   9.4580000  22.8650000  34.7290000  10.8720000  21.4590000  36.1850000
  13.0690000  24.0920000  28.3150000  14.0950000  22.9790000  29.6230000
  10.8930000  24.8490000  29.0440000   8.4740000  22.8700000  35.7480000
   9.9000000  21.4860000  37.1750000  11.6740000  20.9710000  36.3370000
  11.8510000  24.8060000  28.0860000  13.7350000  24.0680000  27.6390000
  10.0910000  25.3300000  28.8780000   7.6590000  23.3370000  35.6030000
   8.6690000  22.2100000  36.9480000  10.0720000  20.8260000  38.4290000
  11.7130000  25.2510000  27.2580000   7.6850000  22.2270000  37.9860000
   9.1140000  20.8690000  39.3870000  10.8740000  20.3450000  38.5940000
   7.8960000  21.5840000  39.1580000   6.8700000  22.6960000  37.8490000
   9.2520000  20.4240000  40.2150000   7.2300000  21.6070000  39.8340000
  11.6660000  45.9010000  34.7290000  10.6820000  45.9050000  35.7480000
  12.9100000  45.1710000  34.9610000  11.4960000  46.5810000  33.5160000
  10.8780000  45.2460000  36.9480000   9.8680000  46.3730000  35.6030000
  13.0810000  44.4950000  36.1850000  13.8860000  45.1660000  33.9570000
  12.4710000  46.5760000  32.5120000  10.6820000  47.0530000  33.3850000
   9.8930000  45.2630000  37.9860000  12.1080000  44.5220000  37.1750000
  13.8820000  44.0070000  36.3370000  14.7000000  44.6940000  34.0880000
  13.7160000  45.8460000  32.7440000  12.3010000  47.2520000  31.2880000
  10.1050000  44.6200000  39.1580000   9.0790000  45.7320000  37.8490000
  12.2800000  43.8620000  38.4290000  14.7000000  45.8410000  31.7250000
  13.2740000  47.2250000  30.2980000  11.5000000  47.7400000  31.1360000
  11.3220000  43.9050000  39.3870000   9.4380000  44.6430000  39.8340000
  13.0830000  43.3810000  38.5940000  15.5140000  45.3740000  31.8700000
  14.5040000  46.5010000  30.5240000  13.1020000  47.8850000  29.0440000
  11.4610000  43.4600000  40.2150000  15.4890000  46.4840000  29.4870000
  14.0590000  47.8420000  28.0860000  12.2990000  48.3660000  28.8780000
  15.2770000  47.1270000  28.3150000  16.3030000  46.0150000  29.6230000
  13.9210000  48.2870000  27.2580000  15.9440000  47.1040000  27.6390000
  12.1680000  49.1770000  48.7860000  11.1830000  49.1820000  49.8050000
  13.4120000  48.4480000  49.0180000  11.9970000  49.8570000  47.5720000
  11.3790000  48.5230000  51.0050000  10.3690000  49.6500000  49.6600000
  13.5820000  47.7720000  50.2420000  14.3870000  48.4430000  48.0140000
  12.9730000  49.8520000  46.5690000  11.1830000  50.3300000  47.4420000
  10.3950000  48.5400000  52.0430000  12.6100000  47.7990000  51.2310000
  14.3830000  47.2840000  50.3940000  15.2010000  47.9710000  48.1450000
  14.2170000  49.1230000  46.8010000  12.8020000  50.5290000  45.3440000
  10.6060000  47.8960000  53.2150000   9.5800000  49.0090000  51.9060000
  12.7810000  47.1390000  52.4850000  15.2010000  49.1180000  45.7820000
  13.7750000  50.5020000  44.3550000  12.0010000  51.0170000  45.1930000
  11.8240000  47.1820000  53.4440000   9.9390000  47.9200000  53.8910000
  13.5840000  46.6580000  52.6510000  16.0160000  48.6510000  45.9260000
  15.0060000  49.7780000  44.5810000  13.6030000  51.1620000  43.1010000
  11.9620000  46.7370000  54.2720000  15.9900000  49.7610000  43.5440000
  14.5610000  51.1190000  42.1420000  12.8000000  51.6430000  42.9350000
  15.7790000  50.4040000  42.3710000  16.8040000  49.2920000  43.6800000
  14.4220000  51.5640000  41.3140000  16.4450000  50.3810000  41.6950000
  12.6690000  52.4540000  62.8420000  11.6840000  52.4590000  63.8620000
  13.9130000  51.7250000  63.0740000  12.4980000  53.1340000  61.6290000
  11.8800000  51.8000000  65.0620000  10.8700000  52.9270000  63.7170000
  14.0830000  51.0480000  64.2990000  14.8890000  51.7200000  62.0710000
  13.4740000  53.1290000  60.6260000  11.6850000  53.6070000  61.4990000
  10.8960000  51.8170000  66.0990000  13.1110000  51.0760000  65.2880000
  14.8850000  50.5610000  64.4500000  15.7020000  51.2470000  62.2010000
  14.7180000  52.4000000  60.8580000  13.3040000  53.8060000  59.4010000
  11.1070000  51.1730000  67.2720000  10.0810000  52.2860000  65.9630000
  13.2830000  50.4160000  66.5420000  15.7020000  52.3950000  59.8380000
  14.2760000  53.7790000  58.4120000  12.5020000  54.2930000  59.2490000
  12.3250000  50.4590000  67.5010000  10.4410000  51.1960000  67.9480000
  14.0850000  49.9350000  66.7080000  16.5170000  51.9270000  59.9830000
  15.5070000  53.0540000  58.6380000  14.1040000  54.4390000  57.1580000
  12.4630000  50.0140000  68.3290000  16.4910000  53.0380000  57.6010000
  15.0620000  54.3960000  56.1990000  13.3020000  54.9200000  56.9920000
  16.2800000  53.6810000  56.4280000  17.3060000  52.5690000  57.7370000
  14.9240000  54.8410000  55.3710000  16.9460000  53.6580000  55.7520000
  12.2430000  30.4890000  32.7440000  13.2280000  30.4840000  31.7250000
  10.9990000  31.2180000  32.5120000  12.4140000  29.8090000  33.9570000
  13.0320000  31.1440000  30.5240000  14.0420000  30.0170000  31.8700000
  10.8290000  31.8950000  31.2880000  10.0230000  31.2230000  33.5160000
  11.4380000  29.8140000  34.9610000  13.2280000  29.3370000  34.0880000
  14.0160000  31.1270000  29.4870000  11.8010000  31.8680000  30.2980000
  10.0280000  32.3830000  31.1360000   9.2100000  31.6960000  33.3850000
  10.1940000  30.5430000  34.7290000  11.6090000  29.1370000  36.1850000
  13.8050000  31.7700000  28.3150000  14.8310000  30.6580000  29.6230000
  11.6300000  32.5280000  29.0440000   9.2100000  30.5480000  35.7480000
  10.6360000  29.1650000  37.1750000  12.4100000  28.6500000  36.3370000
  12.5870000  32.4850000  28.0860000  14.4720000  31.7470000  27.6390000
  10.8270000  33.0090000  28.8780000   8.3950000  31.0160000  35.6030000
   9.4050000  29.8890000  36.9480000  10.8080000  28.5050000  38.4290000
  12.4490000  32.9300000  27.2580000   8.4210000  29.9060000  37.9860000
   9.8500000  28.5480000  39.3870000  11.6100000  28.0240000  38.5940000
   8.6320000  29.2620000  39.1580000   7.6060000  30.3750000  37.8490000
   9.9890000  28.1030000  40.2150000   7.9660000  29.2860000  39.8340000
  12.7130000  39.2930000   4.6300000  13.6970000  39.2880000   3.6110000
  11.4690000  40.0220000   4.3980000  12.8840000  38.6130000   5.8430000
  13.5020000  39.9470000   2.4110000  14.5120000  38.8200000   3.7560000
  11.2990000  40.6990000   3.1740000  10.4930000  40.0270000   5.4020000
  11.9080000  38.6180000   6.8470000  13.6970000  38.1400000   5.9740000
  14.4860000  39.9300000   1.3730000  12.2710000  40.6710000   2.1840000
  10.4970000  41.1860000   3.0220000   9.6800000  40.4990000   5.2710000
  10.6640000  39.3470000   6.6150000  12.0780000  37.9410000   8.0710000
  14.2750000  40.5740000   0.2010000  15.3010000  39.4610000   1.5100000
  12.0990000  41.3310000   0.9310000   9.6790000  39.3520000   7.6340000
  11.1060000  37.9680000   9.0610000  12.8800000  37.4530000   8.2230000
  13.0570000  41.2880000  -0.0280000  14.9410000  40.5500000  -0.4750000
  11.2970000  41.8120000   0.7650000   8.8650000  39.8190000   7.4890000
   9.8750000  38.6930000   8.8350000  11.2780000  37.3080000  10.3150000
  12.9190000  41.7330000  -0.8560000   8.8910000  38.7090000   9.8720000
  10.3200000  37.3510000  11.2740000  12.0800000  36.8270000  10.4810000
   9.1020000  38.0660000  11.0440000   8.0760000  39.1780000   9.7360000
  10.4580000  36.9060000  12.1020000   8.4360000  38.0890000  11.7210000
  14.5030000  23.9740000  18.8730000  15.4950000  24.5450000  18.0410000
  13.2730000  23.4860000  18.2680000  14.6830000  23.8720000  20.2600000
  15.3170000  24.6460000  16.6660000  16.3010000  24.8660000  18.4300000
  13.1160000  23.6050000  16.8770000  12.2910000  22.9280000  19.0990000
  13.7020000  23.3140000  21.0910000  15.4960000  24.1890000  20.6330000
  16.3130000  25.2320000  15.8030000  14.0920000  24.1700000  16.0670000
  12.3150000  23.2880000  16.4760000  11.4780000  22.6110000  18.7260000
  12.4710000  22.8270000  20.4860000  13.8580000  23.1950000  22.4820000
  16.1150000  25.3290000  14.4670000  17.1220000  25.5560000  16.1780000
  13.9280000  24.2960000  14.6440000  11.4790000  22.2550000  21.3190000
  12.8820000  22.6300000  23.2920000  14.6590000  23.5130000  22.8830000
  14.9070000  24.8470000  13.8830000  16.7830000  25.7210000  13.9180000
  13.1280000  23.9890000  14.2330000  10.6740000  21.9340000  20.9290000
  11.6570000  22.1540000  22.6930000  13.0460000  22.5050000  24.7150000
  14.7860000  24.9120000  12.9420000  10.6610000  21.5680000  23.5560000
  12.0670000  21.9530000  25.4770000  13.8460000  22.8110000  25.1270000
  10.8590000  21.4710000  24.8920000   9.8520000  21.2440000  23.1810000
  12.1880000  21.8890000  26.4170000  10.1910000  21.0790000  25.4410000
  15.5060000  30.5270000  46.9860000  16.4980000  31.0990000  46.1540000
  14.2750000  30.0390000  46.3820000  15.6850000  30.4250000  48.3740000
  16.3190000  31.2000000  44.7790000  17.3030000  31.4200000  46.5440000
  14.1190000  30.1590000  44.9900000  13.2940000  29.4820000  47.2130000
  14.7040000  29.8680000  49.2040000  16.4990000  30.7430000  48.7460000
  17.3150000  31.7860000  43.9160000  15.0950000  30.7240000  44.1810000
  13.3170000  29.8410000  44.5900000  12.4800000  29.1650000  46.8400000
  13.4730000  29.3800000  48.6000000  14.8610000  29.7490000  50.5960000
  17.1170000  31.8830000  42.5810000  18.1250000  32.1100000  44.2920000
  14.9310000  30.8490000  42.7580000  12.4810000  28.8090000  49.4320000
  13.8850000  29.1830000  51.4060000  15.6620000  30.0660000  50.9970000
  15.9100000  31.4010000  41.9960000  17.7860000  32.2750000  42.0310000
  14.1310000  30.5430000  42.3460000  11.6760000  28.4870000  49.0430000
  12.6600000  28.7080000  50.8070000  14.0480000  29.0580000  52.8280000
  15.7890000  31.4650000  41.0560000  11.6640000  28.1220000  51.6700000
  13.0690000  28.5070000  53.5900000  14.8480000  29.3650000  53.2400000
  11.8620000  28.0240000  53.0050000  10.8540000  27.7980000  51.2950000
  13.1910000  28.4420000  54.5310000  11.1940000  27.6330000  53.5550000
  14.7110000  40.3360000  62.6570000  13.7190000  39.7640000  63.4890000
  15.9410000  40.8240000  63.2610000  14.5310000  40.4380000  61.2690000
  13.8970000  39.6630000  64.8640000  12.9130000  39.4430000  63.1000000
  16.0980000  40.7040000  64.6530000  16.9230000  41.3810000  62.4310000
  15.5120000  40.9950000  60.4390000  13.7180000  40.1200000  60.8970000
  12.9010000  39.0770000  65.7270000  15.1220000  40.1390000  65.4630000
  16.8990000  41.0220000  65.0540000  17.7360000  41.6980000  62.8030000
  16.7430000  41.4830000  61.0430000  15.3560000  41.1140000  59.0470000
  13.0990000  38.9800000  67.0620000  12.0920000  38.7530000  65.3520000
  15.2860000  40.0140000  66.8850000  17.7350000  42.0540000  60.2110000
  16.3320000  41.6800000  58.2370000  14.5550000  40.7970000  58.6460000
  14.3070000  39.4630000  67.6470000  12.4310000  38.5880000  67.6120000
  16.0860000  40.3200000  67.2970000  18.5400000  42.3760000  60.6000000
  17.5560000  42.1550000  58.8360000  16.1680000  41.8050000  56.8150000
  14.4280000  39.3980000  68.5870000  18.5520000  42.7410000  57.9730000
  17.1470000  42.3560000  56.0530000  15.3680000  41.4980000  56.4030000
  18.3550000  42.8390000  56.6380000  19.3620000  43.0650000  58.3480000
  17.0260000  42.4210000  55.1130000  19.0230000  43.2300000  56.0880000
  12.5020000  17.3000000  62.6570000  11.5100000  16.7280000  63.4890000
  13.7330000  17.7880000  63.2610000  12.3230000  17.4020000  61.2690000
  11.6890000  16.6270000  64.8640000  10.7050000  16.4070000  63.1000000
  13.8900000  17.6680000  64.6530000  14.7140000  18.3450000  62.4310000
  13.3040000  17.9590000  60.4390000  11.5090000  17.0850000  60.8970000
  10.6930000  16.0410000  65.7270000  12.9140000  17.1030000  65.4630000
  14.6910000  17.9860000  65.0540000  15.5280000  18.6620000  62.8030000
  14.5350000  18.4470000  61.0430000  13.1480000  18.0780000  59.0470000
  10.8910000  15.9440000  67.0620000   9.8830000  15.7170000  65.3520000
  13.0770000  16.9780000  66.8850000  15.5270000  19.0190000  60.2110000
  14.1240000  18.6440000  58.2370000  12.3460000  17.7610000  58.6460000
  12.0980000  16.4270000  67.6470000  10.2230000  15.5520000  67.6120000
  13.8770000  17.2840000  67.2970000  16.3320000  19.3400000  60.6000000
  15.3480000  19.1200000  58.8360000  13.9600000  18.7690000  56.8150000
  12.2200000  16.3620000  68.5870000  16.3440000  19.7060000  57.9730000
  14.9390000  19.3200000  56.0530000  13.1600000  18.4630000  56.4030000
  16.1460000  19.8030000  56.6380000  17.1540000  20.0300000  58.3480000
  14.8180000  19.3850000  55.1130000  16.8150000  20.1940000  56.0880000
  13.9750000  32.6570000  62.6570000  12.9830000  32.0850000  63.4890000
  15.2050000  33.1450000  63.2610000  13.7950000  32.7590000  61.2690000
  13.1610000  31.9840000  64.8640000  12.1770000  31.7640000  63.1000000
  15.3620000  33.0260000  64.6530000  16.1860000  33.7020000  62.4310000
  14.7760000  33.3160000  60.4390000  12.9820000  32.4420000  60.8970000
  12.1650000  31.3980000  65.7270000  14.3860000  32.4600000  65.4630000
  16.1630000  33.3430000  65.0540000  17.0000000  34.0190000  62.8030000
  16.0070000  33.8040000  61.0430000  14.6200000  33.4360000  59.0470000
  12.3630000  31.3010000  67.0620000  11.3550000  31.0740000  65.3520000
  14.5500000  32.3350000  66.8850000  16.9990000  34.3760000  60.2110000
  15.5960000  34.0010000  58.2370000  13.8180000  33.1180000  58.6460000
  13.5710000  31.7840000  67.6470000  11.6950000  30.9100000  67.6120000
  15.3490000  32.6410000  67.2970000  17.8040000  34.6970000  60.6000000
  16.8200000  34.4770000  58.8360000  15.4320000  34.1260000  56.8150000
  13.6920000  31.7190000  68.5870000  17.8160000  35.0630000  57.9730000
  16.4110000  34.6770000  56.0530000  14.6320000  33.8200000  56.4030000
  17.6180000  35.1600000  56.6380000  18.6260000  35.3870000  58.3480000
  16.2900000  34.7420000  55.1130000  18.2870000  35.5520000  56.0880000
  12.0010000  14.0230000  48.6000000  11.0090000  13.4510000  49.4320000
  13.2320000  14.5110000  49.2040000  11.8220000  14.1250000  47.2130000
  11.1880000  13.3500000  50.8070000  10.2040000  13.1300000  49.0430000
  13.3880000  14.3920000  50.5960000  14.2130000  15.0680000  48.3740000
  12.8030000  14.6820000  46.3820000  11.0080000  13.8080000  46.8400000
  10.1920000  12.7640000  51.6700000  12.4120000  13.8260000  51.4060000
  14.1900000  14.7090000  50.9970000  15.0260000  15.3850000  48.7460000
  14.0340000  15.1700000  46.9860000  12.6460000  14.8020000  44.9900000
  10.3900000  12.6670000  53.0050000   9.3820000  12.4400000  51.2950000
  12.5760000  13.7010000  52.8280000  15.0260000  15.7420000  46.1540000
  13.6220000  15.3670000  44.1810000  11.8450000  14.4840000  44.5900000
  11.5970000  13.1500000  53.5900000   9.7210000  12.2760000  53.5550000
  13.3760000  14.0070000  53.2400000  15.8310000  16.0630000  46.5440000
  14.8470000  15.8430000  44.7790000  13.4580000  15.4920000  42.7580000
  11.7180000  13.0850000  54.5310000  15.8430000  16.4290000  43.9160000
  14.4370000  16.0430000  41.9960000  12.6590000  15.1860000  42.3460000
  15.6450000  16.5260000  42.5810000  16.6530000  16.7530000  44.2920000
  14.3160000  16.1080000  41.0560000  16.3130000  16.9180000  42.0310000
  13.0310000   8.6170000  18.8730000  14.0230000   9.1880000  18.0410000
  11.8000000   8.1290000  18.2680000  13.2100000   8.5150000  20.2600000
  13.8440000   9.2890000  16.6660000  14.8280000   9.5090000  18.4300000
  11.6440000   8.2480000  16.8770000  10.8190000   7.5710000  19.0990000
  12.2290000   7.9570000  21.0910000  14.0240000   8.8320000  20.6330000
  14.8400000   9.8750000  15.8030000  12.6200000   8.8130000  16.0670000
  10.8420000   7.9300000  16.4760000  10.0060000   7.2540000  18.7260000
  10.9980000   7.4690000  20.4860000  12.3860000   7.8380000  22.4820000
  14.6420000   9.9720000  14.4670000  15.6500000  10.1990000  16.1780000
  12.4560000   8.9390000  14.6440000  10.0070000   6.8980000  21.3190000
  11.4100000   7.2730000  23.2920000  13.1870000   8.1550000  22.8830000
  13.4350000   9.4900000  13.8830000  15.3110000  10.3640000  13.9180000
  11.6560000   8.6320000  14.2330000   9.2010000   6.5770000  20.9290000
  10.1850000   6.7970000  22.6930000  11.5740000   7.1470000  24.7150000
  13.3140000   9.5550000  12.9420000   9.1890000   6.2110000  23.5560000
  10.5950000   6.5960000  25.4770000  12.3730000   7.4540000  25.1270000
   9.3870000   6.1140000  24.8920000   8.3790000   5.8870000  23.1810000
  10.7160000   6.5310000  26.4170000   8.7190000   5.7220000  25.4410000
  11.5000000  10.7460000  34.5430000  10.5080000  10.1750000  35.3750000
  12.7310000  11.2340000  35.1480000  11.3200000  10.8480000  33.1560000
  10.6870000  10.0730000  36.7500000   9.7030000   9.8530000  34.9860000
  12.8870000  11.1150000  36.5390000  13.7120000  11.7910000  34.3170000
  12.3020000  11.4050000  32.3250000  10.5070000  10.5310000  32.7830000
   9.6910000   9.4880000  37.6130000  11.9110000  10.5490000  37.3490000
  13.6880000  11.4320000  36.9400000  14.5250000  12.1090000  34.6890000
  13.5320000  11.8930000  32.9290000  12.1450000  11.5250000  30.9330000
   9.8880000   9.3900000  38.9490000   8.8810000   9.1640000  37.2380000
  12.0750000  10.4240000  38.7720000  14.5240000  12.4650000  32.0970000
  13.1210000  12.0900000  30.1240000  11.3440000  11.2070000  30.5330000
  11.0960000   9.8730000  39.5330000   9.2200000   8.9990000  39.4980000
  12.8750000  10.7310000  39.1830000  15.3300000  12.7860000  32.4870000
  14.3460000  12.5660000  30.7230000  12.9570000  12.2150000  28.7010000
  11.2170000   9.8080000  40.4740000  15.3420000  13.1520000  29.8590000
  13.9360000  12.7660000  27.9390000  12.1570000  11.9090000  28.2890000
  15.1440000  13.2490000  28.5240000  16.1510000  13.4760000  30.2350000
  13.8150000  12.8310000  26.9990000  15.8120000  13.6410000  27.9740000
  12.5300000   5.3400000   4.8160000  13.5220000   5.9110000   3.9840000
  11.2990000   4.8520000   4.2110000  12.7090000   5.2380000   6.2030000
  13.3430000   6.0120000   2.6090000  14.3270000   6.2320000   4.3730000
  11.1430000   4.9710000   2.8200000  10.3180000   4.2940000   5.0420000
  11.7280000   4.6800000   7.0340000  13.5230000   5.5550000   6.5760000
  14.3390000   6.5980000   1.7460000  12.1190000   5.5360000   2.0100000
  10.3410000   4.6540000   2.4190000   9.5040000   3.9770000   4.6700000
  10.4970000   4.1920000   6.4300000  11.8840000   4.5610000   8.4260000
  14.1410000   6.6950000   0.4100000  15.1490000   6.9220000   2.1210000
  11.9550000   5.6620000   0.5880000   9.5050000   3.6210000   7.2620000
  10.9090000   3.9960000   9.2350000  12.6860000   4.8790000   8.8260000
  12.9340000   6.2130000  -0.1740000  14.8100000   7.0870000  -0.1390000
  11.1550000   5.3550000   0.1760000   8.7000000   3.3000000   6.8720000
   9.6840000   3.5200000   8.6370000  11.0720000   3.8700000  10.6580000
  12.8130000   6.2780000  -1.1150000   8.6880000   2.9340000   9.5000000
  10.0930000   3.3190000  11.4200000  11.8720000   4.1770000  11.0700000
   8.8860000   2.8370000  10.8350000   7.8780000   2.6100000   9.1240000
  10.2150000   3.2540000  12.3600000   8.2180000   2.4450000  11.3850000
  13.2380000  24.9780000  62.6570000  12.2460000  24.4070000  63.4890000
  14.4690000  25.4660000  63.2610000  13.0590000  25.0800000  61.2690000
  12.4250000  24.3060000  64.8640000  11.4410000  24.0860000  63.1000000
  14.6260000  25.3470000  64.6530000  15.4500000  26.0240000  62.4310000
  14.0400000  25.6380000  60.4390000  12.2460000  24.7630000  60.8970000
  11.4290000  23.7200000  65.7270000  13.6500000  24.7820000  65.4630000
  15.4270000  25.6650000  65.0540000  16.2640000  26.3410000  62.8030000
  15.2710000  26.1260000  61.0430000  13.8840000  25.7570000  59.0470000
  11.6270000  23.6230000  67.0620000  10.6190000  23.3960000  65.3520000
  13.8140000  24.6560000  66.8850000  16.2630000  26.6970000  60.2110000
  14.8600000  26.3220000  58.2370000  13.0820000  25.4390000  58.6460000
  12.8350000  24.1050000  67.6470000  10.9590000  23.2310000  67.6120000
  14.6130000  24.9630000  67.2970000  17.0680000  27.0180000  60.6000000
  16.0840000  26.7980000  58.8360000  14.6960000  26.4480000  56.8150000
  12.9560000  24.0400000  68.5870000  17.0800000  27.3840000  57.9730000
  15.6750000  26.9990000  56.0530000  13.8960000  26.1410000  56.4030000
  16.8820000  27.4810000  56.6380000  17.8900000  27.7080000  58.3480000
  15.5540000  27.0640000  55.1130000  17.5510000  27.8730000  56.0880000
  13.7670000  16.2950000  18.8730000  14.7590000  16.8670000  18.0410000
  12.5360000  15.8070000  18.2680000  13.9470000  16.1930000  20.2600000
  14.5800000  16.9680000  16.6660000  15.5640000  17.1880000  18.4300000
  12.3800000  15.9270000  16.8770000  11.5550000  15.2500000  19.0990000
  12.9650000  15.6360000  21.0910000  14.7600000  16.5100000  20.6330000
  15.5760000  17.5540000  15.8030000  13.3560000  16.4920000  16.0670000
  11.5790000  15.6090000  16.4760000  10.7420000  14.9330000  18.7260000
  11.7350000  15.1480000  20.4860000  13.1220000  15.5160000  22.4820000
  15.3780000  17.6510000  14.4670000  16.3860000  17.8780000  16.1780000
  13.1920000  16.6170000  14.6440000  10.7430000  14.5760000  21.3190000
  12.1460000  14.9510000  23.2920000  13.9230000  15.8340000  22.8830000
  14.1710000  17.1680000  13.8830000  16.0470000  18.0430000  13.9180000
  12.3920000  16.3110000  14.2330000   9.9370000  14.2550000  20.9290000
  10.9210000  14.4750000  22.6930000  12.3100000  14.8260000  24.7150000
  14.0500000  17.2330000  12.9420000   9.9250000  13.8890000  23.5560000
  11.3310000  14.2750000  25.4770000  13.1100000  15.1320000  25.1270000
  10.1230000  13.7920000  24.8920000   9.1160000  13.5650000  23.1810000
  11.4520000  14.2100000  26.4170000   9.4550000  13.4000000  25.4410000
  14.7700000  22.8490000  46.9860000  15.7620000  23.4200000  46.1540000
  13.5390000  22.3610000  46.3820000  14.9490000  22.7470000  48.3740000
  15.5830000  23.5210000  44.7790000  16.5670000  23.7420000  46.5440000
  13.3820000  22.4800000  44.9900000  12.5580000  21.8040000  47.2130000
  13.9680000  22.1900000  49.2040000  15.7630000  23.0640000  48.7460000
  16.5790000  24.1070000  43.9160000  14.3580000  23.0460000  44.1810000
  12.5810000  22.1630000  44.5900000  11.7440000  21.4860000  46.8400000
  12.7370000  21.7020000  48.6000000  14.1240000  22.0700000  50.5960000
  16.3810000  24.2050000  42.5810000  17.3890000  24.4310000  44.2920000
  14.1950000  23.1710000  42.7580000  11.7450000  21.1300000  49.4320000
  13.1480000  21.5050000  51.4060000  14.9260000  22.3880000  50.9970000
  15.1740000  23.7220000  41.9960000  17.0490000  24.5960000  42.0310000
  13.3950000  22.8640000  42.3460000  10.9400000  20.8090000  49.0430000
  11.9240000  21.0290000  50.8070000  13.3120000  21.3800000  52.8280000
  15.0520000  23.7870000  41.0560000  10.9280000  20.4430000  51.6700000
  12.3330000  20.8280000  53.5900000  14.1120000  21.6860000  53.2400000
  11.1260000  20.3460000  53.0050000  10.1180000  20.1190000  51.2950000
  12.4540000  20.7640000  54.5310000  10.4570000  19.9540000  53.5550000
  12.9720000  26.1030000  34.5430000  11.9800000  25.5320000  35.3750000
  14.2030000  26.5910000  35.1480000  12.7930000  26.2050000  33.1560000
  12.1590000  25.4310000  36.7500000  11.1750000  25.2110000  34.9860000
  14.3590000  26.4720000  36.5390000  15.1840000  27.1490000  34.3170000
  13.7740000  26.7630000  32.3250000  11.9790000  25.8880000  32.7830000
  11.1630000  24.8450000  37.6130000  13.3830000  25.9070000  37.3490000
  15.1610000  26.7890000  36.9400000  15.9970000  27.4660000  34.6890000
  15.0050000  27.2510000  32.9290000  13.6170000  26.8820000  30.9330000
  11.3610000  24.7480000  38.9490000  10.3530000  24.5210000  37.2380000
  13.5470000  25.7810000  38.7720000  15.9970000  27.8220000  32.0970000
  14.5930000  27.4470000  30.1240000  12.8160000  26.5640000  30.5330000
  12.5680000  25.2300000  39.5330000  10.6920000  24.3560000  39.4980000
  14.3470000  26.0880000  39.1830000  16.8020000  28.1430000  32.4870000
  15.8180000  27.9230000  30.7230000  14.4290000  27.5730000  28.7010000
  12.6890000  25.1650000  40.4740000  16.8140000  28.5090000  29.8590000
  15.4080000  28.1240000  27.9390000  13.6300000  27.2660000  28.2890000
  16.6160000  28.6060000  28.5240000  17.6240000  28.8330000  30.2350000
  15.2870000  28.1890000  26.9990000  17.2840000  28.9980000  27.9740000
  11.9690000  19.5500000   6.4300000  10.9780000  18.9780000   7.2620000
  13.2000000  20.0380000   7.0340000  11.7900000  19.6520000   5.0420000
  11.1560000  18.8770000   8.6370000  10.1720000  18.6570000   6.8720000
  13.3570000  19.9180000   8.4260000  14.1810000  20.5950000   6.2030000
  12.7710000  20.2090000   4.2110000  10.9770000  19.3340000   4.6700000
  10.1600000  18.2910000   9.5000000  12.3810000  19.3530000   9.2350000
  14.1580000  20.2360000   8.8260000  14.9950000  20.9120000   6.5760000
  14.0020000  20.6970000   4.8160000  12.6150000  20.3280000   2.8200000
  10.3580000  18.1940000  10.8350000   9.3500000  17.9670000   9.1240000
  12.5450000  19.2280000  10.6580000  14.9940000  21.2680000   3.9840000
  13.5910000  20.8940000   2.0100000  11.8130000  20.0110000   2.4190000
  11.5660000  18.6770000  11.4200000   9.6900000  17.8020000  11.3850000
  13.3440000  19.5340000  11.0700000  15.7990000  21.5900000   4.3730000
  14.8150000  21.3700000   2.6090000  13.4270000  21.0190000   0.5880000
  11.6870000  18.6120000  12.3600000  15.8110000  21.9550000   1.7460000
  14.4060000  21.5700000  -0.1740000  12.6270000  20.7130000   0.1760000
  15.6130000  22.0530000   0.4100000  16.6210000  22.2790000   2.1210000
  14.2850000  21.6350000  -1.1150000  16.2820000  22.4440000  -0.1390000
  13.2070000  30.5050000  20.4860000  12.2150000  29.9340000  21.3190000
  14.4380000  30.9930000  21.0910000  13.0270000  30.6070000  19.0990000
  12.3940000  29.8320000  22.6930000  11.4100000  29.6120000  20.9290000
  14.5940000  30.8740000  22.4820000  15.4190000  31.5500000  20.2600000
  14.0090000  31.1640000  18.2680000  12.2140000  30.2900000  18.7260000
  11.3980000  29.2470000  23.5560000  13.6180000  30.3080000  23.2920000
  15.3950000  31.1910000  22.8830000  16.2320000  31.8680000  20.6330000
  15.2390000  31.6520000  18.8730000  13.8520000  31.2840000  16.8770000
  11.5960000  29.1490000  24.8920000  10.5880000  28.9230000  23.1810000
  13.7820000  30.1830000  24.7150000  16.2310000  32.2240000  18.0410000
  14.8280000  31.8490000  16.0670000  13.0510000  30.9660000  16.4760000
  12.8030000  29.6320000  25.4770000  10.9270000  28.7580000  25.4410000
  14.5820000  30.4900000  25.1270000  17.0370000  32.5450000  18.4300000
  16.0530000  32.3250000  16.6660000  14.6640000  31.9740000  14.6440000
  12.9240000  29.5670000  26.4170000  17.0490000  32.9110000  15.8030000
  15.6430000  32.5250000  13.8830000  13.8640000  31.6680000  14.2330000
  16.8510000  33.0080000  14.4670000  17.8580000  33.2350000  16.1780000
  15.5220000  32.5900000  12.9420000  17.5190000  33.4000000  13.9180000
  15.7410000  34.9290000  32.9290000  16.7330000  35.5010000  32.0970000
  14.5100000  34.4410000  32.3250000  15.9200000  34.8270000  34.3170000
  16.5540000  35.6020000  30.7230000  17.5380000  35.8220000  32.4870000
  14.3530000  34.5610000  30.9330000  13.5290000  33.8840000  33.1560000
  14.9390000  34.2700000  35.1480000  16.7340000  35.1440000  34.6890000
  17.5500000  36.1880000  29.8590000  15.3290000  35.1260000  30.1240000
  13.5520000  34.2430000  30.5330000  12.7150000  33.5670000  32.7830000
  13.7080000  33.7820000  34.5430000  15.0950000  34.1500000  36.5390000
  17.3520000  36.2850000  28.5240000  18.3600000  36.5120000  30.2350000
  15.1660000  35.2510000  28.7010000  12.7160000  33.2100000  35.3750000
  14.1190000  33.5850000  37.3490000  15.8970000  34.4680000  36.9400000
  16.1450000  35.8020000  27.9390000  18.0200000  36.6770000  27.9740000
  14.3660000  34.9450000  28.2890000  11.9110000  32.8890000  34.9860000
  12.8950000  33.1090000  36.7500000  14.2830000  33.4600000  38.7720000
  16.0230000  35.8670000  26.9990000  11.8990000  32.5230000  37.6130000
  13.3040000  32.9090000  39.5330000  15.0830000  33.7660000  39.1830000
  12.0970000  32.4260000  38.9490000  11.0890000  32.1990000  37.2380000
  13.4250000  32.8440000  40.4740000  11.4280000  32.0350000  39.4980000
  16.2420000  38.2060000  46.9860000  17.2340000  38.7780000  46.1540000
  15.0110000  37.7180000  46.3820000  16.4210000  38.1040000  48.3740000
  17.0550000  38.8790000  44.7790000  18.0390000  39.0990000  46.5440000
  14.8550000  37.8370000  44.9900000  14.0300000  37.1610000  47.2130000
  15.4400000  37.5470000  49.2040000  17.2350000  38.4210000  48.7460000
  18.0510000  39.4650000  43.9160000  15.8310000  38.4030000  44.1810000
  14.0530000  37.5200000  44.5900000  13.2160000  36.8440000  46.8400000
  14.2090000  37.0590000  48.6000000  15.5970000  37.4270000  50.5960000
  17.8530000  39.5620000  42.5810000  18.8610000  39.7890000  44.2920000
  15.6670000  38.5280000  42.7580000  13.2170000  36.4870000  49.4320000
  14.6210000  36.8620000  51.4060000  16.3980000  37.7450000  50.9970000
  16.6460000  39.0790000  41.9960000  18.5220000  39.9530000  42.0310000
  14.8670000  38.2220000  42.3460000  12.4120000  36.1660000  49.0430000
  13.3960000  36.3860000  50.8070000  14.7850000  36.7370000  52.8280000
  16.5250000  39.1440000  41.0560000  12.4000000  35.8000000  51.6700000
  13.8060000  36.1860000  53.5900000  15.5840000  37.0430000  53.2400000
  12.5980000  35.7030000  53.0050000  11.5900000  35.4760000  51.2950000
  13.9270000  36.1210000  54.5310000  11.9300000  35.3110000  53.5550000
  12.7060000  27.2280000   6.4300000  11.7140000  26.6570000   7.2620000
  13.9360000  27.7160000   7.0340000  12.5260000  27.3300000   5.0420000
  11.8920000  26.5560000   8.6370000  10.9080000  26.3360000   6.8720000
  14.0930000  27.5970000   8.4260000  14.9180000  28.2740000   6.2030000
  13.5070000  27.8880000   4.2110000  11.7130000  27.0130000   4.6700000
  10.8960000  25.9700000   9.5000000  13.1170000  27.0320000   9.2350000
  14.8940000  27.9140000   8.8260000  15.7310000  28.5910000   6.5760000
  14.7380000  28.3760000   4.8160000  13.3510000  28.0070000   2.8200000
  11.0940000  25.8730000  10.8350000  10.0870000  25.6460000   9.1240000
  13.2810000  26.9060000  10.6580000  15.7300000  28.9470000   3.9840000
  14.3270000  28.5720000   2.0100000  12.5500000  27.6890000   2.4190000
  12.3020000  26.3550000  11.4200000  10.4260000  25.4810000  11.3850000
  14.0810000  27.2130000  11.0700000  16.5350000  29.2680000   4.3730000
  15.5510000  29.0480000   2.6090000  14.1630000  28.6980000   0.5880000
  12.4230000  26.2900000  12.3600000  16.5470000  29.6340000   1.7460000
  15.1420000  29.2490000  -0.1740000  13.3630000  28.3910000   0.1760000
  16.3490000  29.7310000   0.4100000  17.3570000  29.9580000   2.1210000
  15.0210000  29.3130000  -1.1150000  17.0180000  30.1230000  -0.1390000
  14.4440000  41.4610000  34.5430000  13.4520000  40.8890000  35.3750000
  15.6750000  41.9490000  35.1480000  14.2650000  41.5620000  33.1560000
  13.6310000  40.7880000  36.7500000  12.6470000  40.5680000  34.9860000
  15.8310000  41.8290000  36.5390000  16.6560000  42.5060000  34.3170000
  15.2460000  42.1200000  32.3250000  13.4510000  41.2450000  32.7830000
  12.6350000  40.2020000  37.6130000  14.8560000  41.2640000  37.3490000
  16.6330000  42.1470000  36.9400000  17.4700000  42.8230000  34.6890000
  16.4770000  42.6080000  32.9290000  15.0900000  42.2390000  30.9330000
  12.8330000  40.1050000  38.9490000  11.8250000  39.8780000  37.2380000
  15.0190000  41.1390000  38.7720000  17.4690000  43.1790000  32.0970000
  16.0660000  42.8050000  30.1240000  14.2880000  41.9220000  30.5330000
  14.0400000  40.5870000  39.5330000  12.1650000  39.7130000  39.4980000
  15.8190000  41.4450000  39.1830000  18.2740000  43.5000000  32.4870000
  17.2900000  43.2800000  30.7230000  15.9020000  42.9300000  28.7010000
  14.1620000  40.5230000  40.4740000  18.2860000  43.8660000  29.8590000
  16.8810000  43.4810000  27.9390000  15.1020000  42.6230000  28.2890000
  18.0880000  43.9630000  28.5240000  19.0960000  44.1900000  30.2350000
  16.7600000  43.5460000  26.9990000  18.7570000  44.3550000  27.9740000
  15.4740000  36.0540000   4.8160000  16.4660000  36.6260000   3.9840000
  14.2430000  35.5660000   4.2110000  15.6540000  35.9520000   6.2030000
  16.2880000  36.7270000   2.6090000  17.2720000  36.9470000   4.3730000
  14.0870000  35.6860000   2.8200000  13.2620000  35.0090000   5.0420000
  14.6730000  35.3950000   7.0340000  16.4670000  36.2690000   6.5760000
  17.2840000  37.3130000   1.7460000  15.0630000  36.2510000   2.0100000
  13.2860000  35.3680000   2.4190000  12.4490000  34.6920000   4.6700000
  13.4420000  34.9070000   6.4300000  14.8290000  35.2750000   8.4260000
  17.0860000  37.4100000   0.4100000  18.0930000  37.6370000   2.1210000
  14.8990000  36.3760000   0.5880000  12.4500000  34.3350000   7.2620000
  13.8530000  34.7100000   9.2350000  15.6300000  35.5930000   8.8260000
  15.8780000  36.9270000  -0.1740000  17.7540000  37.8020000  -0.1390000
  14.0990000  36.0700000   0.1760000  11.6440000  34.0140000   6.8720000
  12.6280000  34.2340000   8.6370000  14.0170000  34.5850000  10.6580000
  15.7570000  36.9920000  -1.1150000  11.6320000  33.6480000   9.5000000
  13.0380000  34.0340000  11.4200000  14.8170000  34.8910000  11.0700000
  11.8300000  33.5510000  10.8350000  10.8230000  33.3240000   9.1240000
  13.1590000  33.9690000  12.3600000  11.1620000  33.1590000  11.3850000
  16.9780000  45.8850000  46.9860000  17.9700000  46.4560000  46.1540000
  15.7470000  45.3970000  46.3820000  17.1570000  45.7830000  48.3740000
  17.7910000  46.5570000  44.7790000  18.7750000  46.7770000  46.5440000
  15.5910000  45.5160000  44.9900000  14.7660000  44.8390000  47.2130000
  16.1760000  45.2250000  49.2040000  17.9710000  46.1000000  48.7460000
  18.7870000  47.1430000  43.9160000  16.5670000  46.0810000  44.1810000
  14.7890000  45.1980000  44.5900000  13.9530000  44.5220000  46.8400000
  14.9450000  44.7370000  48.6000000  16.3330000  45.1060000  50.5960000
  18.5890000  47.2400000  42.5810000  19.5970000  47.4670000  44.2920000
  16.4030000  46.2070000  42.7580000  13.9540000  44.1660000  49.4320000
  15.3570000  44.5410000  51.4060000  17.1340000  45.4240000  50.9970000
  17.3820000  46.7580000  41.9960000  19.2580000  47.6320000  42.0310000
  15.6030000  45.9000000  42.3460000  13.1480000  43.8450000  49.0430000
  14.1320000  44.0650000  50.8070000  15.5210000  44.4150000  52.8280000
  17.2610000  46.8230000  41.0560000  13.1360000  43.4790000  51.6700000
  14.5420000  43.8640000  53.5900000  16.3200000  44.7220000  53.2400000
  13.3340000  43.3820000  53.0050000  12.3260000  43.1550000  51.2950000
  14.6630000  43.7990000  54.5310000  12.6660000  42.9900000  53.5550000
  15.4470000  48.0140000  62.6570000  14.4550000  47.4430000  63.4890000
  16.6780000  48.5020000  63.2610000  15.2670000  48.1160000  61.2690000
  14.6340000  47.3420000  64.8640000  13.6500000  47.1210000  63.1000000
  16.8340000  48.3830000  64.6530000  17.6590000  49.0590000  62.4310000
  16.2490000  48.6730000  60.4390000  14.4540000  47.7990000  60.8970000
  13.6380000  46.7560000  65.7270000  15.8580000  47.8170000  65.4630000
  17.6350000  48.7000000  65.0540000  18.4720000  49.3770000  62.8030000
  17.4790000  49.1610000  61.0430000  16.0920000  48.7930000  59.0470000
  13.8350000  46.6580000  67.0620000  12.8280000  46.4320000  65.3520000
  16.0220000  47.6920000  66.8850000  18.4710000  49.7330000  60.2110000
  17.0680000  49.3580000  58.2370000  15.2910000  48.4750000  58.6460000
  15.0430000  47.1410000  67.6470000  13.1670000  46.2670000  67.6120000
  16.8220000  47.9990000  67.2970000  19.2770000  50.0540000  60.6000000
  18.2930000  49.8340000  58.8360000  16.9040000  49.4830000  56.8150000
  15.1640000  47.0760000  68.5870000  19.2890000  50.4200000  57.9730000
  17.8830000  50.0350000  56.0530000  16.1040000  49.1770000  56.4030000
  19.0910000  50.5170000  56.6380000  20.0980000  50.7440000  58.3480000
  17.7620000  50.0990000  55.1130000  19.7590000  50.9090000  56.0880000
  14.2680000  19.5720000  32.9290000  15.2600000  20.1440000  32.0970000
  13.0380000  19.0840000  32.3250000  14.4480000  19.4700000  34.3170000
  15.0820000  20.2450000  30.7230000  16.0660000  20.4650000  32.4870000
  12.8810000  19.2030000  30.9330000  12.0560000  18.5270000  33.1560000
  13.4670000  18.9130000  35.1480000  15.2610000  19.7870000  34.6890000
  16.0780000  20.8300000  29.8590000  13.8570000  19.7690000  30.1240000
  12.0800000  18.8860000  30.5330000  11.2430000  18.2100000  32.7830000
  12.2360000  18.4250000  34.5430000  13.6230000  18.7930000  36.5390000
  15.8800000  20.9280000  28.5240000  16.8880000  21.1540000  30.2350000
  13.6930000  19.8940000  28.7010000  11.2440000  17.8530000  35.3750000
  12.6470000  18.2280000  37.3490000  14.4240000  19.1110000  36.9400000
  14.6720000  20.4450000  27.9390000  16.5480000  21.3190000  27.9740000
  12.8940000  19.5880000  28.2890000  10.4390000  17.5320000  34.9860000
  11.4230000  17.7520000  36.7500000  12.8110000  18.1030000  38.7720000
  14.5510000  20.5100000  26.9990000  10.4270000  17.1660000  37.6130000
  11.8320000  17.5520000  39.5330000  13.6110000  18.4090000  39.1830000
  10.6250000  17.0690000  38.9490000   9.6170000  16.8420000  37.2380000
  11.9530000  17.4870000  40.4740000   9.9560000  16.6770000  39.4980000
  13.9430000  38.1840000  20.4860000  12.9510000  37.6120000  21.3190000
  15.1740000  38.6720000  21.0910000  13.7640000  38.2860000  19.0990000
  13.1300000  37.5110000  22.6930000  12.1460000  37.2910000  20.9290000
  15.3300000  38.5520000  22.4820000  16.1550000  39.2290000  20.2600000
  14.7450000  38.8430000  18.2680000  12.9500000  37.9680000  18.7260000
  12.1340000  36.9250000  23.5560000  14.3540000  37.9870000  23.2920000
  16.1320000  38.8700000  22.8830000  16.9680000  39.5460000  20.6330000
  15.9760000  39.3310000  18.8730000  14.5880000  38.9620000  16.8770000
  12.3320000  36.8280000  24.8920000  11.3240000  36.6010000  23.1810000
  14.5180000  37.8620000  24.7150000  16.9670000  39.9030000  18.0410000
  15.5640000  39.5280000  16.0670000  13.7870000  38.6450000  16.4760000
  13.5390000  37.3110000  25.4770000  11.6630000  36.4360000  25.4410000
  15.3180000  38.1680000  25.1270000  17.7730000  40.2240000  18.4300000
  16.7890000  40.0040000  16.6660000  15.4000000  39.6530000  14.6440000
  13.6600000  37.2460000  26.4170000  17.7850000  40.5890000  15.8030000
  16.3790000  40.2040000  13.8830000  14.6010000  39.3470000  14.2330000
  17.5870000  40.6870000  14.4670000  18.5950000  40.9130000  16.1780000
  16.2580000  40.2690000  12.9420000  18.2550000  41.0780000  13.9180000
  13.2660000  13.0180000   4.8160000  14.2580000  13.5900000   3.9840000
  12.0350000  12.5300000   4.2110000  13.4450000  12.9160000   6.2030000
  14.0790000  13.6910000   2.6090000  15.0630000  13.9110000   4.3730000
  11.8790000  12.6500000   2.8200000  11.0540000  11.9730000   5.0420000
  12.4640000  12.3590000   7.0340000  14.2590000  13.2340000   6.5760000
  15.0750000  14.2770000   1.7460000  12.8550000  13.2150000   2.0100000
  11.0770000  12.3320000   2.4190000  10.2400000  11.6560000   4.6700000
  11.2330000  11.8710000   6.4300000  12.6210000  12.2400000   8.4260000
  14.8770000  14.3740000   0.4100000  15.8850000  14.6010000   2.1210000
  12.6910000  13.3400000   0.5880000  10.2410000  11.3000000   7.2620000
  11.6450000  11.6740000   9.2350000  13.4220000  12.5570000   8.8260000
  13.6700000  13.8910000  -0.1740000  15.5460000  14.7660000  -0.1390000
  11.8910000  13.0340000   0.1760000   9.4360000  10.9780000   6.8720000
  10.4200000  11.1980000   8.6370000  11.8080000  11.5490000  10.6580000
  13.5490000  13.9560000  -1.1150000   9.4240000  10.6130000   9.5000000
  10.8300000  10.9980000  11.4200000  12.6080000  11.8550000  11.0700000
   9.6220000  10.5150000  10.8350000   8.6140000  10.2890000   9.1240000
  10.9510000  10.9330000  12.3600000   8.9540000  10.1240000  11.3850000
  16.0440000   8.5780000   4.6300000  17.0280000   8.5730000   3.6110000
  14.8000000   9.3070000   4.3980000  16.2140000   7.8980000   5.8430000
  16.8330000   9.2330000   2.4110000  17.8430000   8.1060000   3.7560000
  14.6290000   9.9840000   3.1740000  13.8240000   9.3130000   5.4020000
  15.2390000   7.9030000   6.8470000  17.0280000   7.4260000   5.9740000
  17.8170000   9.2160000   1.3730000  15.6020000   9.9570000   2.1840000
  13.8280000  10.4720000   3.0220000  13.0100000   9.7850000   5.2710000
  13.9950000   8.6320000   6.6150000  15.4090000   7.2270000   8.0710000
  17.6060000   9.8590000   0.2010000  18.6320000   8.7470000   1.5100000
  15.4300000  10.6170000   0.9310000  13.0100000   8.6370000   7.6340000
  14.4370000   7.2540000   9.0610000  16.2100000   6.7390000   8.2230000
  16.3880000  10.5740000  -0.0280000  18.2720000   9.8360000  -0.4750000
  14.6270000  11.0980000   0.7650000  12.1960000   9.1050000   7.4890000
  13.2060000   7.9780000   8.8350000  14.6080000   6.5940000  10.3150000
  16.2490000  11.0190000  -0.8560000  12.2220000   7.9950000   9.8720000
  13.6510000   6.6370000  11.2740000  15.4110000   6.1130000  10.4810000
  12.4330000   7.3510000  11.0440000  11.4070000   8.4640000   9.7360000
  13.7890000   6.1920000  12.1020000  11.7660000   7.3750000  11.7210000
  16.2350000  26.1420000  48.7860000  15.2500000  26.1460000  49.8050000
  17.4790000  25.4120000  49.0180000  16.0640000  26.8220000  47.5720000
  15.4460000  25.4870000  51.0050000  14.4360000  26.6140000  49.6600000
  17.6490000  24.7360000  50.2420000  18.4540000  25.4070000  48.0140000
  17.0400000  26.8170000  46.5690000  15.2500000  27.2940000  47.4420000
  14.4620000  25.5040000  52.0430000  16.6760000  24.7630000  51.2310000
  18.4500000  24.2480000  50.3940000  19.2680000  24.9350000  48.1450000
  18.2840000  26.0870000  46.8010000  16.8690000  27.4930000  45.3440000
  14.6730000  24.8610000  53.2150000  13.6470000  25.9730000  51.9060000
  16.8480000  24.1030000  52.4850000  19.2680000  26.0820000  45.7820000
  17.8420000  27.4660000  44.3550000  16.0680000  27.9810000  45.1930000
  15.8910000  24.1460000  53.4440000  14.0060000  24.8840000  53.8910000
  17.6510000  23.6220000  52.6510000  20.0820000  25.6150000  45.9260000
  19.0730000  26.7420000  44.5810000  17.6700000  28.1260000  43.1010000
  16.0290000  23.7010000  54.2720000  20.0570000  26.7250000  43.5440000
  18.6280000  28.0830000  42.1420000  16.8670000  28.6070000  42.9350000
  19.8460000  27.3680000  42.3710000  20.8710000  26.2560000  43.6800000
  18.4890000  28.5280000  41.3140000  20.5120000  27.3450000  41.6950000
  16.7800000  16.2570000   4.6300000  17.7640000  16.2520000   3.6110000
  15.5360000  16.9860000   4.3980000  16.9510000  15.5770000   5.8430000
  17.5690000  16.9110000   2.4110000  18.5790000  15.7840000   3.7560000
  15.3650000  17.6630000   3.1740000  14.5600000  16.9910000   5.4020000
  15.9750000  15.5820000   6.8470000  17.7640000  15.1040000   5.9740000
  18.5530000  16.8940000   1.3730000  16.3380000  17.6360000   2.1840000
  14.5640000  18.1500000   3.0220000  13.7460000  17.4640000   5.2710000
  14.7310000  16.3110000   6.6150000  16.1450000  14.9050000   8.0710000
  18.3420000  17.5380000   0.2010000  19.3680000  16.4260000   1.5100000
  16.1660000  18.2950000   0.9310000  13.7460000  16.3160000   7.6340000
  15.1730000  14.9320000   9.0610000  16.9460000  14.4180000   8.2230000
  17.1240000  18.2520000  -0.0280000  19.0080000  17.5150000  -0.4750000
  15.3640000  18.7770000   0.7650000  12.9320000  16.7840000   7.4890000
  13.9420000  15.6570000   8.8350000  15.3440000  14.2730000  10.3150000
  16.9850000  18.6970000  -0.8560000  12.9580000  15.6740000   9.8720000
  14.3870000  14.3160000  11.2740000  16.1470000  13.7910000  10.4810000
  13.1690000  15.0300000  11.0440000  12.1430000  16.1420000   9.7360000
  14.5250000  13.8710000  12.1020000  12.5020000  15.0530000  11.7210000
  14.4960000  11.9090000  20.6720000  13.5120000  11.9140000  21.6910000
  15.7400000  11.1800000  20.9040000  14.3250000  12.5890000  19.4590000
  13.7070000  11.2550000  22.8920000  12.6970000  12.3820000  21.5460000
  15.9100000  10.5030000  22.1280000  16.7160000  11.1750000  19.9000000
  15.3010000  12.5840000  18.4550000  13.5120000  13.0620000  19.3280000
  12.7230000  11.2720000  23.9290000  14.9380000  10.5310000  23.1180000
  16.7120000  10.0160000  22.2800000  17.5290000  10.7030000  20.0310000
  16.5450000  11.8550000  18.6870000  15.1310000  13.2610000  17.2310000
  12.9340000  10.6280000  25.1010000  11.9080000  11.7410000  23.7930000
  15.1100000   9.8710000  24.3720000  17.5300000  11.8500000  17.6680000
  16.1030000  13.2340000  16.2410000  14.3290000  13.7490000  17.0790000
  14.1520000   9.9140000  25.3300000  12.2680000  10.6520000  25.7770000
  15.9120000   9.3900000  24.5380000  18.3440000  11.3830000  17.8130000
  17.3340000  12.5090000  16.4680000  15.9310000  13.8940000  14.9870000
  14.2900000   9.4690000  26.1580000  18.3180000  12.4930000  15.4300000
  16.8890000  13.8510000  14.0290000  15.1290000  14.3750000  14.8220000
  18.1070000  13.1360000  14.2580000  19.1330000  12.0240000  15.5670000
  16.7510000  14.2960000  13.2010000  18.7730000  13.1130000  13.5820000
  17.0460000  15.1320000  32.7440000  18.0310000  15.1270000  31.7250000
  15.8020000  15.8610000  32.5120000  17.2170000  14.4520000  33.9570000
  17.8350000  15.7860000  30.5240000  18.8450000  14.6590000  31.8700000
  15.6320000  16.5380000  31.2880000  14.8270000  15.8660000  33.5160000
  16.2410000  14.4570000  34.9610000  18.0310000  13.9790000  34.0880000
  18.8190000  15.7690000  29.4870000  16.6040000  16.5110000  30.2980000
  14.8310000  17.0250000  31.1360000  14.0130000  16.3390000  33.3850000
  14.9970000  15.1860000  34.7290000  16.4120000  13.7800000  36.1850000
  18.6080000  16.4130000  28.3150000  19.6340000  15.3010000  29.6230000
  16.4330000  17.1700000  29.0440000  14.0130000  15.1910000  35.7480000
  15.4390000  13.8080000  37.1750000  17.2130000  13.2930000  36.3370000
  17.3900000  17.1270000  28.0860000  19.2750000  16.3900000  27.6390000
  15.6300000  17.6520000  28.8780000  13.1980000  15.6590000  35.6030000
  14.2080000  14.5320000  36.9480000  15.6110000  13.1480000  38.4290000
  17.2520000  17.5730000  27.2580000  13.2240000  14.5490000  37.9860000
  14.6530000  13.1910000  39.3870000  16.4140000  12.6660000  38.5940000
  13.4350000  13.9050000  39.1580000  12.4090000  15.0180000  37.8490000
  14.7920000  12.7460000  40.2150000  12.7690000  13.9280000  39.8340000
  15.4980000  18.4630000  48.7860000  14.5140000  18.4680000  49.8050000
  16.7420000  17.7340000  49.0180000  15.3280000  19.1430000  47.5720000
  14.7100000  17.8090000  51.0050000  13.7000000  18.9360000  49.6600000
  16.9130000  17.0570000  50.2420000  17.7180000  17.7290000  48.0140000
  16.3040000  19.1380000  46.5690000  14.5140000  19.6160000  47.4420000
  13.7250000  17.8250000  52.0430000  15.9400000  17.0840000  51.2310000
  17.7140000  16.5700000  50.3940000  18.5320000  17.2560000  48.1450000
  17.5480000  18.4090000  46.8010000  16.1330000  19.8150000  45.3440000
  13.9370000  17.1820000  53.2150000  12.9110000  18.2940000  51.9060000
  16.1120000  16.4240000  52.4850000  18.5320000  18.4040000  45.7820000
  17.1060000  19.7870000  44.3550000  15.3320000  20.3020000  45.1930000
  15.1540000  16.4680000  53.4440000  13.2700000  17.2050000  53.8910000
  16.9150000  15.9430000  52.6510000  19.3460000  17.9360000  45.9260000
  18.3360000  19.0630000  44.5810000  16.9340000  20.4470000  43.1010000
  15.2930000  16.0220000  54.2720000  19.3210000  19.0460000  43.5440000
  17.8920000  20.4040000  42.1420000  16.1310000  20.9280000  42.9350000
  19.1090000  19.6900000  42.3710000  20.1350000  18.5770000  43.6800000
  17.7530000  20.8490000  41.3140000  19.7760000  19.6670000  41.6950000
  15.2320000  19.5880000  20.6720000  14.2480000  19.5930000  21.6910000
  16.4760000  18.8590000  20.9040000  15.0610000  20.2680000  19.4590000
  14.4430000  18.9340000  22.8920000  13.4330000  20.0600000  21.5460000
  16.6470000  18.1820000  22.1280000  17.4520000  18.8540000  19.9000000
  16.0370000  20.2630000  18.4550000  14.2480000  20.7410000  19.3280000
  13.4590000  18.9500000  23.9290000  15.6740000  18.2090000  23.1180000
  17.4480000  17.6950000  22.2800000  18.2650000  18.3810000  20.0310000
  17.2810000  19.5340000  18.6870000  15.8670000  20.9400000  17.2310000
  13.6700000  18.3070000  25.1010000  12.6440000  19.4190000  23.7930000
  15.8460000  17.5490000  24.3720000  18.2660000  19.5290000  17.6680000
  16.8390000  20.9120000  16.2410000  15.0660000  21.4270000  17.0790000
  14.8880000  17.5920000  25.3300000  13.0040000  18.3300000  25.7770000
  16.6480000  17.0680000  24.5380000  19.0800000  19.0610000  17.8130000
  18.0700000  20.1880000  16.4680000  16.6670000  21.5720000  14.9870000
  15.0260000  17.1470000  26.1580000  19.0540000  20.1710000  15.4300000
  17.6250000  21.5290000  14.0290000  15.8650000  22.0530000  14.8220000
  18.8430000  20.8150000  14.2580000  19.8690000  19.7020000  15.5670000
  17.4870000  21.9740000  13.2010000  19.5100000  20.7920000  13.5820000
  18.7850000  29.3640000  60.8580000  19.7690000  29.3590000  59.8380000
  17.5410000  30.0930000  60.6260000  18.9560000  28.6840000  62.0710000
  19.5740000  30.0190000  58.6380000  20.5840000  28.8920000  59.9830000
  17.3710000  30.7700000  59.4010000  16.5650000  30.0990000  61.6290000
  17.9800000  28.6890000  63.0740000  19.7690000  28.2120000  62.2010000
  20.5580000  30.0020000  57.6010000  18.3430000  30.7430000  58.4120000
  16.5690000  31.2580000  59.2490000  15.7520000  30.5710000  61.4990000
  16.7360000  29.4180000  62.8420000  18.1500000  28.0130000  64.2990000
  20.3470000  30.6450000  56.4280000  21.3730000  29.5330000  57.7370000
  18.1710000  31.4030000  57.1580000  15.7510000  29.4230000  63.8620000
  17.1780000  28.0400000  65.2880000  18.9510000  27.5250000  64.4500000
  19.1290000  31.3600000  56.1990000  21.0130000  30.6220000  55.7520000
  17.3690000  31.8840000  56.9920000  14.9370000  29.8910000  63.7170000
  15.9470000  28.7640000  65.0620000  17.3500000  27.3800000  66.5420000
  18.9910000  31.8050000  55.3710000  14.9630000  28.7810000  66.0990000
  16.3920000  27.4230000  67.5010000  18.1520000  26.8990000  66.7080000
  15.1740000  28.1370000  67.2720000  14.1480000  29.2500000  65.9630000
  16.5300000  26.9780000  68.3290000  14.5080000  28.1610000  67.9480000
  17.7830000  22.8110000  32.7440000  18.7670000  22.8060000  31.7250000
  16.5380000  23.5400000  32.5120000  17.9530000  22.1300000  33.9570000
  18.5710000  23.4650000  30.5240000  19.5810000  22.3380000  31.8700000
  16.3680000  24.2160000  31.2880000  15.5630000  23.5450000  33.5160000
  16.9770000  22.1360000  34.9610000  18.7670000  21.6580000  34.0880000
  19.5550000  23.4480000  29.4870000  17.3410000  24.1890000  30.2980000
  15.5670000  24.7040000  31.1360000  14.7490000  24.0170000  33.3850000
  15.7330000  22.8650000  34.7290000  17.1480000  21.4590000  36.1850000
  19.3440000  24.0920000  28.3150000  20.3700000  22.9790000  29.6230000
  17.1690000  24.8490000  29.0440000  14.7490000  22.8700000  35.7480000
  16.1750000  21.4860000  37.1750000  17.9490000  20.9710000  36.3370000
  18.1260000  24.8060000  28.0860000  20.0110000  24.0680000  27.6390000
  16.3660000  25.3300000  28.8780000  13.9350000  23.3370000  35.6030000
  14.9450000  22.2100000  36.9480000  16.3470000  20.8260000  38.4290000
  17.9880000  25.2510000  27.2580000  13.9600000  22.2270000  37.9860000
  15.3890000  20.8690000  39.3870000  17.1500000  20.3450000  38.5940000
  14.1710000  21.5840000  39.1580000  13.1460000  22.6960000  37.8490000
  15.5280000  20.4240000  40.2150000  13.5050000  21.6070000  39.8340000
  19.4900000  42.5700000  18.6870000  20.4740000  42.5650000  17.6680000
  18.2460000  43.2990000  18.4550000  19.6600000  41.8890000  19.9000000
  20.2780000  43.2240000  16.4680000  21.2880000  42.0970000  17.8130000
  18.0750000  43.9750000  17.2310000  17.2700000  43.3040000  19.4590000
  18.6840000  41.8950000  20.9040000  20.4740000  41.4170000  20.0310000
  21.2630000  43.2070000  15.4300000  19.0480000  43.9480000  16.2410000
  17.2740000  44.4630000  17.0790000  16.4560000  43.7760000  19.3280000
  17.4400000  42.6240000  20.6720000  18.8550000  41.2180000  22.1280000
  21.0510000  43.8510000  14.2580000  22.0770000  42.7380000  15.5670000
  18.8760000  44.6080000  14.9870000  16.4560000  42.6290000  21.6910000
  17.8820000  41.2450000  23.1180000  19.6560000  40.7300000  22.2800000
  19.8340000  44.5650000  14.0290000  21.7180000  43.8270000  13.5820000
  18.0730000  45.0890000  14.8220000  15.6420000  43.0960000  21.5460000
  16.6520000  41.9690000  22.8920000  18.0540000  40.5850000  24.3720000
  19.6950000  45.0100000  13.2010000  15.6670000  41.9860000  23.9290000
  17.0960000  40.6280000  25.3300000  18.8570000  40.1040000  24.5380000
  15.8790000  41.3430000  25.1010000  14.8530000  42.4550000  23.7930000
  17.2350000  40.1830000  26.1580000  15.2120000  41.3660000  25.7770000
  18.4430000  49.1770000  48.7860000  17.4590000  49.1820000  49.8050000
  19.6870000  48.4480000  49.0180000  18.2720000  49.8570000  47.5720000
  17.6540000  48.5230000  51.0050000  16.6440000  49.6500000  49.6600000
  19.8570000  47.7720000  50.2420000  20.6630000  48.4430000  48.0140000
  19.2480000  49.8520000  46.5690000  17.4590000  50.3300000  47.4420000
  16.6700000  48.5400000  52.0430000  18.8850000  47.7990000  51.2310000
  20.6590000  47.2840000  50.3940000  21.4760000  47.9710000  48.1450000
  20.4920000  49.1230000  46.8010000  19.0780000  50.5290000  45.3440000
  16.8810000  47.8960000  53.2150000  15.8550000  49.0090000  51.9060000
  19.0570000  47.1390000  52.4850000  21.4770000  49.1180000  45.7820000
  20.0500000  50.5020000  44.3550000  18.2760000  51.0170000  45.1930000
  18.0990000  47.1820000  53.4440000  16.2150000  47.9200000  53.8910000
  19.8590000  46.6580000  52.6510000  22.2910000  48.6510000  45.9260000
  21.2810000  49.7780000  44.5810000  19.8780000  51.1620000  43.1010000
  18.2370000  46.7370000  54.2720000  22.2650000  49.7610000  43.5440000
  20.8360000  51.1190000  42.1420000  19.0760000  51.6430000  42.9350000
  22.0540000  50.4040000  42.3710000  23.0800000  49.2920000  43.6800000
  20.6980000  51.5640000  41.3140000  22.7200000  50.3810000  41.6950000
  20.9930000  52.4000000  60.8580000  21.9780000  52.3950000  59.8380000
  19.7490000  53.1290000  60.6260000  21.1640000  51.7200000  62.0710000
  21.7820000  53.0540000  58.6380000  22.7920000  51.9270000  59.9830000
  19.5790000  53.8060000  59.4010000  18.7740000  53.1340000  61.6290000
  20.1880000  51.7250000  63.0740000  21.9780000  51.2470000  62.2010000
  22.7660000  53.0380000  57.6010000  20.5510000  53.7790000  58.4120000
  18.7780000  54.2930000  59.2490000  17.9600000  53.6070000  61.4990000
  18.9440000  52.4540000  62.8420000  20.3590000  51.0480000  64.2990000
  22.5550000  53.6810000  56.4280000  23.5810000  52.5690000  57.7370000
  20.3800000  54.4390000  57.1580000  17.9600000  52.4590000  63.8620000
  19.3860000  51.0760000  65.2880000  21.1600000  50.5610000  64.4500000
  21.3370000  54.3960000  56.1990000  23.2220000  53.6580000  55.7520000
  19.5770000  54.9200000  56.9920000  17.1450000  52.9270000  63.7170000
  18.1550000  51.8000000  65.0620000  19.5580000  50.4160000  66.5420000
  21.1990000  54.8410000  55.3710000  17.1710000  51.8170000  66.0990000
  18.6000000  50.4590000  67.5010000  20.3610000  49.9350000  66.7080000
  17.3820000  51.1730000  67.2720000  16.3560000  52.2860000  65.9630000
  18.7390000  50.0140000  68.3290000  16.7160000  51.1960000  67.9480000
  17.5160000  23.9350000   4.6300000  18.5000000  23.9310000   3.6110000
  16.2720000  24.6650000   4.3980000  17.6870000  23.2550000   5.8430000
  18.3050000  24.5900000   2.4110000  19.3150000  23.4630000   3.7560000
  16.1020000  25.3410000   3.1740000  15.2960000  24.6700000   5.4020000
  16.7110000  23.2610000   6.8470000  18.5000000  22.7830000   5.9740000
  19.2890000  24.5730000   1.3730000  17.0740000  25.3140000   2.1840000
  15.3000000  25.8290000   3.0220000  14.4830000  25.1420000   5.2710000
  15.4670000  23.9900000   6.6150000  16.8810000  22.5840000   8.0710000
  19.0780000  25.2170000   0.2010000  20.1040000  24.1040000   1.5100000
  16.9020000  25.9740000   0.9310000  14.4820000  23.9950000   7.6340000
  15.9090000  22.6110000   9.0610000  17.6830000  22.0960000   8.2230000
  17.8600000  25.9310000  -0.0280000  19.7440000  25.1930000  -0.4750000
  16.1000000  26.4550000   0.7650000  13.6680000  24.4620000   7.4890000
  14.6780000  23.3350000   8.8350000  16.0810000  21.9510000  10.3150000
  17.7220000  26.3760000  -0.8560000  13.6940000  23.3520000   9.8720000
  15.1230000  21.9940000  11.2740000  16.8830000  21.4700000  10.4810000
  13.9050000  22.7090000  11.0440000  12.8790000  23.8210000   9.7360000
  15.2610000  21.5490000  12.1020000  13.2390000  22.7320000  11.7210000
  19.5210000  37.0430000  60.8580000  20.5060000  37.0380000  59.8380000
  18.2770000  37.7720000  60.6260000  19.6920000  36.3630000  62.0710000
  20.3100000  37.6970000  58.6380000  21.3200000  36.5700000  59.9830000
  18.1070000  38.4490000  59.4010000  17.3010000  37.7770000  61.6290000
  18.7160000  36.3680000  63.0740000  20.5050000  35.8900000  62.2010000
  21.2940000  37.6800000  57.6010000  19.0790000  38.4210000  58.4120000
  17.3050000  38.9360000  59.2490000  16.4880000  38.2500000  61.4990000
  17.4720000  37.0970000  62.8420000  18.8860000  35.6910000  64.2990000
  21.0830000  38.3240000  56.4280000  22.1090000  37.2110000  57.7370000
  18.9070000  39.0810000  57.1580000  16.4880000  37.1020000  63.8620000
  17.9140000  35.7180000  65.2880000  19.6880000  35.2040000  64.4500000
  19.8650000  39.0380000  56.1990000  21.7490000  38.3010000  55.7520000
  18.1050000  39.5630000  56.9920000  15.6730000  37.5700000  63.7170000
  16.6830000  36.4430000  65.0620000  18.0860000  35.0590000  66.5420000
  19.7270000  39.4830000  55.3710000  15.6990000  36.4600000  66.0990000
  17.1280000  35.1020000  67.5010000  18.8880000  34.5770000  66.7080000
  15.9100000  35.8160000  67.2720000  14.8840000  36.9280000  65.9630000
  17.2660000  34.6560000  68.3290000  15.2440000  35.8390000  67.9480000
  15.9680000  27.2670000  20.6720000  14.9840000  27.2710000  21.6910000
  17.2120000  26.5370000  20.9040000  15.7980000  27.9470000  19.4590000
  15.1790000  26.6120000  22.8920000  14.1690000  27.7390000  21.5460000
  17.3830000  25.8610000  22.1280000  18.1880000  26.5320000  19.9000000
  16.7730000  27.9410000  18.4550000  14.9840000  28.4190000  19.3280000
  14.1950000  26.6290000  23.9290000  16.4100000  25.8880000  23.1180000
  18.1840000  25.3730000  22.2800000  19.0020000  26.0600000  20.0310000
  18.0170000  27.2120000  18.6870000  16.6030000  28.6180000  17.2310000
  14.4060000  25.9850000  25.1010000  13.3800000  27.0980000  23.7930000
  16.5820000  25.2280000  24.3720000  19.0020000  27.2070000  17.6680000
  17.5750000  28.5910000  16.2410000  15.8020000  29.1060000  17.0790000
  15.6240000  25.2710000  25.3300000  13.7400000  26.0090000  25.7770000
  17.3840000  24.7470000  24.5380000  19.8160000  26.7400000  17.8130000
  18.8060000  27.8670000  16.4680000  17.4040000  29.2510000  14.9870000
  15.7630000  24.8260000  26.1580000  19.7900000  27.8500000  15.4300000
  18.3610000  29.2080000  14.0290000  16.6010000  29.7320000  14.8220000
  19.5790000  28.4930000  14.2580000  20.6050000  27.3810000  15.5670000
  18.2230000  29.6530000  13.2010000  20.2460000  28.4700000  13.5820000
  18.2520000  31.6140000   4.6300000  19.2370000  31.6090000   3.6110000
  17.0080000  32.3430000   4.3980000  18.4230000  30.9340000   5.8430000
  19.0410000  32.2680000   2.4110000  20.0510000  31.1420000   3.7560000
  16.8380000  33.0200000   3.1740000  16.0320000  32.3480000   5.4020000
  17.4470000  30.9390000   6.8470000  19.2360000  30.4620000   5.9740000
  20.0250000  32.2520000   1.3730000  17.8100000  32.9930000   2.1840000
  16.0370000  33.5070000   3.0220000  15.2190000  32.8210000   5.2710000
  16.2030000  31.6680000   6.6150000  17.6170000  30.2620000   8.0710000
  19.8140000  32.8950000   0.2010000  20.8400000  31.7830000   1.5100000
  17.6380000  33.6530000   0.9310000  15.2190000  31.6730000   7.6340000
  16.6450000  30.2900000   9.0610000  18.4190000  29.7750000   8.2230000
  18.5960000  33.6100000  -0.0280000  20.4800000  32.8720000  -0.4750000
  16.8360000  34.1340000   0.7650000  14.4040000  32.1410000   7.4890000
  15.4140000  31.0140000   8.8350000  16.8170000  29.6300000  10.3150000
  18.4580000  34.0550000  -0.8560000  14.4300000  31.0310000   9.8720000
  15.8590000  29.6730000  11.2740000  17.6190000  29.1490000  10.4810000
  14.6410000  30.3870000  11.0440000  13.6150000  31.5000000   9.7360000
  15.9970000  29.2280000  12.1020000  13.9750000  30.4100000  11.7210000
  18.0490000  21.6860000  60.8580000  19.0330000  21.6810000  59.8380000
  16.8050000  22.4150000  60.6260000  18.2200000  21.0060000  62.0710000
  18.8380000  22.3400000  58.6380000  19.8480000  21.2130000  59.9830000
  16.6340000  23.0920000  59.4010000  15.8290000  22.4200000  61.6290000
  17.2440000  21.0110000  63.0740000  19.0330000  20.5330000  62.2010000
  19.8220000  22.3230000  57.6010000  17.6070000  23.0640000  58.4120000
  15.8330000  23.5790000  59.2490000  15.0150000  22.8920000  61.4990000
  16.0000000  21.7400000  62.8420000  17.4140000  20.3340000  64.2990000
  19.6110000  22.9670000  56.4280000  20.6370000  21.8540000  57.7370000
  17.4350000  23.7240000  57.1580000  15.0150000  21.7450000  63.8620000
  16.4420000  20.3610000  65.2880000  18.2150000  19.8460000  64.4500000
  18.3930000  23.6810000  56.1990000  20.2770000  22.9430000  55.7520000
  16.6330000  24.2050000  56.9920000  14.2010000  22.2120000  63.7170000
  15.2110000  21.0850000  65.0620000  16.6130000  19.7010000  66.5420000
  18.2540000  24.1260000  55.3710000  14.2270000  21.1020000  66.0990000
  15.6560000  19.7440000  67.5010000  17.4160000  19.2200000  66.7080000
  14.4380000  20.4590000  67.2720000  13.4120000  21.5710000  65.9630000
  15.7940000  19.2990000  68.3290000  13.7710000  20.4820000  67.9480000
  19.9910000  45.8460000  32.7440000  20.9750000  45.8410000  31.7250000
  18.7470000  46.5760000  32.5120000  20.1610000  45.1660000  33.9570000
  20.7800000  46.5010000  30.5240000  21.7900000  45.3740000  31.8700000
  18.5760000  47.2520000  31.2880000  17.7710000  46.5810000  33.5160000
  19.1860000  45.1710000  34.9610000  20.9750000  44.6940000  34.0880000
  21.7640000  46.4840000  29.4870000  19.5490000  47.2250000  30.2980000
  17.7750000  47.7400000  31.1360000  16.9570000  47.0530000  33.3850000
  17.9420000  45.9010000  34.7290000  19.3560000  44.4950000  36.1850000
  21.5530000  47.1270000  28.3150000  22.5790000  46.0150000  29.6230000
  19.3770000  47.8850000  29.0440000  16.9570000  45.9050000  35.7480000
  18.3840000  44.5220000  37.1750000  20.1570000  44.0070000  36.3370000
  20.3350000  47.8420000  28.0860000  22.2190000  47.1040000  27.6390000
  18.5740000  48.3660000  28.8780000  16.1430000  46.3730000  35.6030000
  17.1530000  45.2460000  36.9480000  18.5550000  43.8620000  38.4290000
  20.1960000  48.2870000  27.2580000  16.1690000  45.2630000  37.9860000
  17.5980000  43.9050000  39.3870000  19.3580000  43.3810000  38.5940000
  16.3800000  44.6200000  39.1580000  15.3540000  45.7320000  37.8490000
  17.7360000  43.4600000  40.2150000  15.7130000  44.6430000  39.8340000
  18.9880000  39.2930000   4.6300000  19.9730000  39.2880000   3.6110000
  17.7440000  40.0220000   4.3980000  19.1590000  38.6130000   5.8430000
  19.7770000  39.9470000   2.4110000  20.7870000  38.8200000   3.7560000
  17.5740000  40.6990000   3.1740000  16.7680000  40.0270000   5.4020000
  18.1830000  38.6180000   6.8470000  19.9730000  38.1400000   5.9740000
  20.7610000  39.9300000   1.3730000  18.5460000  40.6710000   2.1840000
  16.7730000  41.1860000   3.0220000  15.9550000  40.4990000   5.2710000
  16.9390000  39.3470000   6.6150000  18.3540000  37.9410000   8.0710000
  20.5500000  40.5740000   0.2010000  21.5760000  39.4610000   1.5100000
  18.3750000  41.3310000   0.9310000  15.9550000  39.3520000   7.6340000
  17.3810000  37.9680000   9.0610000  19.1550000  37.4530000   8.2230000
  19.3320000  41.2880000  -0.0280000  21.2170000  40.5500000  -0.4750000
  17.5720000  41.8120000   0.7650000  15.1400000  39.8190000   7.4890000
  16.1500000  38.6930000   8.8350000  17.5530000  37.3080000  10.3150000
  19.1940000  41.7330000  -0.8560000  15.1660000  38.7090000   9.8720000
  16.5950000  37.3510000  11.2740000  18.3550000  36.8270000  10.4810000
  15.3770000  38.0660000  11.0440000  14.3510000  39.1780000   9.7360000
  16.7340000  36.9060000  12.1020000  14.7110000  38.0890000  11.7210000
  18.5190000  30.4890000  32.7440000  19.5030000  30.4840000  31.7250000
  17.2750000  31.2180000  32.5120000  18.6890000  29.8090000  33.9570000
  19.3070000  31.1440000  30.5240000  20.3170000  30.0170000  31.8700000
  17.1040000  31.8950000  31.2880000  16.2990000  31.2230000  33.5160000
  17.7130000  29.8140000  34.9610000  19.5030000  29.3370000  34.0880000
  20.2920000  31.1270000  29.4870000  18.0770000  31.8680000  30.2980000
  16.3030000  32.3830000  31.1360000  15.4850000  31.6960000  33.3850000
  16.4690000  30.5430000  34.7290000  17.8840000  29.1370000  36.1850000
  20.0800000  31.7700000  28.3150000  21.1060000  30.6580000  29.6230000
  17.9050000  32.5280000  29.0440000  15.4850000  30.5480000  35.7480000
  16.9110000  29.1650000  37.1750000  18.6850000  28.6500000  36.3370000
  18.8630000  32.4850000  28.0860000  20.7470000  31.7470000  27.6390000
  17.1020000  33.0090000  28.8780000  14.6710000  31.0160000  35.6030000
  15.6810000  29.8890000  36.9480000  17.0830000  28.5050000  38.4290000
  18.7240000  32.9300000  27.2580000  14.6960000  29.9060000  37.9860000
  16.1250000  28.5480000  39.3870000  17.8860000  28.0240000  38.5940000
  14.9080000  29.2620000  39.1580000  13.8820000  30.3750000  37.8490000
  16.2640000  28.1030000  40.2150000  14.2410000  29.2860000  39.8340000
  16.9710000  33.8200000  48.7860000  15.9860000  33.8250000  49.8050000
  18.2150000  33.0910000  49.0180000  16.8000000  34.5000000  47.5720000
  16.1820000  33.1660000  51.0050000  15.1720000  34.2930000  49.6600000
  18.3850000  32.4140000  50.2420000  19.1900000  33.0860000  48.0140000
  17.7760000  34.4950000  46.5690000  15.9860000  34.9730000  47.4420000
  15.1980000  33.1830000  52.0430000  17.4130000  32.4420000  51.2310000
  19.1860000  31.9270000  50.3940000  20.0040000  32.6130000  48.1450000
  19.0200000  33.7660000  46.8010000  17.6050000  35.1720000  45.3440000
  15.4090000  32.5390000  53.2150000  14.3830000  33.6520000  51.9060000
  17.5840000  31.7820000  52.4850000  20.0040000  33.7610000  45.7820000
  18.5780000  35.1450000  44.3550000  16.8040000  35.6590000  45.1930000
  16.6270000  31.8250000  53.4440000  14.7420000  32.5620000  53.8910000
  18.3870000  31.3000000  52.6510000  20.8190000  33.2930000  45.9260000
  19.8090000  34.4200000  44.5810000  18.4060000  35.8050000  43.1010000
  16.7650000  31.3800000  54.2720000  20.7930000  34.4030000  43.5440000
  19.3640000  35.7610000  42.1420000  17.6040000  36.2860000  42.9350000
  20.5820000  35.0470000  42.3710000  21.6080000  33.9350000  43.6800000
  19.2250000  36.2070000  41.3140000  21.2480000  35.0240000  41.6950000
  16.7040000  34.9450000  20.6720000  15.7200000  34.9500000  21.6910000
  17.9480000  34.2160000  20.9040000  16.5340000  35.6250000  19.4590000
  15.9150000  34.2910000  22.8920000  14.9060000  35.4180000  21.5460000
  18.1190000  33.5390000  22.1280000  18.9240000  34.2110000  19.9000000
  17.5090000  35.6200000  18.4550000  15.7200000  36.0980000  19.3280000
  14.9310000  34.3080000  23.9290000  17.1460000  33.5660000  23.1180000
  18.9200000  33.0520000  22.2800000  19.7380000  33.7380000  20.0310000
  18.7530000  34.8910000  18.6870000  17.3390000  36.2970000  17.2310000
  15.1420000  33.6640000  25.1010000  14.1170000  34.7760000  23.7930000
  17.3180000  32.9070000  24.3720000  19.7380000  34.8860000  17.6680000
  18.3120000  36.2700000  16.2410000  16.5380000  36.7840000  17.0790000
  16.3600000  32.9500000  25.3300000  14.4760000  33.6870000  25.7770000
  18.1210000  32.4250000  24.5380000  20.5520000  34.4180000  17.8130000
  19.5420000  35.5450000  16.4680000  18.1400000  36.9290000  14.9870000
  16.4990000  32.5050000  26.1580000  20.5260000  35.5280000  15.4300000
  19.0970000  36.8860000  14.0290000  17.3370000  37.4110000  14.8220000
  20.3150000  36.1720000  14.2580000  21.3410000  35.0600000  15.5670000
  18.9590000  37.3310000  13.2010000  20.9820000  36.1490000  13.5820000
  19.2550000  38.1680000  32.7440000  20.2390000  38.1630000  31.7250000
  18.0110000  38.8970000  32.5120000  19.4250000  37.4880000  33.9570000
  20.0430000  38.8220000  30.5240000  21.0530000  37.6950000  31.8700000
  17.8400000  39.5740000  31.2880000  17.0350000  38.9020000  33.5160000
  18.4500000  37.4930000  34.9610000  20.2390000  37.0150000  34.0880000
  21.0280000  38.8050000  29.4870000  18.8130000  39.5460000  30.2980000
  17.0390000  40.0610000  31.1360000  16.2210000  39.3750000  33.3850000
  17.2050000  38.2220000  34.7290000  18.6200000  36.8160000  36.1850000
  20.8170000  39.4490000  28.3150000  21.8420000  38.3360000  29.6230000
  18.6410000  40.2060000  29.0440000  16.2210000  38.2270000  35.7480000
  17.6470000  36.8430000  37.1750000  19.4210000  36.3290000  36.3370000
  19.5990000  40.1630000  28.0860000  21.4830000  39.4260000  27.6390000
  17.8380000  40.6870000  28.8780000  15.4070000  38.6950000  35.6030000
  16.4170000  37.5680000  36.9480000  17.8190000  36.1830000  38.4290000
  19.4600000  40.6080000  27.2580000  15.4330000  37.5840000  37.9860000
  16.8620000  36.2260000  39.3870000  18.6220000  35.7020000  38.5940000
  15.6440000  36.9410000  39.1580000  14.6180000  38.0530000  37.8490000
  17.0000000  35.7810000  40.2150000  14.9770000  36.9640000  39.8340000
  20.2570000  44.7210000  60.8580000  21.2420000  44.7170000  59.8380000
  19.0130000  45.4510000  60.6260000  20.4280000  44.0410000  62.0710000
  21.0460000  45.3760000  58.6380000  22.0560000  44.2490000  59.9830000
  18.8430000  46.1270000  59.4010000  18.0370000  45.4560000  61.6290000
  19.4520000  44.0460000  63.0740000  21.2420000  43.5690000  62.2010000
  22.0300000  45.3590000  57.6010000  19.8150000  46.1000000  58.4120000
  18.0420000  46.6150000  59.2490000  17.2240000  45.9280000  61.4990000
  18.2080000  44.7760000  62.8420000  19.6230000  43.3700000  64.2990000
  21.8190000  46.0020000  56.4280000  22.8450000  44.8900000  57.7370000
  19.6440000  46.7600000  57.1580000  17.2240000  44.7810000  63.8620000
  18.6500000  43.3970000  65.2880000  20.4240000  42.8820000  64.4500000
  20.6010000  46.7170000  56.1990000  22.4860000  45.9790000  55.7520000
  18.8410000  47.2410000  56.9920000  16.4090000  45.2480000  63.7170000
  17.4190000  44.1210000  65.0620000  18.8220000  42.7370000  66.5420000
  20.4630000  47.1620000  55.3710000  16.4350000  44.1380000  66.0990000
  17.8640000  42.7800000  67.5010000  19.6240000  42.2560000  66.7080000
  16.6460000  43.4950000  67.2720000  15.6200000  44.6070000  65.9630000
  18.0030000  42.3350000  68.3290000  15.9800000  43.5180000  67.9480000
  17.7070000  41.4990000  48.7860000  16.7220000  41.5040000  49.8050000
  18.9510000  40.7700000  49.0180000  17.5360000  42.1790000  47.5720000
  16.9180000  40.8440000  51.0050000  15.9080000  41.9710000  49.6600000
  19.1210000  40.0930000  50.2420000  19.9270000  40.7640000  48.0140000
  18.5120000  42.1740000  46.5690000  16.7230000  42.6510000  47.4420000
  15.9340000  40.8610000  52.0430000  18.1490000  40.1200000  51.2310000
  19.9220000  39.6050000  50.3940000  20.7400000  40.2920000  48.1450000
  19.7560000  41.4450000  46.8010000  18.3410000  42.8500000  45.3440000
  16.1450000  40.2180000  53.2150000  15.1190000  41.3300000  51.9060000
  18.3210000  39.4600000  52.4850000  20.7400000  41.4400000  45.7820000
  19.3140000  42.8230000  44.3550000  17.5400000  43.3380000  45.1930000
  17.3630000  39.5030000  53.4440000  15.4780000  40.2410000  53.8910000
  19.1230000  38.9790000  52.6510000  21.5550000  40.9720000  45.9260000
  20.5450000  42.0990000  44.5810000  19.1420000  43.4830000  43.1010000
  17.5010000  39.0580000  54.2720000  21.5290000  42.0820000  43.5440000
  20.1000000  43.4400000  42.1420000  18.3400000  43.9640000  42.9350000
  21.3180000  42.7260000  42.3710000  22.3440000  41.6130000  43.6800000
  19.9620000  43.8850000  41.3140000  21.9840000  42.7020000  41.6950000
  18.2760000  14.0230000  48.6000000  17.2840000  13.4510000  49.4320000
  19.5070000  14.5110000  49.2040000  18.0970000  14.1250000  47.2130000
  17.4630000  13.3500000  50.8070000  16.4790000  13.1300000  49.0430000
  19.6640000  14.3920000  50.5960000  20.4880000  15.0680000  48.3740000
  19.0780000  14.6820000  46.3820000  17.2830000  13.8080000  46.8400000
  16.4670000  12.7640000  51.6700000  18.6880000  13.8260000  51.4060000
  20.4650000  14.7090000  50.9970000  21.3020000  15.3850000  48.7460000
  20.3090000  15.1700000  46.9860000  18.9220000  14.8020000  44.9900000
  16.6650000  12.6670000  53.0050000  15.6570000  12.4400000  51.2950000
  18.8510000  13.7010000  52.8280000  21.3010000  15.7420000  46.1540000
  19.8980000  15.3670000  44.1810000  18.1200000  14.4840000  44.5900000
  17.8720000  13.1500000  53.5900000  15.9970000  12.2760000  53.5550000
  19.6510000  14.0070000  53.2400000  22.1060000  16.0630000  46.5440000
  21.1220000  15.8430000  44.7790000  19.7340000  15.4920000  42.7580000
  17.9940000  13.0850000  54.5310000  22.1180000  16.4290000  43.9160000
  20.7130000  16.0430000  41.9960000  18.9340000  15.1860000  42.3460000
  21.9200000  16.5260000  42.5810000  22.9280000  16.7530000  44.2920000
  20.5920000  16.1080000  41.0560000  22.5890000  16.9180000  42.0310000
  19.3060000   8.6170000  18.8730000  20.2980000   9.1880000  18.0410000
  18.0760000   8.1290000  18.2680000  19.4860000   8.5150000  20.2600000
  20.1200000   9.2890000  16.6660000  21.1040000   9.5090000  18.4300000
  17.9190000   8.2480000  16.8770000  17.0940000   7.5710000  19.0990000
  18.5050000   7.9570000  21.0910000  20.2990000   8.8320000  20.6330000
  21.1160000   9.8750000  15.8030000  18.8950000   8.8130000  16.0670000
  17.1180000   7.9300000  16.4760000  16.2810000   7.2540000  18.7260000
  17.2740000   7.4690000  20.4860000  18.6610000   7.8380000  22.4820000
  20.9180000   9.9720000  14.4670000  21.9250000  10.1990000  16.1780000
  18.7310000   8.9390000  14.6440000  16.2820000   6.8980000  21.3190000
  17.6850000   7.2730000  23.2920000  19.4620000   8.1550000  22.8830000
  19.7100000   9.4900000  13.8830000  21.5860000  10.3640000  13.9180000
  17.9310000   8.6320000  14.2330000  15.4770000   6.5770000  20.9290000
  16.4610000   6.7970000  22.6930000  17.8490000   7.1470000  24.7150000
  19.5890000   9.5550000  12.9420000  15.4650000   6.2110000  23.5560000
  16.8700000   6.5960000  25.4770000  18.6490000   7.4540000  25.1270000
  15.6630000   6.1140000  24.8920000  14.6550000   5.8870000  23.1810000
  16.9910000   6.5310000  26.4170000  14.9940000   5.7220000  25.4410000
  19.8080000  11.8930000  32.9290000  20.8000000  12.4650000  32.0970000
  18.5770000  11.4050000  32.3250000  19.9870000  11.7910000  34.3170000
  20.6210000  12.5660000  30.7230000  21.6050000  12.7860000  32.4870000
  18.4200000  11.5250000  30.9330000  17.5960000  10.8480000  33.1560000
  19.0060000  11.2340000  35.1480000  20.8010000  12.1090000  34.6890000
  21.6170000  13.1520000  29.8590000  19.3960000  12.0900000  30.1240000
  17.6190000  11.2070000  30.5330000  16.7820000  10.5310000  32.7830000
  17.7750000  10.7460000  34.5430000  19.1620000  11.1150000  36.5390000
  21.4190000  13.2490000  28.5240000  22.4270000  13.4760000  30.2350000
  19.2330000  12.2150000  28.7010000  16.7830000  10.1750000  35.3750000
  18.1860000  10.5490000  37.3490000  19.9640000  11.4320000  36.9400000
  20.2110000  12.7660000  27.9390000  22.0870000  13.6410000  27.9740000
  18.4330000  11.9090000  28.2890000  15.9780000   9.8530000  34.9860000
  16.9620000  10.0730000  36.7500000  18.3500000  10.4240000  38.7720000
  20.0900000  12.8310000  26.9990000  15.9660000   9.4880000  37.6130000
  17.3710000   9.8730000  39.5330000  19.1500000  10.7310000  39.1830000
  16.1640000   9.3900000  38.9490000  15.1560000   9.1640000  37.2380000
  17.4920000   9.8080000  40.4740000  15.4950000   8.9990000  39.4980000
  18.7780000  17.3000000  62.6570000  17.7860000  16.7280000  63.4890000
  20.0080000  17.7880000  63.2610000  18.5980000  17.4020000  61.2690000
  17.9640000  16.6270000  64.8640000  16.9800000  16.4070000  63.1000000
  20.1650000  17.6680000  64.6530000  20.9900000  18.3450000  62.4310000
  19.5790000  17.9590000  60.4390000  17.7850000  17.0850000  60.8970000
  16.9680000  16.0410000  65.7270000  19.1890000  17.1030000  65.4630000
  20.9660000  17.9860000  65.0540000  21.8030000  18.6620000  62.8030000
  20.8100000  18.4470000  61.0430000  19.4230000  18.0780000  59.0470000
  17.1660000  15.9440000  67.0620000  16.1590000  15.7170000  65.3520000
  19.3530000  16.9780000  66.8850000  21.8020000  19.0190000  60.2110000
  20.3990000  18.6440000  58.2370000  18.6220000  17.7610000  58.6460000
  18.3740000  16.4270000  67.6470000  16.4980000  15.5520000  67.6120000
  20.1530000  17.2840000  67.2970000  22.6070000  19.3400000  60.6000000
  21.6230000  19.1200000  58.8360000  20.2350000  18.7690000  56.8150000
  18.4950000  16.3620000  68.5870000  22.6190000  19.7060000  57.9730000
  21.2140000  19.3200000  56.0530000  19.4350000  18.4630000  56.4030000
  22.4210000  19.8030000  56.6380000  23.4290000  20.0300000  58.3480000
  21.0930000  19.3850000  55.1130000  23.0900000  20.1940000  56.0880000
  19.5140000  24.9780000  62.6570000  18.5220000  24.4070000  63.4890000
  20.7450000  25.4660000  63.2610000  19.3340000  25.0800000  61.2690000
  18.7000000  24.3060000  64.8640000  17.7160000  24.0860000  63.1000000
  20.9010000  25.3470000  64.6530000  21.7260000  26.0240000  62.4310000
  20.3150000  25.6380000  60.4390000  18.5210000  24.7630000  60.8970000
  17.7040000  23.7200000  65.7270000  19.9250000  24.7820000  65.4630000
  21.7020000  25.6650000  65.0540000  22.5390000  26.3410000  62.8030000
  21.5460000  26.1260000  61.0430000  20.1590000  25.7570000  59.0470000
  17.9020000  23.6230000  67.0620000  16.8950000  23.3960000  65.3520000
  20.0890000  24.6560000  66.8850000  22.5380000  26.6970000  60.2110000
  21.1350000  26.3220000  58.2370000  19.3580000  25.4390000  58.6460000
  19.1100000  24.1050000  67.6470000  17.2340000  23.2310000  67.6120000
  20.8890000  24.9630000  67.2970000  23.3440000  27.0180000  60.6000000
  22.3600000  26.7980000  58.8360000  20.9710000  26.4480000  56.8150000
  19.2310000  24.0400000  68.5870000  23.3560000  27.3840000  57.9730000
  21.9500000  26.9990000  56.0530000  20.1710000  26.1410000  56.4030000
  23.1580000  27.4810000  56.6380000  24.1650000  27.7080000  58.3480000
  21.8290000  27.0640000  55.1130000  23.8260000  27.8730000  56.0880000
  20.0430000  16.2950000  18.8730000  21.0340000  16.8670000  18.0410000
  18.8120000  15.8070000  18.2680000  20.2220000  16.1930000  20.2600000
  20.8560000  16.9680000  16.6660000  21.8400000  17.1880000  18.4300000
  18.6550000  15.9270000  16.8770000  17.8310000  15.2500000  19.0990000
  19.2410000  15.6360000  21.0910000  21.0350000  16.5100000  20.6330000
  21.8520000  17.5540000  15.8030000  19.6310000  16.4920000  16.0670000
  17.8540000  15.6090000  16.4760000  17.0170000  14.9330000  18.7260000
  18.0100000  15.1480000  20.4860000  19.3970000  15.5160000  22.4820000
  21.6540000  17.6510000  14.4670000  22.6620000  17.8780000  16.1780000
  19.4670000  16.6170000  14.6440000  17.0180000  14.5760000  21.3190000
  18.4210000  14.9510000  23.2920000  20.1990000  15.8340000  22.8830000
  20.4460000  17.1680000  13.8830000  22.3220000  18.0430000  13.9180000
  18.6680000  16.3110000  14.2330000  16.2130000  14.2550000  20.9290000
  17.1970000  14.4750000  22.6930000  18.5850000  14.8260000  24.7150000
  20.3250000  17.2330000  12.9420000  16.2010000  13.8890000  23.5560000
  17.6060000  14.2750000  25.4770000  19.3850000  15.1320000  25.1270000
  16.3990000  13.7920000  24.8920000  15.3910000  13.5650000  23.1810000
  17.7270000  14.2100000  26.4170000  15.7300000  13.4000000  25.4410000
  20.5440000  19.5720000  32.9290000  21.5360000  20.1440000  32.0970000
  19.3130000  19.0840000  32.3250000  20.7230000  19.4700000  34.3170000
  21.3570000  20.2450000  30.7230000  22.3410000  20.4650000  32.4870000
  19.1570000  19.2030000  30.9330000  18.3320000  18.5270000  33.1560000
  19.7420000  18.9130000  35.1480000  21.5370000  19.7870000  34.6890000
  22.3530000  20.8300000  29.8590000  20.1320000  19.7690000  30.1240000
  18.3550000  18.8860000  30.5330000  17.5180000  18.2100000  32.7830000
  18.5110000  18.4250000  34.5430000  19.8980000  18.7930000  36.5390000
  22.1550000  20.9280000  28.5240000  23.1630000  21.1540000  30.2350000
  19.9690000  19.8940000  28.7010000  17.5190000  17.8530000  35.3750000
  18.9230000  18.2280000  37.3490000  20.7000000  19.1110000  36.9400000
  20.9480000  20.4450000  27.9390000  22.8230000  21.3190000  27.9740000
  19.1690000  19.5880000  28.2890000  16.7140000  17.5320000  34.9860000
  17.6980000  17.7520000  36.7500000  19.0860000  18.1030000  38.7720000
  20.8260000  20.5100000  26.9990000  16.7020000  17.1660000  37.6130000
  18.1070000  17.5520000  39.5330000  19.8860000  18.4090000  39.1830000
  16.9000000  17.0690000  38.9490000  15.8920000  16.8420000  37.2380000
  18.2280000  17.4870000  40.4740000  16.2310000  16.6770000  39.4980000
  20.7790000  23.9740000  18.8730000  21.7710000  24.5450000  18.0410000
  19.5480000  23.4860000  18.2680000  20.9580000  23.8720000  20.2600000
  21.5920000  24.6460000  16.6660000  22.5760000  24.8660000  18.4300000
  19.3910000  23.6050000  16.8770000  18.5670000  22.9280000  19.0990000
  19.9770000  23.3140000  21.0910000  21.7720000  24.1890000  20.6330000
  22.5880000  25.2320000  15.8030000  20.3670000  24.1700000  16.0670000
  18.5900000  23.2880000  16.4760000  17.7530000  22.6110000  18.7260000
  18.7460000  22.8270000  20.4860000  20.1330000  23.1950000  22.4820000
  22.3900000  25.3290000  14.4670000  23.3980000  25.5560000  16.1780000
  20.2030000  24.2960000  14.6440000  17.7540000  22.2550000  21.3190000
  19.1570000  22.6300000  23.2920000  20.9350000  23.5130000  22.8830000
  21.1820000  24.8470000  13.8830000  23.0580000  25.7210000  13.9180000
  19.4040000  23.9890000  14.2330000  16.9490000  21.9340000  20.9290000
  17.9330000  22.1540000  22.6930000  19.3210000  22.5050000  24.7150000
  21.0610000  24.9120000  12.9420000  16.9370000  21.5680000  23.5560000
  18.3420000  21.9530000  25.4770000  20.1210000  22.8110000  25.1270000
  17.1350000  21.4710000  24.8920000  16.1270000  21.2440000  23.1810000
  18.4630000  21.8890000  26.4170000  16.4660000  21.0790000  25.4410000
  19.2470000  26.1030000  34.5430000  18.2550000  25.5320000  35.3750000
  20.4780000  26.5910000  35.1480000  19.0680000  26.2050000  33.1560000
  18.4340000  25.4310000  36.7500000  17.4500000  25.2110000  34.9860000
  20.6350000  26.4720000  36.5390000  21.4590000  27.1490000  34.3170000
  20.0490000  26.7630000  32.3250000  18.2540000  25.8880000  32.7830000
  17.4380000  24.8450000  37.6130000  19.6590000  25.9070000  37.3490000
  21.4360000  26.7890000  36.9400000  22.2730000  27.4660000  34.6890000
  21.2800000  27.2510000  32.9290000  19.8930000  26.8820000  30.9330000
  17.6360000  24.7480000  38.9490000  16.6280000  24.5210000  37.2380000
  19.8220000  25.7810000  38.7720000  22.2720000  27.8220000  32.0970000
  20.8690000  27.4470000  30.1240000  19.0910000  26.5640000  30.5330000
  18.8430000  25.2300000  39.5330000  16.9680000  24.3560000  39.4980000
  20.6220000  26.0880000  39.1830000  23.0770000  28.1430000  32.4870000
  22.0930000  27.9230000  30.7230000  20.7050000  27.5730000  28.7010000
  18.9650000  25.1650000  40.4740000  23.0890000  28.5090000  29.8590000
  21.6840000  28.1240000  27.9390000  19.9050000  27.2660000  28.2890000
  22.8910000  28.6060000  28.5240000  23.8990000  28.8330000  30.2350000
  21.5630000  28.1890000  26.9990000  23.5600000  28.9980000  27.9740000
  20.2500000  32.6570000  62.6570000  19.2580000  32.0850000  63.4890000
  21.4810000  33.1450000  63.2610000  20.0700000  32.7590000  61.2690000
  19.4370000  31.9840000  64.8640000  18.4530000  31.7640000  63.1000000
  21.6370000  33.0260000  64.6530000  22.4620000  33.7020000  62.4310000
  21.0520000  33.3160000  60.4390000  19.2570000  32.4420000  60.8970000
  18.4410000  31.3980000  65.7270000  20.6610000  32.4600000  65.4630000
  22.4380000  33.3430000  65.0540000  23.2750000  34.0190000  62.8030000
  22.2820000  33.8040000  61.0430000  20.8950000  33.4360000  59.0470000
  18.6390000  31.3010000  67.0620000  17.6310000  31.0740000  65.3520000
  20.8250000  32.3350000  66.8850000  23.2740000  34.3760000  60.2110000
  21.8710000  34.0010000  58.2370000  20.0940000  33.1180000  58.6460000
  19.8460000  31.7840000  67.6470000  17.9700000  30.9100000  67.6120000
  21.6250000  32.6410000  67.2970000  24.0800000  34.6970000  60.6000000
  23.0960000  34.4770000  58.8360000  21.7070000  34.1260000  56.8150000
  19.9670000  31.7190000  68.5870000  24.0920000  35.0630000  57.9730000
  22.6860000  34.6770000  56.0530000  20.9070000  33.8200000  56.4030000
  23.8940000  35.1600000  56.6380000  24.9010000  35.3870000  58.3480000
  22.5650000  34.7420000  55.1130000  24.5620000  35.5520000  56.0880000
  21.5150000  31.6520000  18.8730000  22.5070000  32.2240000  18.0410000
  20.2840000  31.1640000  18.2680000  21.6940000  31.5500000  20.2600000
  22.3280000  32.3250000  16.6660000  23.3120000  32.5450000  18.4300000
  20.1270000  31.2840000  16.8770000  19.3030000  30.6070000  19.0990000
  20.7130000  30.9930000  21.0910000  22.5080000  31.8680000  20.6330000
  23.3240000  32.9110000  15.8030000  21.1030000  31.8490000  16.0670000
  19.3260000  30.9660000  16.4760000  18.4890000  30.2900000  18.7260000
  19.4820000  30.5050000  20.4860000  20.8690000  30.8740000  22.4820000
  23.1260000  33.0080000  14.4670000  24.1340000  33.2350000  16.1780000
  20.9400000  31.9740000  14.6440000  18.4900000  29.9340000  21.3190000
  19.8930000  30.3080000  23.2920000  21.6710000  31.1910000  22.8830000
  21.9190000  32.5250000  13.8830000  23.7940000  33.4000000  13.9180000
  20.1400000  31.6680000  14.2330000  17.6850000  29.6120000  20.9290000
  18.6690000  29.8320000  22.6930000  20.0570000  30.1830000  24.7150000
  21.7970000  32.5900000  12.9420000  17.6730000  29.2470000  23.5560000
  19.0780000  29.6320000  25.4770000  20.8570000  30.4900000  25.1270000
  17.8710000  29.1490000  24.8920000  16.8630000  28.9230000  23.1810000
  19.1990000  29.5670000  26.4170000  17.2020000  28.7580000  25.4410000
  22.0160000  34.9290000  32.9290000  23.0080000  35.5010000  32.0970000
  20.7850000  34.4410000  32.3250000  22.1950000  34.8270000  34.3170000
  22.8290000  35.6020000  30.7230000  23.8130000  35.8220000  32.4870000
  20.6290000  34.5610000  30.9330000  19.8040000  33.8840000  33.1560000
  21.2140000  34.2700000  35.1480000  23.0090000  35.1440000  34.6890000
  23.8250000  36.1880000  29.8590000  21.6050000  35.1260000  30.1240000
  19.8270000  34.2430000  30.5330000  18.9910000  33.5670000  32.7830000
  19.9830000  33.7820000  34.5430000  21.3710000  34.1500000  36.5390000
  23.6270000  36.2850000  28.5240000  24.6350000  36.5120000  30.2350000
  21.4410000  35.2510000  28.7010000  18.9920000  33.2100000  35.3750000
  20.3950000  33.5850000  37.3490000  22.1720000  34.4680000  36.9400000
  22.4200000  35.8020000  27.9390000  24.2960000  36.6770000  27.9740000
  20.6410000  34.9450000  28.2890000  18.1860000  32.8890000  34.9860000
  19.1700000  33.1090000  36.7500000  20.5590000  33.4600000  38.7720000
  22.2990000  35.8670000  26.9990000  18.1740000  32.5230000  37.6130000
  19.5800000  32.9090000  39.5330000  21.3580000  33.7660000  39.1830000
  18.3720000  32.4260000  38.9490000  17.3640000  32.1990000  37.2380000
  19.7010000  32.8440000  40.4740000  17.7040000  32.0350000  39.4980000
  22.5170000  38.2060000  46.9860000  23.5090000  38.7780000  46.1540000
  21.2860000  37.7180000  46.3820000  22.6970000  38.1040000  48.3740000
  23.3310000  38.8790000  44.7790000  24.3150000  39.0990000  46.5440000
  21.1300000  37.8370000  44.9900000  20.3050000  37.1610000  47.2130000
  21.7150000  37.5470000  49.2040000  23.5100000  38.4210000  48.7460000
  24.3270000  39.4650000  43.9160000  22.1060000  38.4030000  44.1810000
  20.3290000  37.5200000  44.5900000  19.4920000  36.8440000  46.8400000
  20.4850000  37.0590000  48.6000000  21.8720000  37.4270000  50.5960000
  24.1290000  39.5620000  42.5810000  25.1360000  39.7890000  44.2920000
  21.9420000  38.5280000  42.7580000  19.4930000  36.4870000  49.4320000
  20.8960000  36.8620000  51.4060000  22.6730000  37.7450000  50.9970000
  22.9210000  39.0790000  41.9960000  24.7970000  39.9530000  42.0310000
  21.1420000  38.2220000  42.3460000  18.6870000  36.1660000  49.0430000
  19.6710000  36.3860000  50.8070000  21.0600000  36.7370000  52.8280000
  22.8000000  39.1440000  41.0560000  18.6750000  35.8000000  51.6700000
  20.0810000  36.1860000  53.5900000  21.8600000  37.0430000  53.2400000
  18.8730000  35.7030000  53.0050000  17.8660000  35.4760000  51.2950000
  20.2020000  36.1210000  54.5310000  18.2050000  35.3110000  53.5550000
  20.9860000  40.3360000  62.6570000  19.9940000  39.7640000  63.4890000
  22.2170000  40.8240000  63.2610000  20.8070000  40.4380000  61.2690000
  20.1730000  39.6630000  64.8640000  19.1890000  39.4430000  63.1000000
  22.3730000  40.7040000  64.6530000  23.1980000  41.3810000  62.4310000
  21.7880000  40.9950000  60.4390000  19.9930000  40.1200000  60.8970000
  19.1770000  39.0770000  65.7270000  21.3970000  40.1390000  65.4630000
  23.1750000  41.0220000  65.0540000  24.0110000  41.6980000  62.8030000
  23.0190000  41.4830000  61.0430000  21.6310000  41.1140000  59.0470000
  19.3750000  38.9800000  67.0620000  18.3670000  38.7530000  65.3520000
  21.5610000  40.0140000  66.8850000  24.0100000  42.0540000  60.2110000
  22.6070000  41.6800000  58.2370000  20.8300000  40.7970000  58.6460000
  20.5820000  39.4630000  67.6470000  18.7060000  38.5880000  67.6120000
  22.3610000  40.3200000  67.2970000  24.8160000  42.3760000  60.6000000
  23.8320000  42.1550000  58.8360000  22.4430000  41.8050000  56.8150000
  20.7030000  39.3980000  68.5870000  24.8280000  42.7410000  57.9730000
  23.4220000  42.3560000  56.0530000  21.6440000  41.4980000  56.4030000
  24.6300000  42.8390000  56.6380000  25.6380000  43.0650000  58.3480000
  23.3010000  42.4210000  55.1130000  25.2980000  43.2300000  56.0880000
  20.2180000  38.1840000  20.4860000  19.2260000  37.6120000  21.3190000
  21.4490000  38.6720000  21.0910000  20.0390000  38.2860000  19.0990000
  19.4050000  37.5110000  22.6930000  18.4210000  37.2910000  20.9290000
  21.6060000  38.5520000  22.4820000  22.4300000  39.2290000  20.2600000
  21.0200000  38.8430000  18.2680000  19.2250000  37.9680000  18.7260000
  18.4090000  36.9250000  23.5560000  20.6300000  37.9870000  23.2920000
  22.4070000  38.8700000  22.8830000  23.2440000  39.5460000  20.6330000
  22.2510000  39.3310000  18.8730000  20.8640000  38.9620000  16.8770000
  18.6070000  36.8280000  24.8920000  17.5990000  36.6010000  23.1810000
  20.7930000  37.8620000  24.7150000  23.2430000  39.9030000  18.0410000
  21.8400000  39.5280000  16.0670000  20.0620000  38.6450000  16.4760000
  19.8140000  37.3110000  25.4770000  17.9390000  36.4360000  25.4410000
  21.5930000  38.1680000  25.1270000  24.0480000  40.2240000  18.4300000
  23.0640000  40.0040000  16.6660000  21.6760000  39.6530000  14.6440000
  19.9360000  37.2460000  26.4170000  24.0600000  40.5890000  15.8030000
  22.6550000  40.2040000  13.8830000  20.8760000  39.3470000  14.2330000
  23.8620000  40.6870000  14.4670000  24.8700000  40.9130000  16.1780000
  22.5340000  40.2690000  12.9420000  24.5310000  41.0780000  13.9180000
  23.2530000  45.8850000  46.9860000  24.2450000  46.4560000  46.1540000
  22.0230000  45.3970000  46.3820000  23.4330000  45.7830000  48.3740000
  24.0670000  46.5570000  44.7790000  25.0510000  46.7770000  46.5440000
  21.8660000  45.5160000  44.9900000  21.0410000  44.8390000  47.2130000
  22.4520000  45.2250000  49.2040000  24.2460000  46.1000000  48.7460000
  25.0630000  47.1430000  43.9160000  22.8420000  46.0810000  44.1810000
  21.0650000  45.1980000  44.5900000  20.2280000  44.5220000  46.8400000
  21.2210000  44.7370000  48.6000000  22.6080000  45.1060000  50.5960000
  24.8650000  47.2400000  42.5810000  25.8720000  47.4670000  44.2920000
  22.6780000  46.2070000  42.7580000  20.2290000  44.1660000  49.4320000
  21.6320000  44.5410000  51.4060000  23.4090000  45.4240000  50.9970000
  23.6570000  46.7580000  41.9960000  25.5330000  47.6320000  42.0310000
  21.8780000  45.9000000  42.3460000  19.4240000  43.8450000  49.0430000
  20.4080000  44.0650000  50.8070000  21.7960000  44.4150000  52.8280000
  23.5360000  46.8230000  41.0560000  19.4120000  43.4790000  51.6700000
  20.8170000  43.8640000  53.5900000  22.5960000  44.7220000  53.2400000
  19.6100000  43.3820000  53.0050000  18.6020000  43.1550000  51.2950000
  20.9380000  43.7990000  54.5310000  18.9410000  42.9900000  53.5550000
  23.7550000  49.1610000  61.0430000  24.7470000  49.7330000  60.2110000
  22.5240000  48.6730000  60.4390000  23.9340000  49.0590000  62.4310000
  24.5680000  49.8340000  58.8360000  25.5520000  50.0540000  60.6000000
  22.3670000  48.7930000  59.0470000  21.5430000  48.1160000  61.2690000
  22.9530000  48.5020000  63.2610000  24.7480000  49.3770000  62.8030000
  25.5640000  50.4200000  57.9730000  23.3430000  49.3580000  58.2370000
  21.5660000  48.4750000  58.6460000  20.7290000  47.7990000  60.8970000
  21.7220000  48.0140000  62.6570000  23.1090000  48.3830000  64.6530000
  25.3660000  50.5170000  56.6380000  26.3740000  50.7440000  58.3480000
  23.1800000  49.4830000  56.8150000  20.7300000  47.4430000  63.4890000
  22.1330000  47.8170000  65.4630000  23.9110000  48.7000000  65.0540000
  24.1580000  50.0350000  56.0530000  26.0340000  50.9090000  56.0880000
  22.3800000  49.1770000  56.4030000  19.9250000  47.1210000  63.1000000
  20.9090000  47.3420000  64.8640000  22.2970000  47.6920000  66.8850000
  24.0370000  50.0990000  55.1130000  19.9130000  46.7560000  65.7270000
  21.3180000  47.1410000  67.6470000  23.0970000  47.9990000  67.2970000
  20.1110000  46.6580000  67.0620000  19.1030000  46.4320000  65.3520000
  21.4390000  47.0760000  68.5870000  19.4420000  46.2670000  67.6120000
  16.7730000   4.1920000   6.4300000  15.7810000   3.6210000   7.2620000
  18.0030000   4.6800000   7.0340000  16.5930000   4.2940000   5.0420000
  15.9590000   3.5200000   8.6370000  14.9750000   3.3000000   6.8720000
  18.1600000   4.5610000   8.4260000  18.9850000   5.2380000   6.2030000
  17.5740000   4.8520000   4.2110000  15.7800000   3.9770000   4.6700000
  14.9630000   2.9340000   9.5000000  17.1840000   3.9960000   9.2350000
  18.9610000   4.8790000   8.8260000  19.7980000   5.5550000   6.5760000
  18.8050000   5.3400000   4.8160000  17.4180000   4.9710000   2.8200000
  15.1610000   2.8370000  10.8350000  14.1530000   2.6100000   9.1240000
  17.3480000   3.8700000  10.6580000  19.7970000   5.9110000   3.9840000
  18.3940000   5.5360000   2.0100000  16.6170000   4.6540000   2.4190000
  16.3690000   3.3190000  11.4200000  14.4930000   2.4450000  11.3850000
  18.1470000   4.1770000  11.0700000  20.6020000   6.2320000   4.3730000
  19.6180000   6.0120000   2.6090000  18.2300000   5.6620000   0.5880000
  16.4900000   3.2540000  12.3600000  20.6140000   6.5980000   1.7460000
  19.2090000   6.2130000  -0.1740000  17.4300000   5.3550000   0.1760000
  20.4160000   6.6950000   0.4100000  21.4240000   6.9220000   2.1210000
  19.0880000   6.2780000  -1.1150000  21.0850000   7.0870000  -0.1390000
  19.5410000  13.0180000   4.8160000  20.5330000  13.5900000   3.9840000
  18.3100000  12.5300000   4.2110000  19.7210000  12.9160000   6.2030000
  20.3540000  13.6910000   2.6090000  21.3380000  13.9110000   4.3730000
  18.1540000  12.6500000   2.8200000  17.3290000  11.9730000   5.0420000
  18.7390000  12.3590000   7.0340000  20.5340000  13.2340000   6.5760000
  21.3500000  14.2770000   1.7460000  19.1300000  13.2150000   2.0100000
  17.3530000  12.3320000   2.4190000  16.5160000  11.6560000   4.6700000
  17.5090000  11.8710000   6.4300000  18.8960000  12.2400000   8.4260000
  21.1530000  14.3740000   0.4100000  22.1600000  14.6010000   2.1210000
  18.9660000  13.3400000   0.5880000  16.5170000  11.3000000   7.2620000
  17.9200000  11.6740000   9.2350000  19.6970000  12.5570000   8.8260000
  19.9450000  13.8910000  -0.1740000  21.8210000  14.7660000  -0.1390000
  18.1660000  13.0340000   0.1760000  15.7110000  10.9780000   6.8720000
  16.6950000  11.1980000   8.6370000  18.0840000  11.5490000  10.6580000
  19.8240000  13.9560000  -1.1150000  15.6990000  10.6130000   9.5000000
  17.1050000  10.9980000  11.4200000  18.8840000  11.8550000  11.0700000
  15.8970000  10.5150000  10.8350000  14.8900000  10.2890000   9.1240000
  17.2260000  10.9330000  12.3600000  15.2290000  10.1240000  11.3850000
  19.0120000  21.7020000  48.6000000  18.0210000  21.1300000  49.4320000
  20.2430000  22.1900000  49.2040000  18.8330000  21.8040000  47.2130000
  18.1990000  21.0290000  50.8070000  17.2150000  20.8090000  49.0430000
  20.4000000  22.0700000  50.5960000  21.2240000  22.7470000  48.3740000
  19.8140000  22.3610000  46.3820000  18.0200000  21.4860000  46.8400000
  17.2030000  20.4430000  51.6700000  19.4240000  21.5050000  51.4060000
  21.2010000  22.3880000  50.9970000  22.0380000  23.0640000  48.7460000
  21.0450000  22.8490000  46.9860000  19.6580000  22.4800000  44.9900000
  17.4010000  20.3460000  53.0050000  16.3930000  20.1190000  51.2950000
  19.5880000  21.3800000  52.8280000  22.0370000  23.4200000  46.1540000
  20.6340000  23.0460000  44.1810000  18.8560000  22.1630000  44.5900000
  18.6090000  20.8280000  53.5900000  16.7330000  19.9540000  53.5550000
  20.3870000  21.6860000  53.2400000  22.8420000  23.7420000  46.5440000
  21.8580000  23.5210000  44.7790000  20.4700000  23.1710000  42.7580000
  18.7300000  20.7640000  54.5310000  22.8540000  24.1070000  43.9160000
  21.4490000  23.7220000  41.9960000  19.6700000  22.8640000  42.3460000
  22.6560000  24.2050000  42.5810000  23.6640000  24.4310000  44.2920000
  21.3280000  23.7870000  41.0560000  23.3250000  24.5960000  42.0310000
  20.2770000  20.6970000   4.8160000  21.2690000  21.2680000   3.9840000
  19.0470000  20.2090000   4.2110000  20.4570000  20.5950000   6.2030000
  21.0910000  21.3700000   2.6090000  22.0750000  21.5900000   4.3730000
  18.8900000  20.3280000   2.8200000  18.0650000  19.6520000   5.0420000
  19.4760000  20.0380000   7.0340000  21.2700000  20.9120000   6.5760000
  22.0870000  21.9550000   1.7460000  19.8660000  20.8940000   2.0100000
  18.0890000  20.0110000   2.4190000  17.2520000  19.3340000   4.6700000
  18.2450000  19.5500000   6.4300000  19.6320000  19.9180000   8.4260000
  21.8890000  22.0530000   0.4100000  22.8960000  22.2790000   2.1210000
  19.7020000  21.0190000   0.5880000  17.2530000  18.9780000   7.2620000
  18.6560000  19.3530000   9.2350000  20.4330000  20.2360000   8.8260000
  20.6810000  21.5700000  -0.1740000  22.5570000  22.4440000  -0.1390000
  18.9020000  20.7130000   0.1760000  16.4480000  18.6570000   6.8720000
  17.4320000  18.8770000   8.6370000  18.8200000  19.2280000  10.6580000
  20.5600000  21.6350000  -1.1150000  16.4360000  18.2910000   9.5000000
  17.8410000  18.6770000  11.4200000  19.6200000  19.5340000  11.0700000
  16.6330000  18.1940000  10.8350000  15.6260000  17.9670000   9.1240000
  17.9620000  18.6120000  12.3600000  15.9650000  17.8020000  11.3850000
  21.7810000  30.5270000  46.9860000  22.7730000  31.0990000  46.1540000
  20.5500000  30.0390000  46.3820000  21.9610000  30.4250000  48.3740000
  22.5940000  31.2000000  44.7790000  23.5780000  31.4200000  46.5440000
  20.3940000  30.1590000  44.9900000  19.5690000  29.4820000  47.2130000
  20.9790000  29.8680000  49.2040000  22.7740000  30.7430000  48.7460000
  23.5900000  31.7860000  43.9160000  21.3700000  30.7240000  44.1810000
  19.5930000  29.8410000  44.5900000  18.7560000  29.1650000  46.8400000
  19.7490000  29.3800000  48.6000000  21.1360000  29.7490000  50.5960000
  23.3920000  31.8830000  42.5810000  24.4000000  32.1100000  44.2920000
  21.2060000  30.8490000  42.7580000  18.7570000  28.8090000  49.4320000
  20.1600000  29.1830000  51.4060000  21.9370000  30.0660000  50.9970000
  22.1850000  31.4010000  41.9960000  24.0610000  32.2750000  42.0310000
  20.4060000  30.5430000  42.3460000  17.9510000  28.4870000  49.0430000
  18.9350000  28.7080000  50.8070000  20.3240000  29.0580000  52.8280000
  22.0640000  31.4650000  41.0560000  17.9390000  28.1220000  51.6700000
  19.3450000  28.5070000  53.5900000  21.1240000  29.3650000  53.2400000
  18.1370000  28.0240000  53.0050000  17.1300000  27.7980000  51.2950000
  19.4660000  28.4420000  54.5310000  17.4690000  27.6330000  53.5550000
  21.0130000  28.3760000   4.8160000  22.0050000  28.9470000   3.9840000
  19.7830000  27.8880000   4.2110000  21.1930000  28.2740000   6.2030000
  21.8270000  29.0480000   2.6090000  22.8110000  29.2680000   4.3730000
  19.6260000  28.0070000   2.8200000  18.8020000  27.3300000   5.0420000
  20.2120000  27.7160000   7.0340000  22.0060000  28.5910000   6.5760000
  22.8230000  29.6340000   1.7460000  20.6020000  28.5720000   2.0100000
  18.8250000  27.6890000   2.4190000  17.9880000  27.0130000   4.6700000
  18.9810000  27.2280000   6.4300000  20.3680000  27.5970000   8.4260000
  22.6250000  29.7310000   0.4100000  23.6330000  29.9580000   2.1210000
  20.4380000  28.6980000   0.5880000  17.9890000  26.6570000   7.2620000
  19.3920000  27.0320000   9.2350000  21.1700000  27.9140000   8.8260000
  21.4170000  29.2490000  -0.1740000  23.2930000  30.1230000  -0.1390000
  19.6390000  28.3910000   0.1760000  17.1840000  26.3360000   6.8720000
  18.1680000  26.5560000   8.6370000  19.5560000  26.9060000  10.6580000
  21.2960000  29.3130000  -1.1150000  17.1720000  25.9700000   9.5000000
  18.5770000  26.3550000  11.4200000  20.3560000  27.2130000  11.0700000
  17.3700000  25.8730000  10.8350000  16.3620000  25.6460000   9.1240000
  18.6980000  26.2900000  12.3600000  16.7010000  25.4810000  11.3850000
  20.7200000  41.4610000  34.5430000  19.7280000  40.8890000  35.3750000
  21.9500000  41.9490000  35.1480000  20.5400000  41.5620000  33.1560000
  19.9060000  40.7880000  36.7500000  18.9220000  40.5680000  34.9860000
  22.1070000  41.8290000  36.5390000  22.9320000  42.5060000  34.3170000
  21.5210000  42.1200000  32.3250000  19.7270000  41.2450000  32.7830000
  18.9100000  40.2020000  37.6130000  21.1310000  41.2640000  37.3490000
  22.9080000  42.1470000  36.9400000  23.7450000  42.8230000  34.6890000
  22.7520000  42.6080000  32.9290000  21.3650000  42.2390000  30.9330000
  19.1080000  40.1050000  38.9490000  18.1000000  39.8780000  37.2380000
  21.2950000  41.1390000  38.7720000  23.7440000  43.1790000  32.0970000
  22.3410000  42.8050000  30.1240000  20.5640000  41.9220000  30.5330000
  20.3160000  40.5870000  39.5330000  18.4400000  39.7130000  39.4980000
  22.0940000  41.4450000  39.1830000  24.5490000  43.5000000  32.4870000
  23.5650000  43.2800000  30.7230000  22.1770000  42.9300000  28.7010000
  20.4370000  40.5230000  40.4740000  24.5610000  43.8660000  29.8590000
  23.1560000  43.4810000  27.9390000  21.3770000  42.6230000  28.2890000
  24.3630000  43.9630000  28.5240000  25.3710000  44.1900000  30.2350000
  23.0350000  43.5460000  26.9990000  25.0320000  44.3550000  27.9740000
  19.7170000  34.9070000   6.4300000  18.7250000  34.3350000   7.2620000
  20.9480000  35.3950000   7.0340000  19.5380000  35.0090000   5.0420000
  18.9040000  34.2340000   8.6370000  17.9200000  34.0140000   6.8720000
  21.1040000  35.2750000   8.4260000  21.9290000  35.9520000   6.2030000
  20.5190000  35.5660000   4.2110000  18.7240000  34.6920000   4.6700000
  17.9080000  33.6480000   9.5000000  20.1280000  34.7100000   9.2350000
  21.9060000  35.5930000   8.8260000  22.7420000  36.2690000   6.5760000
  21.7500000  36.0540000   4.8160000  20.3620000  35.6860000   2.8200000
  18.1060000  33.5510000  10.8350000  17.0980000  33.3240000   9.1240000
  20.2920000  34.5850000  10.6580000  22.7420000  36.6260000   3.9840000
  21.3380000  36.2510000   2.0100000  19.5610000  35.3680000   2.4190000
  19.3130000  34.0340000  11.4200000  17.4370000  33.1590000  11.3850000
  21.0920000  34.8910000  11.0700000  23.5470000  36.9470000   4.3730000
  22.5630000  36.7270000   2.6090000  21.1740000  36.3760000   0.5880000
  19.4340000  33.9690000  12.3600000  23.5590000  37.3130000   1.7460000
  22.1530000  36.9270000  -0.1740000  20.3750000  36.0700000   0.1760000
  23.3610000  37.4100000   0.4100000  24.3690000  37.6370000   2.1210000
  22.0320000  36.9920000  -1.1150000  24.0290000  37.8020000  -0.1390000
  25.7650000  42.5700000  18.6870000  26.7490000  42.5650000  17.6680000
  24.5210000  43.2990000  18.4550000  25.9350000  41.8890000  19.9000000
  26.5540000  43.2240000  16.4680000  27.5640000  42.0970000  17.8130000
  24.3500000  43.9750000  17.2310000  23.5450000  43.3040000  19.4590000
  24.9600000  41.8950000  20.9040000  26.7490000  41.4170000  20.0310000
  27.5380000  43.2070000  15.4300000  25.3230000  43.9480000  16.2410000
  23.5490000  44.4630000  17.0790000  22.7310000  43.7760000  19.3280000
  23.7160000  42.6240000  20.6720000  25.1300000  41.2180000  22.1280000
  27.3270000  43.8510000  14.2580000  28.3530000  42.7380000  15.5670000
  25.1510000  44.6080000  14.9870000  22.7310000  42.6290000  21.6910000
  24.1580000  41.2450000  23.1180000  25.9310000  40.7300000  22.2800000
  26.1090000  44.5650000  14.0290000  27.9930000  43.8270000  13.5820000
  24.3490000  45.0890000  14.8220000  21.9170000  43.0960000  21.5460000
  22.9270000  41.9690000  22.8920000  24.3290000  40.5850000  24.3720000
  25.9700000  45.0100000  13.2010000  21.9430000  41.9860000  23.9290000
  23.3720000  40.6280000  25.3300000  25.1320000  40.1040000  24.5380000
  22.1540000  41.3430000  25.1010000  21.1280000  42.4550000  23.7930000
  23.5100000  40.1830000  26.1580000  21.4870000  41.3660000  25.7770000
  24.7180000  49.1770000  48.7860000  23.7340000  49.1820000  49.8050000
  25.9620000  48.4480000  49.0180000  24.5480000  49.8570000  47.5720000
  23.9290000  48.5230000  51.0050000  22.9200000  49.6500000  49.6600000
  26.1330000  47.7720000  50.2420000  26.9380000  48.4430000  48.0140000
  25.5230000  49.8520000  46.5690000  23.7340000  50.3300000  47.4420000
  22.9450000  48.5400000  52.0430000  25.1600000  47.7990000  51.2310000
  26.9340000  47.2840000  50.3940000  27.7520000  47.9710000  48.1450000
  26.7670000  49.1230000  46.8010000  25.3530000  50.5290000  45.3440000
  23.1560000  47.8960000  53.2150000  22.1310000  49.0090000  51.9060000
  25.3320000  47.1390000  52.4850000  27.7520000  49.1180000  45.7820000
  26.3250000  50.5020000  44.3550000  24.5520000  51.0170000  45.1930000
  24.3740000  47.1820000  53.4440000  22.4900000  47.9200000  53.8910000
  26.1350000  46.6580000  52.6510000  28.5660000  48.6510000  45.9260000
  27.5560000  49.7780000  44.5810000  26.1540000  51.1620000  43.1010000
  24.5130000  46.7370000  54.2720000  28.5400000  49.7610000  43.5440000
  27.1110000  51.1190000  42.1420000  25.3510000  51.6430000  42.9350000
  28.3290000  50.4040000  42.3710000  29.3550000  49.2920000  43.6800000
  26.9730000  51.5640000  41.3140000  28.9960000  50.3810000  41.6950000
   5.7260000  14.0230000  48.6000000   4.7340000  13.4510000  49.4320000
   6.9570000  14.5110000  49.2040000   5.5460000  14.1250000  47.2130000
   4.9120000  13.3500000  50.8070000   3.9280000  13.1300000  49.0430000
   7.1130000  14.3920000  50.5960000   7.9380000  15.0680000  48.3740000
   6.5270000  14.6820000  46.3820000   4.7330000  13.8080000  46.8400000
   3.9160000  12.7640000  51.6700000   6.1370000  13.8260000  51.4060000
   7.9140000  14.7090000  50.9970000   8.7510000  15.3850000  48.7460000
   7.7580000  15.1700000  46.9860000   6.3710000  14.8020000  44.9900000
   4.1140000  12.6670000  53.0050000   3.1070000  12.4400000  51.2950000
   6.3010000  13.7010000  52.8280000   8.7500000  15.7420000  46.1540000
   7.3470000  15.3670000  44.1810000   5.5700000  14.4840000  44.5900000
   5.3220000  13.1500000  53.5900000   3.4460000  12.2760000  53.5550000
   7.1010000  14.0070000  53.2400000   9.5560000  16.0630000  46.5440000
   8.5720000  15.8430000  44.7790000   7.1830000  15.4920000  42.7580000
   5.4430000  13.0850000  54.5310000   9.5680000  16.4290000  43.9160000
   8.1620000  16.0430000  41.9960000   6.3830000  15.1860000  42.3460000
   9.3700000  16.5260000  42.5810000  10.3770000  16.7530000  44.2920000
   8.0410000  16.1080000  41.0560000  10.0380000  16.9180000  42.0310000
   6.7560000   8.6170000  18.8730000   7.7480000   9.1880000  18.0410000
   5.5250000   8.1290000  18.2680000   6.9350000   8.5150000  20.2600000
   7.5690000   9.2890000  16.6660000   8.5530000   9.5090000  18.4300000
   5.3690000   8.2480000  16.8770000   4.5440000   7.5710000  19.0990000
   5.9540000   7.9570000  21.0910000   7.7490000   8.8320000  20.6330000
   8.5650000   9.8750000  15.8030000   6.3440000   8.8130000  16.0670000
   4.5670000   7.9300000  16.4760000   3.7300000   7.2540000  18.7260000
   4.7230000   7.4690000  20.4860000   6.1100000   7.8380000  22.4820000
   8.3670000   9.9720000  14.4670000   9.3750000  10.1990000  16.1780000
   6.1810000   8.9390000  14.6440000   3.7310000   6.8980000  21.3190000
   5.1350000   7.2730000  23.2920000   6.9120000   8.1550000  22.8830000
   7.1600000   9.4900000  13.8830000   9.0360000  10.3640000  13.9180000
   5.3810000   8.6320000  14.2330000   2.9260000   6.5770000  20.9290000
   3.9100000   6.7970000  22.6930000   5.2980000   7.1470000  24.7150000
   7.0380000   9.5550000  12.9420000   2.9140000   6.2110000  23.5560000
   4.3190000   6.5960000  25.4770000   6.0980000   7.4540000  25.1270000
   3.1120000   6.1140000  24.8920000   2.1040000   5.8870000  23.1810000
   4.4410000   6.5310000  26.4170000   2.4430000   5.7220000  25.4410000
   5.2240000  10.7460000  34.5430000   4.2330000  10.1750000  35.3750000
   6.4550000  11.2340000  35.1480000   5.0450000  10.8480000  33.1560000
   4.4110000  10.0730000  36.7500000   3.4270000   9.8530000  34.9860000
   6.6120000  11.1150000  36.5390000   7.4360000  11.7910000  34.3170000
   6.0260000  11.4050000  32.3250000   4.2320000  10.5310000  32.7830000
   3.4150000   9.4880000  37.6130000   5.6360000  10.5490000  37.3490000
   7.4130000  11.4320000  36.9400000   8.2500000  12.1090000  34.6890000
   7.2570000  11.8930000  32.9290000   5.8700000  11.5250000  30.9330000
   3.6130000   9.3900000  38.9490000   2.6050000   9.1640000  37.2380000
   5.8000000  10.4240000  38.7720000   8.2490000  12.4650000  32.0970000
   6.8460000  12.0900000  30.1240000   5.0680000  11.2070000  30.5330000
   4.8210000   9.8730000  39.5330000   2.9450000   8.9990000  39.4980000
   6.5990000  10.7310000  39.1830000   9.0540000  12.7860000  32.4870000
   8.0700000  12.5660000  30.7230000   6.6820000  12.2150000  28.7010000
   4.9420000   9.8080000  40.4740000   9.0660000  13.1520000  29.8590000
   7.6610000  12.7660000  27.9390000   5.8820000  11.9090000  28.2890000
   8.8680000  13.2490000  28.5240000   9.8760000  13.4760000  30.2350000
   7.5400000  12.8310000  26.9990000   9.5370000  13.6410000  27.9740000
   8.2600000  18.4470000  61.0430000   9.2510000  19.0190000  60.2110000
   7.0290000  17.9590000  60.4390000   8.4390000  18.3450000  62.4310000
   9.0730000  19.1200000  58.8360000  10.0570000  19.3400000  60.6000000
   6.8720000  18.0780000  59.0470000   6.0480000  17.4020000  61.2690000
   7.4580000  17.7880000  63.2610000   9.2520000  18.6620000  62.8030000
  10.0690000  19.7060000  57.9730000   7.8480000  18.6440000  58.2370000
   6.0710000  17.7610000  58.6460000   5.2340000  17.0850000  60.8970000
   6.2270000  17.3000000  62.6570000   7.6140000  17.6680000  64.6530000
   9.8710000  19.8030000  56.6380000  10.8790000  20.0300000  58.3480000
   7.6840000  18.7690000  56.8150000   5.2350000  16.7280000  63.4890000
   6.6380000  17.1030000  65.4630000   8.4160000  17.9860000  65.0540000
   8.6630000  19.3200000  56.0530000  10.5390000  20.1940000  56.0880000
   6.8850000  18.4630000  56.4030000   4.4300000  16.4070000  63.1000000
   5.4140000  16.6270000  64.8640000   6.8020000  16.9780000  66.8850000
   8.5420000  19.3850000  55.1130000   4.4180000  16.0410000  65.7270000
   5.8230000  16.4270000  67.6470000   7.6020000  17.2840000  67.2970000
   4.6160000  15.9440000  67.0620000   3.6080000  15.7170000  65.3520000
   5.9440000  16.3620000  68.5870000   3.9470000  15.5520000  67.6120000
  24.3240000  21.6860000  60.8580000  25.3090000  21.6810000  59.8380000
  23.0800000  22.4150000  60.6260000  24.4950000  21.0060000  62.0710000
  25.1130000  22.3400000  58.6380000  26.1230000  21.2130000  59.9830000
  22.9100000  23.0920000  59.4010000  22.1040000  22.4200000  61.6290000
  23.5190000  21.0110000  63.0740000  25.3080000  20.5330000  62.2010000
  26.0970000  22.3230000  57.6010000  23.8820000  23.0640000  58.4120000
  22.1090000  23.5790000  59.2490000  21.2910000  22.8920000  61.4990000
  22.2750000  21.7400000  62.8420000  23.6890000  20.3340000  64.2990000
  25.8860000  22.9670000  56.4280000  26.9120000  21.8540000  57.7370000
  23.7100000  23.7240000  57.1580000  21.2910000  21.7450000  63.8620000
  22.7170000  20.3610000  65.2880000  24.4910000  19.8460000  64.4500000
  24.6680000  23.6810000  56.1990000  26.5520000  22.9430000  55.7520000
  22.9080000  24.2050000  56.9920000  20.4760000  22.2120000  63.7170000
  21.4860000  21.0850000  65.0620000  22.8890000  19.7010000  66.5420000
  24.5300000  24.1260000  55.3710000  20.5020000  21.1020000  66.0990000
  21.9310000  19.7440000  67.5010000  23.6910000  19.2200000  66.7080000
  20.7130000  20.4590000  67.2720000  19.6870000  21.5710000  65.9630000
  22.0690000  19.2990000  68.3290000  20.0470000  20.4820000  67.9480000
  20.7710000  11.9090000  20.6720000  19.7870000  11.9140000  21.6910000
  22.0150000  11.1800000  20.9040000  20.6010000  12.5890000  19.4590000
  19.9820000  11.2550000  22.8920000  18.9730000  12.3820000  21.5460000
  22.1860000  10.5030000  22.1280000  22.9910000  11.1750000  19.9000000
  21.5760000  12.5840000  18.4550000  19.7870000  13.0620000  19.3280000
  18.9980000  11.2720000  23.9290000  21.2130000  10.5310000  23.1180000
  22.9870000  10.0160000  22.2800000  23.8050000  10.7030000  20.0310000
  22.8200000  11.8550000  18.6870000  21.4060000  13.2610000  17.2310000
  19.2090000  10.6280000  25.1010000  18.1840000  11.7410000  23.7930000
  21.3850000   9.8710000  24.3720000  23.8050000  11.8500000  17.6680000
  22.3780000  13.2340000  16.2410000  20.6050000  13.7490000  17.0790000
  20.4270000   9.9140000  25.3300000  18.5430000  10.6520000  25.7770000
  22.1880000   9.3900000  24.5380000  24.6190000  11.3830000  17.8130000
  23.6090000  12.5090000  16.4680000  22.2070000  13.8940000  14.9870000
  20.5660000   9.4690000  26.1580000  24.5930000  12.4930000  15.4300000
  23.1640000  13.8510000  14.0290000  21.4040000  14.3750000  14.8220000
  24.3820000  13.1360000  14.2580000  25.4080000  12.0240000  15.5670000
  23.0260000  14.2960000  13.2010000  25.0490000  13.1130000  13.5820000
  23.3220000  15.1320000  32.7440000  24.3060000  15.1270000  31.7250000
  22.0780000  15.8610000  32.5120000  23.4920000  14.4520000  33.9570000
  24.1100000  15.7860000  30.5240000  25.1200000  14.6590000  31.8700000
  21.9070000  16.5380000  31.2880000  21.1020000  15.8660000  33.5160000
  22.5170000  14.4570000  34.9610000  24.3060000  13.9790000  34.0880000
  25.0950000  15.7690000  29.4870000  22.8800000  16.5110000  30.2980000
  21.1060000  17.0250000  31.1360000  20.2880000  16.3390000  33.3850000
  21.2720000  15.1860000  34.7290000  22.6870000  13.7800000  36.1850000
  24.8830000  16.4130000  28.3150000  25.9090000  15.3010000  29.6230000
  22.7080000  17.1700000  29.0440000  20.2880000  15.1910000  35.7480000
  21.7140000  13.8080000  37.1750000  23.4880000  13.2930000  36.3370000
  23.6660000  17.1270000  28.0860000  25.5500000  16.3900000  27.6390000
  21.9050000  17.6520000  28.8780000  19.4740000  15.6590000  35.6030000
  20.4840000  14.5320000  36.9480000  21.8860000  13.1480000  38.4290000
  23.5270000  17.5730000  27.2580000  19.4990000  14.5490000  37.9860000
  20.9290000  13.1910000  39.3870000  22.6890000  12.6660000  38.5940000
  19.7110000  13.9050000  39.1580000  18.6850000  15.0180000  37.8490000
  21.0670000  12.7460000  40.2150000  19.0440000  13.9280000  39.8340000
  22.3190000   8.5780000   4.6300000  23.3040000   8.5730000   3.6110000
  21.0750000   9.3070000   4.3980000  22.4900000   7.8980000   5.8430000
  23.1080000   9.2330000   2.4110000  24.1180000   8.1060000   3.7560000
  20.9050000   9.9840000   3.1740000  20.0990000   9.3130000   5.4020000
  21.5140000   7.9030000   6.8470000  23.3030000   7.4260000   5.9740000
  24.0920000   9.2160000   1.3730000  21.8770000   9.9570000   2.1840000
  20.1030000  10.4720000   3.0220000  19.2860000   9.7850000   5.2710000
  20.2700000   8.6320000   6.6150000  21.6840000   7.2270000   8.0710000
  23.8810000   9.8590000   0.2010000  24.9070000   8.7470000   1.5100000
  21.7050000  10.6170000   0.9310000  19.2860000   8.6370000   7.6340000
  20.7120000   7.2540000   9.0610000  22.4860000   6.7390000   8.2230000
  22.6630000  10.5740000  -0.0280000  24.5470000   9.8360000  -0.4750000
  20.9030000  11.0980000   0.7650000  18.4710000   9.1050000   7.4890000
  19.4810000   7.9780000   8.8350000  20.8840000   6.5940000  10.3150000
  22.5250000  11.0190000  -0.8560000  18.4970000   7.9950000   9.8720000
  19.9260000   6.6370000  11.2740000  21.6860000   6.1130000  10.4810000
  18.7080000   7.3510000  11.0440000  17.6820000   8.4640000   9.7360000
  20.0640000   6.1920000  12.1020000  18.0420000   7.3750000  11.7210000
  21.7740000  18.4630000  48.7860000  20.7890000  18.4680000  49.8050000
  23.0180000  17.7340000  49.0180000  21.6030000  19.1430000  47.5720000
  20.9850000  17.8090000  51.0050000  19.9750000  18.9360000  49.6600000
  23.1880000  17.0570000  50.2420000  23.9940000  17.7290000  48.0140000
  22.5790000  19.1380000  46.5690000  20.7890000  19.6160000  47.4420000
  20.0010000  17.8250000  52.0430000  22.2160000  17.0840000  51.2310000
  23.9890000  16.5700000  50.3940000  24.8070000  17.2560000  48.1450000
  23.8230000  18.4090000  46.8010000  22.4080000  19.8150000  45.3440000
  20.2120000  17.1820000  53.2150000  19.1860000  18.2940000  51.9060000
  22.3870000  16.4240000  52.4850000  24.8070000  18.4040000  45.7820000
  23.3810000  19.7870000  44.3550000  21.6070000  20.3020000  45.1930000
  21.4300000  16.4680000  53.4440000  19.5450000  17.2050000  53.8910000
  23.1900000  15.9430000  52.6510000  25.6220000  17.9360000  45.9260000
  24.6120000  19.0630000  44.5810000  23.2090000  20.4470000  43.1010000
  21.5680000  16.0220000  54.2720000  25.5960000  19.0460000  43.5440000
  24.1670000  20.4040000  42.1420000  22.4070000  20.9280000  42.9350000
  25.3850000  19.6900000  42.3710000  26.4110000  18.5770000  43.6800000
  24.0280000  20.8490000  41.3140000  26.0510000  19.6670000  41.6950000
   6.9630000  24.9780000  62.6570000   5.9710000  24.4070000  63.4890000
   8.1940000  25.4660000  63.2610000   6.7840000  25.0800000  61.2690000
   6.1500000  24.3060000  64.8640000   5.1660000  24.0860000  63.1000000
   8.3500000  25.3470000  64.6530000   9.1750000  26.0240000  62.4310000
   7.7650000  25.6380000  60.4390000   5.9700000  24.7630000  60.8970000
   5.1540000  23.7200000  65.7270000   7.3740000  24.7820000  65.4630000
   9.1520000  25.6650000  65.0540000   9.9890000  26.3410000  62.8030000
   8.9960000  26.1260000  61.0430000   7.6080000  25.7570000  59.0470000
   5.3520000  23.6230000  67.0620000   4.3440000  23.3960000  65.3520000
   7.5380000  24.6560000  66.8850000   9.9880000  26.6970000  60.2110000
   8.5840000  26.3220000  58.2370000   6.8070000  25.4390000  58.6460000
   6.5590000  24.1050000  67.6470000   4.6830000  23.2310000  67.6120000
   8.3380000  24.9630000  67.2970000  10.7930000  27.0180000  60.6000000
   9.8090000  26.7980000  58.8360000   8.4210000  26.4480000  56.8150000
   6.6800000  24.0400000  68.5870000  10.8050000  27.3840000  57.9730000
   9.4000000  26.9990000  56.0530000   7.6210000  26.1410000  56.4030000
  10.6070000  27.4810000  56.6380000  11.6150000  27.7080000  58.3480000
   9.2780000  27.0640000  55.1130000  11.2750000  27.8730000  56.0880000
   7.4920000  16.2950000  18.8730000   8.4840000  16.8670000  18.0410000
   6.2610000  15.8070000  18.2680000   7.6710000  16.1930000  20.2600000
   8.3050000  16.9680000  16.6660000   9.2890000  17.1880000  18.4300000
   6.1050000  15.9270000  16.8770000   5.2800000  15.2500000  19.0990000
   6.6900000  15.6360000  21.0910000   8.4850000  16.5100000  20.6330000
   9.3010000  17.5540000  15.8030000   7.0810000  16.4920000  16.0670000
   5.3030000  15.6090000  16.4760000   4.4660000  14.9330000  18.7260000
   5.4590000  15.1480000  20.4860000   6.8470000  15.5160000  22.4820000
   9.1030000  17.6510000  14.4670000  10.1110000  17.8780000  16.1780000
   6.9170000  16.6170000  14.6440000   4.4670000  14.5760000  21.3190000
   5.8710000  14.9510000  23.2920000   7.6480000  15.8340000  22.8830000
   7.8960000  17.1680000  13.8830000   9.7720000  18.0430000  13.9180000
   6.1170000  16.3110000  14.2330000   3.6620000  14.2550000  20.9290000
   4.6460000  14.4750000  22.6930000   6.0340000  14.8260000  24.7150000
   7.7750000  17.2330000  12.9420000   3.6500000  13.8890000  23.5560000
   5.0550000  14.2750000  25.4770000   6.8340000  15.1320000  25.1270000
   3.8480000  13.7920000  24.8920000   2.8400000  13.5650000  23.1810000
   5.1770000  14.2100000  26.4170000   3.1800000  13.4000000  25.4410000
   5.9610000  18.4250000  34.5430000   4.9690000  17.8530000  35.3750000
   7.1910000  18.9130000  35.1480000   5.7810000  18.5270000  33.1560000
   5.1470000  17.7520000  36.7500000   4.1630000  17.5320000  34.9860000
   7.3480000  18.7930000  36.5390000   8.1730000  19.4700000  34.3170000
   6.7620000  19.0840000  32.3250000   4.9680000  18.2100000  32.7830000
   4.1510000  17.1660000  37.6130000   6.3720000  18.2280000  37.3490000
   8.1490000  19.1110000  36.9400000   8.9860000  19.7870000  34.6890000
   7.9930000  19.5720000  32.9290000   6.6060000  19.2030000  30.9330000
   4.3490000  17.0690000  38.9490000   3.3420000  16.8420000  37.2380000
   6.5360000  18.1030000  38.7720000   8.9850000  20.1440000  32.0970000
   7.5820000  19.7690000  30.1240000   5.8050000  18.8860000  30.5330000
   5.5570000  17.5520000  39.5330000   3.6810000  16.6770000  39.4980000
   7.3360000  18.4090000  39.1830000   9.7900000  20.4650000  32.4870000
   8.8060000  20.2450000  30.7230000   7.4180000  19.8940000  28.7010000
   5.6780000  17.4870000  40.4740000   9.8020000  20.8300000  29.8590000
   8.3970000  20.4450000  27.9390000   6.6180000  19.5880000  28.2890000
   9.6040000  20.9280000  28.5240000  10.6120000  21.1540000  30.2350000
   8.2760000  20.5100000  26.9990000  10.2730000  21.3190000  27.9740000
   6.4620000  21.7020000  48.6000000   5.4700000  21.1300000  49.4320000
   7.6930000  22.1900000  49.2040000   6.2820000  21.8040000  47.2130000
   5.6490000  21.0290000  50.8070000   4.6650000  20.8090000  49.0430000
   7.8490000  22.0700000  50.5960000   8.6740000  22.7470000  48.3740000
   7.2640000  22.3610000  46.3820000   5.4690000  21.4860000  46.8400000
   4.6530000  20.4430000  51.6700000   6.8730000  21.5050000  51.4060000
   8.6500000  22.3880000  50.9970000   9.4870000  23.0640000  48.7460000
   8.4940000  22.8490000  46.9860000   7.1070000  22.4800000  44.9900000
   4.8510000  20.3460000  53.0050000   3.8430000  20.1190000  51.2950000
   7.0370000  21.3800000  52.8280000   9.4860000  23.4200000  46.1540000
   8.0830000  23.0460000  44.1810000   6.3060000  22.1630000  44.5900000
   6.0580000  20.8280000  53.5900000   4.1820000  19.9540000  53.5550000
   7.8370000  21.6860000  53.2400000  10.2920000  23.7420000  46.5440000
   9.3080000  23.5210000  44.7790000   7.9190000  23.1710000  42.7580000
   6.1790000  20.7640000  54.5310000  10.3040000  24.1070000  43.9160000
   8.8980000  23.7220000  41.9960000   7.1190000  22.8640000  42.3460000
  10.1060000  24.2050000  42.5810000  11.1130000  24.4310000  44.2920000
   8.7770000  23.7870000  41.0560000  10.7740000  24.5960000  42.0310000
  22.5100000  26.1420000  48.7860000  21.5250000  26.1460000  49.8050000
  23.7540000  25.4120000  49.0180000  22.3390000  26.8220000  47.5720000
  21.7210000  25.4870000  51.0050000  20.7110000  26.6140000  49.6600000
  23.9240000  24.7360000  50.2420000  24.7300000  25.4070000  48.0140000
  23.3150000  26.8170000  46.5690000  21.5260000  27.2940000  47.4420000
  20.7370000  25.5040000  52.0430000  22.9520000  24.7630000  51.2310000
  24.7260000  24.2480000  50.3940000  25.5430000  24.9350000  48.1450000
  24.5590000  26.0870000  46.8010000  23.1450000  27.4930000  45.3440000
  20.9480000  24.8610000  53.2150000  19.9220000  25.9730000  51.9060000
  23.1240000  24.1030000  52.4850000  25.5430000  26.0820000  45.7820000
  24.1170000  27.4660000  44.3550000  22.3430000  27.9810000  45.1930000
  22.1660000  24.1460000  53.4440000  20.2820000  24.8840000  53.8910000
  23.9260000  23.6220000  52.6510000  26.3580000  25.6150000  45.9260000
  25.3480000  26.7420000  44.5810000  23.9450000  28.1260000  43.1010000
  22.3040000  23.7010000  54.2720000  26.3320000  26.7250000  43.5440000
  24.9030000  28.0830000  42.1420000  23.1430000  28.6070000  42.9350000
  26.1210000  27.3680000  42.3710000  27.1470000  26.2560000  43.6800000
  24.7650000  28.5280000  41.3140000  26.7870000  27.3450000  41.6950000
  21.5070000  19.5880000  20.6720000  20.5230000  19.5930000  21.6910000
  22.7510000  18.8590000  20.9040000  21.3370000  20.2680000  19.4590000
  20.7190000  18.9340000  22.8920000  19.7090000  20.0600000  21.5460000
  22.9220000  18.1820000  22.1280000  23.7270000  18.8540000  19.9000000
  22.3120000  20.2630000  18.4550000  20.5230000  20.7410000  19.3280000
  19.7340000  18.9500000  23.9290000  21.9490000  18.2090000  23.1180000
  23.7230000  17.6950000  22.2800000  24.5410000  18.3810000  20.0310000
  23.5570000  19.5340000  18.6870000  22.1420000  20.9400000  17.2310000
  19.9460000  18.3070000  25.1010000  18.9200000  19.4190000  23.7930000
  22.1210000  17.5490000  24.3720000  24.5410000  19.5290000  17.6680000
  23.1150000  20.9120000  16.2410000  21.3410000  21.4270000  17.0790000
  21.1630000  17.5920000  25.3300000  19.2790000  18.3300000  25.7770000
  22.9240000  17.0680000  24.5380000  25.3550000  19.0610000  17.8130000
  24.3450000  20.1880000  16.4680000  22.9430000  21.5720000  14.9870000
  21.3020000  17.1470000  26.1580000  25.3300000  20.1710000  15.4300000
  23.9000000  21.5290000  14.0290000  22.1400000  22.0530000  14.8220000
  25.1180000  20.8150000  14.2580000  26.1440000  19.7020000  15.5670000
  23.7620000  21.9740000  13.2010000  25.7850000  20.7920000  13.5820000
  24.0580000  22.8110000  32.7440000  25.0420000  22.8060000  31.7250000
  22.8140000  23.5400000  32.5120000  24.2280000  22.1300000  33.9570000
  24.8470000  23.4650000  30.5240000  25.8560000  22.3380000  31.8700000
  22.6430000  24.2160000  31.2880000  21.8380000  23.5450000  33.5160000
  23.2530000  22.1360000  34.9610000  25.0420000  21.6580000  34.0880000
  25.8310000  23.4480000  29.4870000  23.6160000  24.1890000  30.2980000
  21.8420000  24.7040000  31.1360000  21.0240000  24.0170000  33.3850000
  22.0090000  22.8650000  34.7290000  23.4230000  21.4590000  36.1850000
  25.6200000  24.0920000  28.3150000  26.6450000  22.9790000  29.6230000
  23.4440000  24.8490000  29.0440000  21.0240000  22.8700000  35.7480000
  22.4500000  21.4860000  37.1750000  24.2240000  20.9710000  36.3370000
  24.4020000  24.8060000  28.0860000  26.2860000  24.0680000  27.6390000
  22.6410000  25.3300000  28.8780000  20.2100000  23.3370000  35.6030000
  21.2200000  22.2100000  36.9480000  22.6220000  20.8260000  38.4290000
  24.2630000  25.2510000  27.2580000  20.2360000  22.2270000  37.9860000
  21.6650000  20.8690000  39.3870000  23.4250000  20.3450000  38.5940000
  20.4470000  21.5840000  39.1580000  19.4210000  22.6960000  37.8490000
  21.8030000  20.4240000  40.2150000  19.7800000  21.6070000  39.8340000
   6.1950000  22.8270000  20.4860000   5.2040000  22.2550000  21.3190000
   7.4260000  23.3140000  21.0910000   6.0160000  22.9280000  19.0990000
   5.3820000  22.1540000  22.6930000   4.3980000  21.9340000  20.9290000
   7.5830000  23.1950000  22.4820000   8.4070000  23.8720000  20.2600000
   6.9970000  23.4860000  18.2680000   5.2030000  22.6110000  18.7260000
   4.3860000  21.5680000  23.5560000   6.6070000  22.6300000  23.2920000
   8.3840000  23.5130000  22.8830000   9.2210000  24.1890000  20.6330000
   8.2280000  23.9740000  18.8730000   6.8410000  23.6050000  16.8770000
   4.5840000  21.4710000  24.8920000   3.5760000  21.2440000  23.1810000
   6.7710000  22.5050000  24.7150000   9.2200000  24.5450000  18.0410000
   7.8170000  24.1700000  16.0670000   6.0390000  23.2880000  16.4760000
   5.7920000  21.9530000  25.4770000   3.9160000  21.0790000  25.4410000
   7.5700000  22.8110000  25.1270000  10.0250000  24.8660000  18.4300000
   9.0410000  24.6460000  16.6660000   7.6530000  24.2960000  14.6440000
   5.9130000  21.8890000  26.4170000  10.0370000  25.2320000  15.8030000
   8.6320000  24.8470000  13.8830000   6.8530000  23.9890000  14.2330000
   9.8390000  25.3290000  14.4670000  10.8470000  25.5560000  16.1780000
   8.5110000  24.9120000  12.9420000  10.5080000  25.7210000  13.9180000
  26.2660000  45.8460000  32.7440000  27.2510000  45.8410000  31.7250000
  25.0220000  46.5760000  32.5120000  26.4370000  45.1660000  33.9570000
  27.0550000  46.5010000  30.5240000  28.0650000  45.3740000  31.8700000
  24.8520000  47.2520000  31.2880000  24.0460000  46.5810000  33.5160000
  25.4610000  45.1710000  34.9610000  27.2500000  44.6940000  34.0880000
  28.0390000  46.4840000  29.4870000  25.8240000  47.2250000  30.2980000
  24.0500000  47.7400000  31.1360000  23.2330000  47.0530000  33.3850000
  24.2170000  45.9010000  34.7290000  25.6310000  44.4950000  36.1850000
  27.8280000  47.1270000  28.3150000  28.8540000  46.0150000  29.6230000
  25.6520000  47.8850000  29.0440000  23.2330000  45.9050000  35.7480000
  24.6590000  44.5220000  37.1750000  26.4330000  44.0070000  36.3370000
  26.6100000  47.8420000  28.0860000  28.4940000  47.1040000  27.6390000
  24.8500000  48.3660000  28.8780000  22.4180000  46.3730000  35.6030000
  23.4280000  45.2460000  36.9480000  24.8310000  43.8620000  38.4290000
  26.4720000  48.2870000  27.2580000  22.4440000  45.2630000  37.9860000
  23.8730000  43.9050000  39.3870000  25.6330000  43.3810000  38.5940000
  22.6550000  44.6200000  39.1580000  21.6290000  45.7320000  37.8490000
  24.0110000  43.4600000  40.2150000  21.9890000  44.6430000  39.8340000
   8.7290000  27.2510000  32.9290000   9.7210000  27.8220000  32.0970000
   7.4980000  26.7630000  32.3250000   8.9090000  27.1490000  34.3170000
   9.5430000  27.9230000  30.7230000  10.5270000  28.1430000  32.4870000
   7.3420000  26.8820000  30.9330000   6.5170000  26.2050000  33.1560000
   7.9280000  26.5910000  35.1480000   9.7220000  27.4660000  34.6890000
  10.5390000  28.5090000  29.8590000   8.3180000  27.4470000  30.1240000
   6.5410000  26.5640000  30.5330000   5.7040000  25.8880000  32.7830000
   6.6970000  26.1030000  34.5430000   8.0840000  26.4720000  36.5390000
  10.3410000  28.6060000  28.5240000  11.3480000  28.8330000  30.2350000
   8.1540000  27.5730000  28.7010000   5.7050000  25.5320000  35.3750000
   7.1080000  25.9070000  37.3490000   8.8850000  26.7890000  36.9400000
   9.1330000  28.1240000  27.9390000  11.0090000  28.9980000  27.9740000
   7.3540000  27.2660000  28.2890000   4.8990000  25.2110000  34.9860000
   5.8830000  25.4310000  36.7500000   7.2720000  25.7810000  38.7720000
   9.0120000  28.1890000  26.9990000   4.8870000  24.8450000  37.6130000
   6.2930000  25.2300000  39.5330000   8.0720000  26.0880000  39.1830000
   5.0850000  24.7480000  38.9490000   4.0780000  24.5210000  37.2380000
   6.4140000  25.1650000  40.4740000   4.4170000  24.3560000  39.4980000
   5.6940000  19.5500000   6.4300000   4.7020000  18.9780000   7.2620000
   6.9250000  20.0380000   7.0340000   5.5150000  19.6520000   5.0420000
   4.8810000  18.8770000   8.6370000   3.8970000  18.6570000   6.8720000
   7.0810000  19.9180000   8.4260000   7.9060000  20.5950000   6.2030000
   6.4960000  20.2090000   4.2110000   4.7010000  19.3340000   4.6700000
   3.8850000  18.2910000   9.5000000   6.1050000  19.3530000   9.2350000
   7.8830000  20.2360000   8.8260000   8.7200000  20.9120000   6.5760000
   7.7270000  20.6970000   4.8160000   6.3400000  20.3280000   2.8200000
   4.0830000  18.1940000  10.8350000   3.0750000  17.9670000   9.1240000
   6.2690000  19.2280000  10.6580000   8.7190000  21.2680000   3.9840000
   7.3150000  20.8940000   2.0100000   5.5380000  20.0110000   2.4190000
   5.2900000  18.6770000  11.4200000   3.4140000  17.8020000  11.3850000
   7.0690000  19.5340000  11.0700000   9.5240000  21.5900000   4.3730000
   8.5400000  21.3700000   2.6090000   7.1520000  21.0190000   0.5880000
   5.4110000  18.6120000  12.3600000   9.5360000  21.9550000   1.7460000
   8.1310000  21.5700000  -0.1740000   6.3520000  20.7130000   0.1760000
   9.3380000  22.0530000   0.4100000  10.3460000  22.2790000   2.1210000
   8.0090000  21.6350000  -1.1150000  10.0060000  22.4440000  -0.1390000
  25.2640000  39.2930000   4.6300000  26.2480000  39.2880000   3.6110000
  24.0200000  40.0220000   4.3980000  25.4340000  38.6130000   5.8430000
  26.0520000  39.9470000   2.4110000  27.0620000  38.8200000   3.7560000
  23.8490000  40.6990000   3.1740000  23.0440000  40.0270000   5.4020000
  24.4580000  38.6180000   6.8470000  26.2480000  38.1400000   5.9740000
  27.0370000  39.9300000   1.3730000  24.8220000  40.6710000   2.1840000
  23.0480000  41.1860000   3.0220000  22.2300000  40.4990000   5.2710000
  23.2140000  39.3470000   6.6150000  24.6290000  37.9410000   8.0710000
  26.8250000  40.5740000   0.2010000  27.8510000  39.4610000   1.5100000
  24.6500000  41.3310000   0.9310000  22.2300000  39.3520000   7.6340000
  23.6560000  37.9680000   9.0610000  25.4300000  37.4530000   8.2230000
  25.6080000  41.2880000  -0.0280000  27.4920000  40.5500000  -0.4750000
  23.8470000  41.8120000   0.7650000  21.4160000  39.8190000   7.4890000
  22.4260000  38.6930000   8.8350000  23.8280000  37.3080000  10.3150000
  25.4690000  41.7330000  -0.8560000  21.4410000  38.7090000   9.8720000
  22.8700000  37.3510000  11.2740000  24.6310000  36.8270000  10.4810000
  21.6530000  38.0660000  11.0440000  20.6270000  39.1780000   9.7360000
  23.0090000  36.9060000  12.1020000  20.9860000  38.0890000  11.7210000
   9.2310000  30.5270000  46.9860000  10.2220000  31.0990000  46.1540000
   8.0000000  30.0390000  46.3820000   9.4100000  30.4250000  48.3740000
  10.0440000  31.2000000  44.7790000  11.0280000  31.4200000  46.5440000
   7.8430000  30.1590000  44.9900000   7.0190000  29.4820000  47.2130000
   8.4290000  29.8680000  49.2040000  10.2230000  30.7430000  48.7460000
  11.0400000  31.7860000  43.9160000   8.8190000  30.7240000  44.1810000
   7.0420000  29.8410000  44.5900000   6.2050000  29.1650000  46.8400000
   7.1980000  29.3800000  48.6000000   8.5850000  29.7490000  50.5960000
  10.8420000  31.8830000  42.5810000  11.8500000  32.1100000  44.2920000
   8.6550000  30.8490000  42.7580000   6.2060000  28.8090000  49.4320000
   7.6090000  29.1830000  51.4060000   9.3870000  30.0660000  50.9970000
   9.6340000  31.4010000  41.9960000  11.5100000  32.2750000  42.0310000
   7.8560000  30.5430000  42.3460000   5.4010000  28.4870000  49.0430000
   6.3850000  28.7080000  50.8070000   7.7730000  29.0580000  52.8280000
   9.5130000  31.4650000  41.0560000   5.3890000  28.1220000  51.6700000
   6.7940000  28.5070000  53.5900000   8.5730000  29.3650000  53.2400000
   5.5870000  28.0240000  53.0050000   4.5790000  27.7980000  51.2950000
   6.9150000  28.4420000  54.5310000   4.9180000  27.6330000  53.5550000
  27.2690000  52.4000000  60.8580000  28.2530000  52.3950000  59.8380000
  26.0250000  53.1290000  60.6260000  27.4390000  51.7200000  62.0710000
  28.0570000  53.0540000  58.6380000  29.0670000  51.9270000  59.9830000
  25.8540000  53.8060000  59.4010000  25.0490000  53.1340000  61.6290000
  26.4640000  51.7250000  63.0740000  28.2530000  51.2470000  62.2010000
  29.0420000  53.0380000  57.6010000  26.8270000  53.7790000  58.4120000
  25.0530000  54.2930000  59.2490000  24.2350000  53.6070000  61.4990000
  25.2190000  52.4540000  62.8420000  26.6340000  51.0480000  64.2990000
  28.8300000  53.6810000  56.4280000  29.8560000  52.5690000  57.7370000
  26.6550000  54.4390000  57.1580000  24.2350000  52.4590000  63.8620000
  25.6610000  51.0760000  65.2880000  27.4350000  50.5610000  64.4500000
  27.6130000  54.3960000  56.1990000  29.4970000  53.6580000  55.7520000
  25.8520000  54.9200000  56.9920000  23.4210000  52.9270000  63.7170000
  24.4310000  51.8000000  65.0620000  25.8330000  50.4160000  66.5420000
  27.4740000  54.8410000  55.3710000  23.4460000  51.8170000  66.0990000
  24.8760000  50.4590000  67.5010000  26.6360000  49.9350000  66.7080000
  23.6580000  51.1730000  67.2720000  22.6320000  52.2860000  65.9630000
  25.0140000  50.0140000  68.3290000  22.9910000  51.1960000  67.9480000
   9.7320000  33.8040000  61.0430000  10.7240000  34.3760000  60.2110000
   8.5010000  33.3160000  60.4390000   9.9110000  33.7020000  62.4310000
  10.5450000  34.4770000  58.8360000  11.5290000  34.6970000  60.6000000
   8.3450000  33.4360000  59.0470000   7.5200000  32.7590000  61.2690000
   8.9300000  33.1450000  63.2610000  10.7250000  34.0190000  62.8030000
  11.5410000  35.0630000  57.9730000   9.3200000  34.0010000  58.2370000
   7.5430000  33.1180000  58.6460000   6.7060000  32.4420000  60.8970000
   7.6990000  32.6570000  62.6570000   9.0860000  33.0260000  64.6530000
  11.3430000  35.1600000  56.6380000  12.3510000  35.3870000  58.3480000
   9.1570000  34.1260000  56.8150000   6.7070000  32.0850000  63.4890000
   8.1110000  32.4600000  65.4630000   9.8880000  33.3430000  65.0540000
  10.1360000  34.6770000  56.0530000  12.0120000  35.5520000  56.0880000
   8.3570000  33.8200000  56.4030000   5.9020000  31.7640000  63.1000000
   6.8860000  31.9840000  64.8640000   8.2740000  32.3350000  66.8850000
  10.0150000  34.7420000  55.1130000   5.8900000  31.3980000  65.7270000
   7.2950000  31.7840000  67.6470000   9.0740000  32.6410000  67.2970000
   6.0880000  31.3010000  67.0620000   5.0800000  31.0740000  65.3520000
   7.4170000  31.7190000  68.5870000   5.4200000  30.9100000  67.6120000
  22.2430000  27.2670000  20.6720000  21.2590000  27.2710000  21.6910000
  23.4880000  26.5370000  20.9040000  22.0730000  27.9470000  19.4590000
  21.4550000  26.6120000  22.8920000  20.4450000  27.7390000  21.5460000
  23.6580000  25.8610000  22.1280000  24.4630000  26.5320000  19.9000000
  23.0490000  27.9410000  18.4550000  21.2590000  28.4190000  19.3280000
  20.4700000  26.6290000  23.9290000  22.6850000  25.8880000  23.1180000
  24.4590000  25.3730000  22.2800000  25.2770000  26.0600000  20.0310000
  24.2930000  27.2120000  18.6870000  22.8780000  28.6180000  17.2310000
  20.6820000  25.9850000  25.1010000  19.6560000  27.0980000  23.7930000
  22.8570000  25.2280000  24.3720000  25.2770000  27.2070000  17.6680000
  23.8510000  28.5910000  16.2410000  22.0770000  29.1060000  17.0790000
  21.9000000  25.2710000  25.3300000  20.0150000  26.0090000  25.7770000
  23.6600000  24.7470000  24.5380000  26.0910000  26.7400000  17.8130000
  25.0810000  27.8670000  16.4680000  23.6790000  29.2510000  14.9870000
  22.0380000  24.8260000  26.1580000  26.0660000  27.8500000  15.4300000
  24.6370000  29.2080000  14.0290000  22.8760000  29.7320000  14.8220000
  25.8540000  28.4930000  14.2580000  26.8800000  27.3810000  15.5670000
  24.4980000  29.6530000  13.2010000  26.5210000  28.4700000  13.5820000
  24.7940000  30.4890000  32.7440000  25.7780000  30.4840000  31.7250000
  23.5500000  31.2180000  32.5120000  24.9650000  29.8090000  33.9570000
  25.5830000  31.1440000  30.5240000  26.5930000  30.0170000  31.8700000
  23.3790000  31.8950000  31.2880000  22.5740000  31.2230000  33.5160000
  23.9890000  29.8140000  34.9610000  25.7780000  29.3370000  34.0880000
  26.5670000  31.1270000  29.4870000  24.3520000  31.8680000  30.2980000
  22.5780000  32.3830000  31.1360000  21.7600000  31.6960000  33.3850000
  22.7450000  30.5430000  34.7290000  24.1590000  29.1370000  36.1850000
  26.3560000  31.7700000  28.3150000  27.3820000  30.6580000  29.6230000
  24.1800000  32.5280000  29.0440000  21.7600000  30.5480000  35.7480000
  23.1870000  29.1650000  37.1750000  24.9600000  28.6500000  36.3370000
  25.1380000  32.4850000  28.0860000  27.0220000  31.7470000  27.6390000
  23.3780000  33.0090000  28.8780000  20.9460000  31.0160000  35.6030000
  21.9560000  29.8890000  36.9480000  23.3580000  28.5050000  38.4290000
  24.9990000  32.9300000  27.2580000  20.9720000  29.9060000  37.9860000
  22.4010000  28.5480000  39.3870000  24.1610000  28.0240000  38.5940000
  21.1830000  29.2620000  39.1580000  20.1570000  30.3750000  37.8490000
  22.5390000  28.1030000  40.2150000  20.5160000  29.2860000  39.8340000
  23.2460000  33.8200000  48.7860000  22.2620000  33.8250000  49.8050000
  24.4900000  33.0910000  49.0180000  23.0750000  34.5000000  47.5720000
  22.4570000  33.1660000  51.0050000  21.4470000  34.2930000  49.6600000
  24.6600000  32.4140000  50.2420000  25.4660000  33.0860000  48.0140000
  24.0510000  34.4950000  46.5690000  22.2620000  34.9730000  47.4420000
  21.4730000  33.1830000  52.0430000  23.6880000  32.4420000  51.2310000
  25.4620000  31.9270000  50.3940000  26.2790000  32.6130000  48.1450000
  25.2950000  33.7660000  46.8010000  23.8810000  35.1720000  45.3440000
  21.6840000  32.5390000  53.2150000  20.6580000  33.6520000  51.9060000
  23.8600000  31.7820000  52.4850000  26.2800000  33.7610000  45.7820000
  24.8530000  35.1450000  44.3550000  23.0790000  35.6590000  45.1930000
  22.9020000  31.8250000  53.4440000  21.0180000  32.5620000  53.8910000
  24.6620000  31.3000000  52.6510000  27.0940000  33.2930000  45.9260000
  26.0840000  34.4200000  44.5810000  24.6810000  35.8050000  43.1010000
  23.0400000  31.3800000  54.2720000  27.0680000  34.4030000  43.5440000
  25.6390000  35.7610000  42.1420000  23.8790000  36.2860000  42.9350000
  26.8570000  35.0470000  42.3710000  27.8830000  33.9350000  43.6800000
  25.5010000  36.2070000  41.3140000  27.5230000  35.0240000  41.6950000
   6.9320000  30.5050000  20.4860000   5.9400000  29.9340000  21.3190000
   8.1620000  30.9930000  21.0910000   6.7520000  30.6070000  19.0990000
   6.1180000  29.8320000  22.6930000   5.1340000  29.6120000  20.9290000
   8.3190000  30.8740000  22.4820000   9.1440000  31.5500000  20.2600000
   7.7330000  31.1640000  18.2680000   5.9390000  30.2900000  18.7260000
   5.1220000  29.2470000  23.5560000   7.3430000  30.3080000  23.2920000
   9.1200000  31.1910000  22.8830000   9.9570000  31.8680000  20.6330000
   8.9640000  31.6520000  18.8730000   7.5770000  31.2840000  16.8770000
   5.3200000  29.1490000  24.8920000   4.3130000  28.9230000  23.1810000
   7.5070000  30.1830000  24.7150000   9.9560000  32.2240000  18.0410000
   8.5530000  31.8490000  16.0670000   6.7760000  30.9660000  16.4760000
   6.5280000  29.6320000  25.4770000   4.6520000  28.7580000  25.4410000
   8.3070000  30.4900000  25.1270000  10.7610000  32.5450000  18.4300000
   9.7770000  32.3250000  16.6660000   8.3890000  31.9740000  14.6440000
   6.6490000  29.5670000  26.4170000  10.7730000  32.9110000  15.8030000
   9.3680000  32.5250000  13.8830000   7.5890000  31.6680000  14.2330000
  10.5750000  33.0080000  14.4670000  11.5830000  33.2350000  16.1780000
   9.2470000  32.5900000  12.9420000  11.2440000  33.4000000  13.9180000
   9.4650000  34.9290000  32.9290000  10.4570000  35.5010000  32.0970000
   8.2350000  34.4410000  32.3250000   9.6450000  34.8270000  34.3170000
  10.2790000  35.6020000  30.7230000  11.2630000  35.8220000  32.4870000
   8.0780000  34.5610000  30.9330000   7.2530000  33.8840000  33.1560000
   8.6640000  34.2700000  35.1480000  10.4580000  35.1440000  34.6890000
  11.2750000  36.1880000  29.8590000   9.0540000  35.1260000  30.1240000
   7.2770000  34.2430000  30.5330000   6.4400000  33.5670000  32.7830000
   7.4330000  33.7820000  34.5430000   8.8200000  34.1500000  36.5390000
  11.0770000  36.2850000  28.5240000  12.0840000  36.5120000  30.2350000
   8.8900000  35.2510000  28.7010000   6.4410000  33.2100000  35.3750000
   7.8440000  33.5850000  37.3490000   9.6210000  34.4680000  36.9400000
   9.8690000  35.8020000  27.9390000  11.7450000  36.6770000  27.9740000
   8.0900000  34.9450000  28.2890000   5.6360000  32.8890000  34.9860000
   6.6200000  33.1090000  36.7500000   8.0080000  33.4600000  38.7720000
   9.7480000  35.8670000  26.9990000   5.6240000  32.5230000  37.6130000
   7.0290000  32.9090000  39.5330000   8.8080000  33.7660000  39.1830000
   5.8220000  32.4260000  38.9490000   4.8140000  32.1990000  37.2380000
   7.1500000  32.8440000  40.4740000   5.1530000  32.0350000  39.4980000
  10.4680000  41.4830000  61.0430000  11.4600000  42.0540000  60.2110000
   9.2370000  40.9950000  60.4390000  10.6470000  41.3810000  62.4310000
  11.2810000  42.1550000  58.8360000  12.2650000  42.3760000  60.6000000
   9.0810000  41.1140000  59.0470000   8.2560000  40.4380000  61.2690000
   9.6660000  40.8240000  63.2610000  11.4610000  41.6980000  62.8030000
  12.2770000  42.7410000  57.9730000  10.0570000  41.6800000  58.2370000
   8.2790000  40.7970000  58.6460000   7.4420000  40.1200000  60.8970000
   8.4350000  40.3360000  62.6570000   9.8230000  40.7040000  64.6530000
  12.0790000  42.8390000  56.6380000  13.0870000  43.0650000  58.3480000
   9.8930000  41.8050000  56.8150000   7.4430000  39.7640000  63.4890000
   8.8470000  40.1390000  65.4630000  10.6240000  41.0220000  65.0540000
  10.8720000  42.3560000  56.0530000  12.7480000  43.2300000  56.0880000
   9.0930000  41.4980000  56.4030000   6.6380000  39.4430000  63.1000000
   7.6220000  39.6630000  64.8640000   9.0100000  40.0140000  66.8850000
  10.7510000  42.4210000  55.1130000   6.6260000  39.0770000  65.7270000
   8.0320000  39.4630000  67.6470000   9.8100000  40.3200000  67.2970000
   6.8240000  38.9800000  67.0620000   5.8160000  38.7530000  65.3520000
   8.1530000  39.3980000  68.5870000   6.1560000  38.5880000  67.6120000
   9.9670000  38.2060000  46.9860000  10.9590000  38.7780000  46.1540000
   8.7360000  37.7180000  46.3820000  10.1460000  38.1040000  48.3740000
  10.7800000  38.8790000  44.7790000  11.7640000  39.0990000  46.5440000
   8.5790000  37.8370000  44.9900000   7.7550000  37.1610000  47.2130000
   9.1650000  37.5470000  49.2040000  10.9600000  38.4210000  48.7460000
  11.7760000  39.4650000  43.9160000   9.5550000  38.4030000  44.1810000
   7.7780000  37.5200000  44.5900000   6.9410000  36.8440000  46.8400000
   7.9340000  37.0590000  48.6000000   9.3210000  37.4270000  50.5960000
  11.5780000  39.5620000  42.5810000  12.5860000  39.7890000  44.2920000
   9.3920000  38.5280000  42.7580000   6.9420000  36.4870000  49.4320000
   8.3450000  36.8620000  51.4060000  10.1230000  37.7450000  50.9970000
  10.3700000  39.0790000  41.9960000  12.2460000  39.9530000  42.0310000
   8.5920000  38.2220000  42.3460000   6.1370000  36.1660000  49.0430000
   7.1210000  36.3860000  50.8070000   8.5090000  36.7370000  52.8280000
  10.2490000  39.1440000  41.0560000   6.1250000  35.8000000  51.6700000
   7.5300000  36.1860000  53.5900000   9.3090000  37.0430000  53.2400000
   6.3230000  35.7030000  53.0050000   5.3150000  35.4760000  51.2950000
   7.6510000  36.1210000  54.5310000   5.6540000  35.3110000  53.5550000
  22.9800000  34.9450000  20.6720000  21.9950000  34.9500000  21.6910000
  24.2240000  34.2160000  20.9040000  22.8090000  35.6250000  19.4590000
  22.1910000  34.2910000  22.8920000  21.1810000  35.4180000  21.5460000
  24.3940000  33.5390000  22.1280000  25.1990000  34.2110000  19.9000000
  23.7850000  35.6200000  18.4550000  21.9950000  36.0980000  19.3280000
  21.2070000  34.3080000  23.9290000  23.4210000  33.5660000  23.1180000
  25.1950000  33.0520000  22.2800000  26.0130000  33.7380000  20.0310000
  25.0290000  34.8910000  18.6870000  23.6140000  36.2970000  17.2310000
  21.4180000  33.6640000  25.1010000  20.3920000  34.7760000  23.7930000
  23.5930000  32.9070000  24.3720000  26.0130000  34.8860000  17.6680000
  24.5870000  36.2700000  16.2410000  22.8130000  36.7840000  17.0790000
  22.6360000  32.9500000  25.3300000  20.7510000  33.6870000  25.7770000
  24.3960000  32.4250000  24.5380000  26.8270000  34.4180000  17.8130000
  25.8180000  35.5450000  16.4680000  24.4150000  36.9290000  14.9870000
  22.7740000  32.5050000  26.1580000  26.8020000  35.5280000  15.4300000
  25.3730000  36.8860000  14.0290000  23.6120000  37.4110000  14.8220000
  26.5910000  36.1720000  14.2580000  27.6160000  35.0600000  15.5670000
  25.2340000  37.3310000  13.2010000  27.2570000  36.1490000  13.5820000
  24.5280000  31.6140000   4.6300000  25.5120000  31.6090000   3.6110000
  23.2830000  32.3430000   4.3980000  24.6980000  30.9340000   5.8430000
  25.3160000  32.2680000   2.4110000  26.3260000  31.1420000   3.7560000
  23.1130000  33.0200000   3.1740000  22.3080000  32.3480000   5.4020000
  23.7220000  30.9390000   6.8470000  25.5120000  30.4620000   5.9740000
  26.3000000  32.2520000   1.3730000  24.0860000  32.9930000   2.1840000
  22.3120000  33.5070000   3.0220000  21.4940000  32.8210000   5.2710000
  22.4780000  31.6680000   6.6150000  23.8930000  30.2620000   8.0710000
  26.0890000  32.8950000   0.2010000  27.1150000  31.7830000   1.5100000
  23.9140000  33.6530000   0.9310000  21.4940000  31.6730000   7.6340000
  22.9200000  30.2900000   9.0610000  24.6940000  29.7750000   8.2230000
  24.8710000  33.6100000  -0.0280000  26.7560000  32.8720000  -0.4750000
  23.1110000  34.1340000   0.7650000  20.6800000  32.1410000   7.4890000
  21.6900000  31.0140000   8.8350000  23.0920000  29.6300000  10.3150000
  24.7330000  34.0550000  -0.8560000  20.7050000  31.0310000   9.8720000
  22.1340000  29.6730000  11.2740000  23.8950000  29.1490000  10.4810000
  20.9170000  30.3870000  11.0440000  19.8910000  31.5000000   9.7360000
  22.2730000  29.2280000  12.1020000  20.2500000  30.4100000  11.7210000
  23.9820000  41.4990000  48.7860000  22.9980000  41.5040000  49.8050000
  25.2260000  40.7700000  49.0180000  23.8110000  42.1790000  47.5720000
  23.1930000  40.8440000  51.0050000  22.1830000  41.9710000  49.6600000
  25.3970000  40.0930000  50.2420000  26.2020000  40.7640000  48.0140000
  24.7870000  42.1740000  46.5690000  22.9980000  42.6510000  47.4420000
  22.2090000  40.8610000  52.0430000  24.4240000  40.1200000  51.2310000
  26.1980000  39.6050000  50.3940000  27.0160000  40.2920000  48.1450000
  26.0310000  41.4450000  46.8010000  24.6170000  42.8500000  45.3440000
  22.4200000  40.2180000  53.2150000  21.3940000  41.3300000  51.9060000
  24.5960000  39.4600000  52.4850000  27.0160000  41.4400000  45.7820000
  25.5890000  42.8230000  44.3550000  23.8160000  43.3380000  45.1930000
  23.6380000  39.5030000  53.4440000  21.7540000  40.2410000  53.8910000
  25.3980000  38.9790000  52.6510000  27.8300000  40.9720000  45.9260000
  26.8200000  42.0990000  44.5810000  25.4180000  43.4830000  43.1010000
  23.7770000  39.0580000  54.2720000  27.8040000  42.0820000  43.5440000
  26.3750000  43.4400000  42.1420000  24.6150000  43.9640000  42.9350000
  27.5930000  42.7260000  42.3710000  28.6190000  41.6130000  43.6800000
  26.2370000  43.8850000  41.3140000  28.2600000  42.7020000  41.6950000
   7.6680000  38.1840000  20.4860000   6.6760000  37.6120000  21.3190000
   8.8980000  38.6720000  21.0910000   7.4880000  38.2860000  19.0990000
   6.8540000  37.5110000  22.6930000   5.8700000  37.2910000  20.9290000
   9.0550000  38.5520000  22.4820000   9.8800000  39.2290000  20.2600000
   8.4690000  38.8430000  18.2680000   6.6750000  37.9680000  18.7260000
   5.8580000  36.9250000  23.5560000   8.0790000  37.9870000  23.2920000
   9.8560000  38.8700000  22.8830000  10.6930000  39.5460000  20.6330000
   9.7000000  39.3310000  18.8730000   8.3130000  38.9620000  16.8770000
   6.0560000  36.8280000  24.8920000   5.0490000  36.6010000  23.1810000
   8.2430000  37.8620000  24.7150000  10.6920000  39.9030000  18.0410000
   9.2890000  39.5280000  16.0670000   7.5120000  38.6450000  16.4760000
   7.2640000  37.3110000  25.4770000   5.3880000  36.4360000  25.4410000
   9.0430000  38.1680000  25.1270000  11.4970000  40.2240000  18.4300000
  10.5140000  40.0040000  16.6660000   9.1250000  39.6530000  14.6440000
   7.3850000  37.2460000  26.4170000  11.5100000  40.5890000  15.8030000
  10.1040000  40.2040000  13.8830000   8.3250000  39.3470000  14.2330000
  11.3120000  40.6870000  14.4670000  12.3190000  40.9130000  16.1780000
   9.9830000  40.2690000  12.9420000  11.9800000  41.0780000  13.9180000
  11.2040000  49.1610000  61.0430000  12.1960000  49.7330000  60.2110000
   9.9730000  48.6730000  60.4390000  11.3830000  49.0590000  62.4310000
  12.0170000  49.8340000  58.8360000  13.0010000  50.0540000  60.6000000
   9.8170000  48.7930000  59.0470000   8.9920000  48.1160000  61.2690000
  10.4020000  48.5020000  63.2610000  12.1970000  49.3770000  62.8030000
  13.0130000  50.4200000  57.9730000  10.7930000  49.3580000  58.2370000
   9.0150000  48.4750000  58.6460000   8.1790000  47.7990000  60.8970000
   9.1710000  48.0140000  62.6570000  10.5590000  48.3830000  64.6530000
  12.8150000  50.5170000  56.6380000  13.8230000  50.7440000  58.3480000
  10.6290000  49.4830000  56.8150000   8.1800000  47.4430000  63.4890000
   9.5830000  47.8170000  65.4630000  11.3600000  48.7000000  65.0540000
  11.6080000  50.0350000  56.0530000  13.4840000  50.9090000  56.0880000
   9.8290000  49.1770000  56.4030000   7.3740000  47.1210000  63.1000000
   8.3580000  47.3420000  64.8640000   9.7470000  47.6920000  66.8850000
  11.4870000  50.0990000  55.1130000   7.3620000  46.7560000  65.7270000
   8.7680000  47.1410000  67.6470000  10.5460000  47.9990000  67.2970000
   7.5600000  46.6580000  67.0620000   6.5520000  46.4320000  65.3520000
   8.8890000  47.0760000  68.5870000   6.8920000  46.2670000  67.6120000
   8.1690000  41.4610000  34.5430000   7.1770000  40.8890000  35.3750000
   9.4000000  41.9490000  35.1480000   7.9900000  41.5620000  33.1560000
   7.3560000  40.7880000  36.7500000   6.3720000  40.5680000  34.9860000
   9.5560000  41.8290000  36.5390000  10.3810000  42.5060000  34.3170000
   8.9710000  42.1200000  32.3250000   7.1760000  41.2450000  32.7830000
   6.3600000  40.2020000  37.6130000   8.5800000  41.2640000  37.3490000
  10.3580000  42.1470000  36.9400000  11.1940000  42.8230000  34.6890000
  10.2020000  42.6080000  32.9290000   8.8140000  42.2390000  30.9330000
   6.5580000  40.1050000  38.9490000   5.5500000  39.8780000  37.2380000
   8.7440000  41.1390000  38.7720000  11.1930000  43.1790000  32.0970000
   9.7900000  42.8050000  30.1240000   8.0130000  41.9220000  30.5330000
   7.7650000  40.5870000  39.5330000   5.8890000  39.7130000  39.4980000
   9.5440000  41.4450000  39.1830000  11.9990000  43.5000000  32.4870000
  11.0150000  43.2800000  30.7230000   9.6260000  42.9300000  28.7010000
   7.8860000  40.5230000  40.4740000  12.0110000  43.8660000  29.8590000
  10.6050000  43.4810000  27.9390000   8.8270000  42.6230000  28.2890000
  11.8130000  43.9630000  28.5240000  12.8210000  44.1900000  30.2350000
  10.4840000  43.5460000  26.9990000  12.4810000  44.3550000  27.9740000
   8.6700000  44.7370000  48.6000000   7.6780000  44.1660000  49.4320000
   9.9010000  45.2250000  49.2040000   8.4910000  44.8390000  47.2130000
   7.8570000  44.0650000  50.8070000   6.8730000  43.8450000  49.0430000
  10.0570000  45.1060000  50.5960000  10.8820000  45.7830000  48.3740000
   9.4720000  45.3970000  46.3820000   7.6770000  44.5220000  46.8400000
   6.8610000  43.4790000  51.6700000   9.0820000  44.5410000  51.4060000
  10.8590000  45.4240000  50.9970000  11.6960000  46.1000000  48.7460000
  10.7030000  45.8850000  46.9860000   9.3160000  45.5160000  44.9900000
   7.0590000  43.3820000  53.0050000   6.0510000  43.1550000  51.2950000
   9.2450000  44.4150000  52.8280000  11.6950000  46.4560000  46.1540000
  10.2910000  46.0810000  44.1810000   8.5140000  45.1980000  44.5900000
   8.2660000  43.8640000  53.5900000   6.3900000  42.9900000  53.5550000
  10.0450000  44.7220000  53.2400000  12.5000000  46.7770000  46.5440000
  11.5160000  46.5570000  44.7790000  10.1280000  46.2070000  42.7580000
   8.3880000  43.7990000  54.5310000  12.5120000  47.1430000  43.9160000
  11.1070000  46.7580000  41.9960000   9.3280000  45.9000000  42.3460000
  12.3140000  47.2400000  42.5810000  13.3220000  47.4670000  44.2920000
  10.9850000  46.8230000  41.0560000  12.9830000  47.6320000  42.0310000
   6.2550000   5.3400000   4.8160000   7.2460000   5.9110000   3.9840000
   5.0240000   4.8520000   4.2110000   6.4340000   5.2380000   6.2030000
   7.0680000   6.0120000   2.6090000   8.0520000   6.2320000   4.3730000
   4.8670000   4.9710000   2.8200000   4.0430000   4.2940000   5.0420000
   5.4530000   4.6800000   7.0340000   7.2470000   5.5550000   6.5760000
   8.0640000   6.5980000   1.7460000   5.8430000   5.5360000   2.0100000
   4.0660000   4.6540000   2.4190000   3.2290000   3.9770000   4.6700000
   4.2220000   4.1920000   6.4300000   5.6090000   4.5610000   8.4260000
   7.8660000   6.6950000   0.4100000   8.8740000   6.9220000   2.1210000
   5.6790000   5.6620000   0.5880000   3.2300000   3.6210000   7.2620000
   4.6330000   3.9960000   9.2350000   6.4110000   4.8790000   8.8260000
   6.6580000   6.2130000  -0.1740000   8.5340000   7.0870000  -0.1390000
   4.8800000   5.3550000   0.1760000   2.4250000   3.3000000   6.8720000
   3.4090000   3.5200000   8.6370000   4.7970000   3.8700000  10.6580000
   6.5370000   6.2780000  -1.1150000   2.4130000   2.9340000   9.5000000
   3.8180000   3.3190000  11.4200000   5.5970000   4.1770000  11.0700000
   2.6110000   2.8370000  10.8350000   1.6030000   2.6100000   9.1240000
   3.9390000   3.2540000  12.3600000   1.9420000   2.4450000  11.3850000
   6.9910000  13.0180000   4.8160000   7.9830000  13.5900000   3.9840000
   5.7600000  12.5300000   4.2110000   7.1700000  12.9160000   6.2030000
   7.8040000  13.6910000   2.6090000   8.7880000  13.9110000   4.3730000
   5.6030000  12.6500000   2.8200000   4.7790000  11.9730000   5.0420000
   6.1890000  12.3590000   7.0340000   7.9840000  13.2340000   6.5760000
   8.8000000  14.2770000   1.7460000   6.5790000  13.2150000   2.0100000
   4.8020000  12.3320000   2.4190000   3.9650000  11.6560000   4.6700000
   4.9580000  11.8710000   6.4300000   6.3450000  12.2400000   8.4260000
   8.6020000  14.3740000   0.4100000   9.6100000  14.6010000   2.1210000
   6.4160000  13.3400000   0.5880000   3.9660000  11.3000000   7.2620000
   5.3690000  11.6740000   9.2350000   7.1470000  12.5570000   8.8260000
   7.3940000  13.8910000  -0.1740000   9.2700000  14.7660000  -0.1390000
   5.6160000  13.0340000   0.1760000   3.1610000  10.9780000   6.8720000
   4.1450000  11.1980000   8.6370000   5.5330000  11.5490000  10.6580000
   7.2730000  13.9560000  -1.1150000   3.1490000  10.6130000   9.5000000
   4.5540000  10.9980000  11.4200000   6.3330000  11.8550000  11.0700000
   3.3470000  10.5150000  10.8350000   2.3390000  10.2890000   9.1240000
   4.6750000  10.9330000  12.3600000   2.6780000  10.1240000  11.3850000
  25.0600000  29.3640000  60.8580000  26.0450000  29.3590000  59.8380000
  23.8160000  30.0930000  60.6260000  25.2310000  28.6840000  62.0710000
  25.8490000  30.0190000  58.6380000  26.8590000  28.8920000  59.9830000
  23.6460000  30.7700000  59.4010000  22.8400000  30.0990000  61.6290000
  24.2550000  28.6890000  63.0740000  26.0450000  28.2120000  62.2010000
  26.8330000  30.0020000  57.6010000  24.6180000  30.7430000  58.4120000
  22.8450000  31.2580000  59.2490000  22.0270000  30.5710000  61.4990000
  23.0110000  29.4180000  62.8420000  24.4260000  28.0130000  64.2990000
  26.6220000  30.6450000  56.4280000  27.6480000  29.5330000  57.7370000
  24.4470000  31.4030000  57.1580000  22.0270000  29.4230000  63.8620000
  23.4530000  28.0400000  65.2880000  25.2270000  27.5250000  64.4500000
  25.4040000  31.3600000  56.1990000  27.2890000  30.6220000  55.7520000
  23.6440000  31.8840000  56.9920000  21.2120000  29.8910000  63.7170000
  22.2220000  28.7640000  65.0620000  23.6250000  27.3800000  66.5420000
  25.2660000  31.8050000  55.3710000  21.2380000  28.7810000  66.0990000
  22.6670000  27.4230000  67.5010000  24.4270000  26.8990000  66.7080000
  21.4490000  28.1370000  67.2720000  20.4230000  29.2500000  65.9630000
  22.8060000  26.9780000  68.3290000  20.7830000  28.1610000  67.9480000
  23.0550000  16.2570000   4.6300000  24.0400000  16.2520000   3.6110000
  21.8110000  16.9860000   4.3980000  23.2260000  15.5770000   5.8430000
  23.8440000  16.9110000   2.4110000  24.8540000  15.7840000   3.7560000
  21.6410000  17.6630000   3.1740000  20.8350000  16.9910000   5.4020000
  22.2500000  15.5820000   6.8470000  24.0400000  15.1040000   5.9740000
  24.8280000  16.8940000   1.3730000  22.6130000  17.6360000   2.1840000
  20.8400000  18.1500000   3.0220000  20.0220000  17.4640000   5.2710000
  21.0060000  16.3110000   6.6150000  22.4210000  14.9050000   8.0710000
  24.6170000  17.5380000   0.2010000  25.6430000  16.4260000   1.5100000
  22.4420000  18.2950000   0.9310000  20.0220000  16.3160000   7.6340000
  21.4480000  14.9320000   9.0610000  23.2220000  14.4180000   8.2230000
  23.3990000  18.2520000  -0.0280000  25.2840000  17.5150000  -0.4750000
  21.6390000  18.7770000   0.7650000  19.2070000  16.7840000   7.4890000
  20.2170000  15.6570000   8.8350000  21.6200000  14.2730000  10.3150000
  23.2610000  18.6970000  -0.8560000  19.2330000  15.6740000   9.8720000
  20.6620000  14.3160000  11.2740000  22.4220000  13.7910000  10.4810000
  19.4440000  15.0300000  11.0440000  18.4180000  16.1420000   9.7360000
  20.8010000  13.8710000  12.1020000  18.7780000  15.0530000  11.7210000
  23.7910000  23.9350000   4.6300000  24.7760000  23.9310000   3.6110000
  22.5470000  24.6650000   4.3980000  23.9620000  23.2550000   5.8430000
  24.5800000  24.5900000   2.4110000  25.5900000  23.4630000   3.7560000
  22.3770000  25.3410000   3.1740000  21.5720000  24.6700000   5.4020000
  22.9860000  23.2610000   6.8470000  24.7760000  22.7830000   5.9740000
  25.5640000  24.5730000   1.3730000  23.3490000  25.3140000   2.1840000
  21.5760000  25.8290000   3.0220000  20.7580000  25.1420000   5.2710000
  21.7420000  23.9900000   6.6150000  23.1570000  22.5840000   8.0710000
  25.3530000  25.2170000   0.2010000  26.3790000  24.1040000   1.5100000
  23.1780000  25.9740000   0.9310000  20.7580000  23.9950000   7.6340000
  22.1840000  22.6110000   9.0610000  23.9580000  22.0960000   8.2230000
  24.1350000  25.9310000  -0.0280000  26.0200000  25.1930000  -0.4750000
  22.3750000  26.4550000   0.7650000  19.9430000  24.4620000   7.4890000
  20.9530000  23.3350000   8.8350000  22.3560000  21.9510000  10.3150000
  23.9970000  26.3760000  -0.8560000  19.9690000  23.3520000   9.8720000
  21.3980000  21.9940000  11.2740000  23.1590000  21.4700000  10.4810000
  20.1800000  22.7090000  11.0440000  19.1540000  23.8210000   9.7360000
  21.5370000  21.5490000  12.1020000  19.5140000  22.7320000  11.7210000
  25.7960000  37.0430000  60.8580000  26.7810000  37.0380000  59.8380000
  24.5520000  37.7720000  60.6260000  25.9670000  36.3630000  62.0710000
  26.5850000  37.6970000  58.6380000  27.5950000  36.5700000  59.9830000
  24.3820000  38.4490000  59.4010000  23.5770000  37.7770000  61.6290000
  24.9910000  36.3680000  63.0740000  26.7810000  35.8900000  62.2010000
  27.5690000  37.6800000  57.6010000  25.3550000  38.4210000  58.4120000
  23.5810000  38.9360000  59.2490000  22.7630000  38.2500000  61.4990000
  23.7470000  37.0970000  62.8420000  25.1620000  35.6910000  64.2990000
  27.3580000  38.3240000  56.4280000  28.3840000  37.2110000  57.7370000
  25.1830000  39.0810000  57.1580000  22.7630000  37.1020000  63.8620000
  24.1890000  35.7180000  65.2880000  25.9630000  35.2040000  64.4500000
  26.1400000  39.0380000  56.1990000  28.0250000  38.3010000  55.7520000
  24.3800000  39.5630000  56.9920000  21.9490000  37.5700000  63.7170000
  22.9580000  36.4430000  65.0620000  24.3610000  35.0590000  66.5420000
  26.0020000  39.4830000  55.3710000  21.9740000  36.4600000  66.0990000
  23.4030000  35.1020000  67.5010000  25.1640000  34.5770000  66.7080000
  22.1850000  35.8160000  67.2720000  21.1600000  36.9280000  65.9630000
  23.5420000  34.6560000  68.3290000  21.5190000  35.8390000  67.9480000
   8.4630000  28.3760000   4.8160000   9.4550000  28.9470000   3.9840000
   7.2320000  27.8880000   4.2110000   8.6420000  28.2740000   6.2030000
   9.2760000  29.0480000   2.6090000  10.2600000  29.2680000   4.3730000
   7.0760000  28.0070000   2.8200000   6.2510000  27.3300000   5.0420000
   7.6610000  27.7160000   7.0340000   9.4560000  28.5910000   6.5760000
  10.2720000  29.6340000   1.7460000   8.0520000  28.5720000   2.0100000
   6.2740000  27.6890000   2.4190000   5.4370000  27.0130000   4.6700000
   6.4300000  27.2280000   6.4300000   7.8180000  27.5970000   8.4260000
  10.0740000  29.7310000   0.4100000  11.0820000  29.9580000   2.1210000
   7.8880000  28.6980000   0.5880000   5.4380000  26.6570000   7.2620000
   6.8420000  27.0320000   9.2350000   8.6190000  27.9140000   8.8260000
   8.8670000  29.2490000  -0.1740000  10.7430000  30.1230000  -0.1390000
   7.0880000  28.3910000   0.1760000   4.6330000  26.3360000   6.8720000
   5.6170000  26.5560000   8.6370000   7.0050000  26.9060000  10.6580000
   8.7460000  29.3130000  -1.1150000   4.6210000  25.9700000   9.5000000
   6.0260000  26.3550000  11.4200000   7.8050000  27.2130000  11.0700000
   4.8190000  25.8730000  10.8350000   3.8110000  25.6460000   9.1240000
   6.1480000  26.2900000  12.3600000   4.1510000  25.4810000  11.3850000
  25.5300000  38.1680000  32.7440000  26.5140000  38.1630000  31.7250000
  24.2860000  38.8970000  32.5120000  25.7010000  37.4880000  33.9570000
  26.3190000  38.8220000  30.5240000  27.3290000  37.6950000  31.8700000
  24.1160000  39.5740000  31.2880000  23.3100000  38.9020000  33.5160000
  24.7250000  37.4930000  34.9610000  26.5140000  37.0150000  34.0880000
  27.3030000  38.8050000  29.4870000  25.0880000  39.5460000  30.2980000
  23.3140000  40.0610000  31.1360000  22.4970000  39.3750000  33.3850000
  23.4810000  38.2220000  34.7290000  24.8950000  36.8160000  36.1850000
  27.0920000  39.4490000  28.3150000  28.1180000  38.3360000  29.6230000
  24.9160000  40.2060000  29.0440000  22.4960000  38.2270000  35.7480000
  23.9230000  36.8430000  37.1750000  25.6970000  36.3290000  36.3370000
  25.8740000  40.1630000  28.0860000  27.7580000  39.4260000  27.6390000
  24.1140000  40.6870000  28.8780000  21.6820000  38.6950000  35.6030000
  22.6920000  37.5680000  36.9480000  24.0950000  36.1830000  38.4290000
  25.7360000  40.6080000  27.2580000  21.7080000  37.5840000  37.9860000
  23.1370000  36.2260000  39.3870000  24.8970000  35.7020000  38.5940000
  21.9190000  36.9410000  39.1580000  20.8930000  38.0530000  37.8490000
  23.2750000  35.7810000  40.2150000  21.2530000  36.9640000  39.8340000
  26.5330000  44.7210000  60.8580000  27.5170000  44.7170000  59.8380000
  25.2880000  45.4510000  60.6260000  26.7030000  44.0410000  62.0710000
  27.3210000  45.3760000  58.6380000  28.3310000  44.2490000  59.9830000
  25.1180000  46.1270000  59.4010000  24.3130000  45.4560000  61.6290000
  25.7270000  44.0460000  63.0740000  27.5170000  43.5690000  62.2010000
  28.3060000  45.3590000  57.6010000  26.0910000  46.1000000  58.4120000
  24.3170000  46.6150000  59.2490000  23.4990000  45.9280000  61.4990000
  24.4830000  44.7760000  62.8420000  25.8980000  43.3700000  64.2990000
  28.0940000  46.0020000  56.4280000  29.1200000  44.8900000  57.7370000
  25.9190000  46.7600000  57.1580000  23.4990000  44.7810000  63.8620000
  24.9250000  43.3970000  65.2880000  26.6990000  42.8820000  64.4500000
  26.8760000  46.7170000  56.1990000  28.7610000  45.9790000  55.7520000
  25.1160000  47.2410000  56.9920000  22.6850000  45.2480000  63.7170000
  23.6950000  44.1210000  65.0620000  25.0970000  42.7370000  66.5420000
  26.7380000  47.1620000  55.3710000  22.7100000  44.1380000  66.0990000
  24.1390000  42.7800000  67.5010000  25.9000000  42.2560000  66.7080000
  22.9220000  43.4950000  67.2720000  21.8960000  44.6070000  65.9630000
  24.2780000  42.3350000  68.3290000  22.2550000  43.5180000  67.9480000
   7.1660000  34.9070000   6.4300000   6.1740000  34.3350000   7.2620000
   8.3970000  35.3950000   7.0340000   6.9870000  35.0090000   5.0420000
   6.3530000  34.2340000   8.6370000   5.3690000  34.0140000   6.8720000
   8.5540000  35.2750000   8.4260000   9.3780000  35.9520000   6.2030000
   7.9680000  35.5660000   4.2110000   6.1740000  34.6920000   4.6700000
   5.3570000  33.6480000   9.5000000   7.5780000  34.7100000   9.2350000
   9.3550000  35.5930000   8.8260000  10.1920000  36.2690000   6.5760000
   9.1990000  36.0540000   4.8160000   7.8120000  35.6860000   2.8200000
   5.5550000  33.5510000  10.8350000   4.5470000  33.3240000   9.1240000
   7.7420000  34.5850000  10.6580000  10.1910000  36.6260000   3.9840000
   8.7880000  36.2510000   2.0100000   7.0100000  35.3680000   2.4190000
   6.7630000  34.0340000  11.4200000   4.8870000  33.1590000  11.3850000
   8.5410000  34.8910000  11.0700000  10.9960000  36.9470000   4.3730000
  10.0120000  36.7270000   2.6090000   8.6240000  36.3760000   0.5880000
   6.8840000  33.9690000  12.3600000  11.0080000  37.3130000   1.7460000
   9.6030000  36.9270000  -0.1740000   7.8240000  36.0700000   0.1760000
  10.8100000  37.4100000   0.4100000  11.8180000  37.6370000   2.1210000
   9.4820000  36.9920000  -1.1150000  11.4790000  37.8020000  -0.1390000
  25.0800000   5.3400000   4.8160000  26.0720000   5.9110000   3.9840000
  23.8500000   4.8520000   4.2110000  25.2600000   5.2380000   6.2030000
  25.8940000   6.0120000   2.6090000  26.8780000   6.2320000   4.3730000
  23.6930000   4.9710000   2.8200000  22.8680000   4.2940000   5.0420000
  24.2790000   4.6800000   7.0340000  26.0730000   5.5550000   6.5760000
  26.8900000   6.5980000   1.7460000  24.6690000   5.5360000   2.0100000
  22.8920000   4.6540000   2.4190000  22.0550000   3.9770000   4.6700000
  23.0480000   4.1920000   6.4300000  24.4350000   4.5610000   8.4260000
  26.6920000   6.6950000   0.4100000  27.6990000   6.9220000   2.1210000
  24.5050000   5.6620000   0.5880000  22.0560000   3.6210000   7.2620000
  23.4590000   3.9960000   9.2350000  25.2360000   4.8790000   8.8260000
  25.4840000   6.2130000  -0.1740000  27.3600000   7.0870000  -0.1390000
  23.7050000   5.3550000   0.1760000  21.2510000   3.3000000   6.8720000
  22.2350000   3.5200000   8.6370000  23.6230000   3.8700000  10.6580000
  25.3630000   6.2780000  -1.1150000  21.2390000   2.9340000   9.5000000
  22.6440000   3.3190000  11.4200000  24.4230000   4.1770000  11.0700000
  21.4370000   2.8370000  10.8350000  20.4290000   2.6100000   9.1240000
  22.7650000   3.2540000  12.3600000  20.7680000   2.4450000  11.3850000
  23.7840000  11.8710000   6.4300000  22.7920000  11.3000000   7.2620000
  25.0150000  12.3590000   7.0340000  23.6050000  11.9730000   5.0420000
  22.9710000  11.1980000   8.6370000  21.9870000  10.9780000   6.8720000
  25.1710000  12.2400000   8.4260000  25.9960000  12.9160000   6.2030000
  24.5860000  12.5300000   4.2110000  22.7910000  11.6560000   4.6700000
  21.9750000  10.6130000   9.5000000  24.1950000  11.6740000   9.2350000
  25.9730000  12.5570000   8.8260000  26.8090000  13.2340000   6.5760000
  25.8170000  13.0180000   4.8160000  24.4290000  12.6500000   2.8200000
  22.1730000  10.5150000  10.8350000  21.1650000  10.2890000   9.1240000
  24.3590000  11.5490000  10.6580000  26.8080000  13.5900000   3.9840000
  25.4050000  13.2150000   2.0100000  23.6280000  12.3320000   2.4190000
  23.3800000  10.9980000  11.4200000  21.5040000  10.1240000  11.3850000
  25.1590000  11.8550000  11.0700000  27.6140000  13.9110000   4.3730000
  26.6300000  13.6910000   2.6090000  25.2410000  13.3400000   0.5880000
  23.5010000  10.9330000  12.3600000  27.6260000  14.2770000   1.7460000
  26.2200000  13.8910000  -0.1740000  24.4420000  13.0340000   0.1760000
  27.4280000  14.3740000   0.4100000  28.4360000  14.6010000   2.1210000
  26.0990000  13.9560000  -1.1150000  28.0960000  14.7660000  -0.1390000
  24.5200000  19.5500000   6.4300000  23.5280000  18.9780000   7.2620000
  25.7510000  20.0380000   7.0340000  24.3410000  19.6520000   5.0420000
  23.7070000  18.8770000   8.6370000  22.7230000  18.6570000   6.8720000
  25.9070000  19.9180000   8.4260000  26.7320000  20.5950000   6.2030000
  25.3220000  20.2090000   4.2110000  23.5270000  19.3340000   4.6700000
  22.7110000  18.2910000   9.5000000  24.9310000  19.3530000   9.2350000
  26.7090000  20.2360000   8.8260000  27.5460000  20.9120000   6.5760000
  26.5530000  20.6970000   4.8160000  25.1650000  20.3280000   2.8200000
  22.9090000  18.1940000  10.8350000  21.9010000  17.9670000   9.1240000
  25.0950000  19.2280000  10.6580000  27.5450000  21.2680000   3.9840000
  26.1410000  20.8940000   2.0100000  24.3640000  20.0110000   2.4190000
  24.1160000  18.6770000  11.4200000  22.2400000  17.8020000  11.3850000
  25.8950000  19.5340000  11.0700000  28.3500000  21.5900000   4.3730000
  27.3660000  21.3700000   2.6090000  25.9780000  21.0190000   0.5880000
  24.2370000  18.6120000  12.3600000  28.3620000  21.9550000   1.7460000
  26.9560000  21.5700000  -0.1740000  25.1780000  20.7130000   0.1760000
  28.1640000  22.0530000   0.4100000  29.1720000  22.2790000   2.1210000
  26.8350000  21.6350000  -1.1150000  28.8320000  22.4440000  -0.1390000
  27.2890000  28.3760000   4.8160000  28.2810000  28.9470000   3.9840000
  26.0580000  27.8880000   4.2110000  27.4680000  28.2740000   6.2030000
  28.1020000  29.0480000   2.6090000  29.0860000  29.2680000   4.3730000
  25.9020000  28.0070000   2.8200000  25.0770000  27.3300000   5.0420000
  26.4870000  27.7160000   7.0340000  28.2820000  28.5910000   6.5760000
  29.0980000  29.6340000   1.7460000  26.8770000  28.5720000   2.0100000
  25.1000000  27.6890000   2.4190000  24.2630000  27.0130000   4.6700000
  25.2560000  27.2280000   6.4300000  26.6430000  27.5970000   8.4260000
  28.9000000  29.7310000   0.4100000  29.9080000  29.9580000   2.1210000
  26.7140000  28.6980000   0.5880000  24.2640000  26.6570000   7.2620000
  25.6680000  27.0320000   9.2350000  27.4450000  27.9140000   8.8260000
  27.6930000  29.2490000  -0.1740000  29.5680000  30.1230000  -0.1390000
  25.9140000  28.3910000   0.1760000  23.4590000  26.3360000   6.8720000
  24.4430000  26.5560000   8.6370000  25.8310000  26.9060000  10.6580000
  27.5710000  29.3130000  -1.1150000  23.4470000  25.9700000   9.5000000
  24.8520000  26.3550000  11.4200000  26.6310000  27.2130000  11.0700000
  23.6450000  25.8730000  10.8350000  22.6370000  25.6460000   9.1240000
  24.9740000  26.2900000  12.3600000  22.9760000  25.4810000  11.3850000
  28.0250000  36.0540000   4.8160000  29.0170000  36.6260000   3.9840000
  26.7940000  35.5660000   4.2110000  28.2040000  35.9520000   6.2030000
  28.8380000  36.7270000   2.6090000  29.8220000  36.9470000   4.3730000
  26.6380000  35.6860000   2.8200000  25.8130000  35.0090000   5.0420000
  27.2230000  35.3950000   7.0340000  29.0180000  36.2690000   6.5760000
  29.8340000  37.3130000   1.7460000  27.6140000  36.2510000   2.0100000
  25.8360000  35.3680000   2.4190000  24.9990000  34.6920000   4.6700000
  25.9920000  34.9070000   6.4300000  27.3800000  35.2750000   8.4260000
  29.6360000  37.4100000   0.4100000  30.6440000  37.6370000   2.1210000
  27.4500000  36.3760000   0.5880000  25.0000000  34.3350000   7.2620000
  26.4040000  34.7100000   9.2350000  28.1810000  35.5930000   8.8260000
  28.4290000  36.9270000  -0.1740000  30.3050000  37.8020000  -0.1390000
  26.6500000  36.0700000   0.1760000  24.1950000  34.0140000   6.8720000
  25.1790000  34.2340000   8.6370000  26.5670000  34.5850000  10.6580000
  28.3080000  36.9920000  -1.1150000  24.1830000  33.6480000   9.5000000
  25.5880000  34.0340000  11.4200000  27.3670000  34.8910000  11.0700000
  24.3810000  33.5510000  10.8350000  23.3730000  33.3240000   9.1240000
  25.7100000  33.9690000  12.3600000  23.7130000  33.1590000  11.3850000
  26.5840000  15.1700000  46.9860000  27.5760000  15.7420000  46.1540000
  25.3530000  14.6820000  46.3820000  26.7640000  15.0680000  48.3740000
  27.3970000  15.8430000  44.7790000  28.3810000  16.0630000  46.5440000
  25.1970000  14.8020000  44.9900000  24.3720000  14.1250000  47.2130000
  25.7820000  14.5110000  49.2040000  27.5770000  15.3850000  48.7460000
  28.3930000  16.4290000  43.9160000  26.1730000  15.3670000  44.1810000
  24.3960000  14.4840000  44.5900000  23.5590000  13.8080000  46.8400000
  24.5520000  14.0230000  48.6000000  25.9390000  14.3920000  50.5960000
  28.1950000  16.5260000  42.5810000  29.2030000  16.7530000  44.2920000
  26.0090000  15.4920000  42.7580000  23.5600000  13.4510000  49.4320000
  24.9630000  13.8260000  51.4060000  26.7400000  14.7090000  50.9970000
  26.9880000  16.0430000  41.9960000  28.8640000  16.9180000  42.0310000
  25.2090000  15.1860000  42.3460000  22.7540000  13.1300000  49.0430000
  23.7380000  13.3500000  50.8070000  25.1270000  13.7010000  52.8280000
  26.8670000  16.1080000  41.0560000  22.7420000  12.7640000  51.6700000
  24.1480000  13.1500000  53.5900000  25.9270000  14.0070000  53.2400000
  22.9400000  12.6670000  53.0050000  21.9330000  12.4400000  51.2950000
  24.2690000  13.0850000  54.5310000  22.2720000  12.2760000  53.5550000
  25.5820000   8.6170000  18.8730000  26.5740000   9.1880000  18.0410000
  24.3510000   8.1290000  18.2680000  25.7610000   8.5150000  20.2600000
  26.3950000   9.2890000  16.6660000  27.3790000   9.5090000  18.4300000
  24.1940000   8.2480000  16.8770000  23.3700000   7.5710000  19.0990000
  24.7800000   7.9570000  21.0910000  26.5750000   8.8320000  20.6330000
  27.3910000   9.8750000  15.8030000  25.1700000   8.8130000  16.0670000
  23.3930000   7.9300000  16.4760000  22.5560000   7.2540000  18.7260000
  23.5490000   7.4690000  20.4860000  24.9360000   7.8380000  22.4820000
  27.1930000   9.9720000  14.4670000  28.2010000  10.1990000  16.1780000
  25.0070000   8.9390000  14.6440000  22.5570000   6.8980000  21.3190000
  23.9600000   7.2730000  23.2920000  25.7380000   8.1550000  22.8830000
  25.9860000   9.4900000  13.8830000  27.8610000  10.3640000  13.9180000
  24.2070000   8.6320000  14.2330000  21.7520000   6.5770000  20.9290000
  22.7360000   6.7970000  22.6930000  24.1240000   7.1470000  24.7150000
  25.8640000   9.5550000  12.9420000  21.7400000   6.2110000  23.5560000
  23.1450000   6.5960000  25.4770000  24.9240000   7.4540000  25.1270000
  21.9380000   6.1140000  24.8920000  20.9300000   5.8870000  23.1810000
  23.2660000   6.5310000  26.4170000  21.2690000   5.7220000  25.4410000
  24.0500000  10.7460000  34.5430000  23.0580000  10.1750000  35.3750000
  25.2810000  11.2340000  35.1480000  23.8710000  10.8480000  33.1560000
  23.2370000  10.0730000  36.7500000  22.2530000   9.8530000  34.9860000
  25.4380000  11.1150000  36.5390000  26.2620000  11.7910000  34.3170000
  24.8520000  11.4050000  32.3250000  23.0570000  10.5310000  32.7830000
  22.2410000   9.4880000  37.6130000  24.4620000  10.5490000  37.3490000
  26.2390000  11.4320000  36.9400000  27.0760000  12.1090000  34.6890000
  26.0830000  11.8930000  32.9290000  24.6960000  11.5250000  30.9330000
  22.4390000   9.3900000  38.9490000  21.4310000   9.1640000  37.2380000
  24.6250000  10.4240000  38.7720000  27.0750000  12.4650000  32.0970000
  25.6720000  12.0900000  30.1240000  23.8940000  11.2070000  30.5330000
  23.6470000   9.8730000  39.5330000  21.7710000   8.9990000  39.4980000
  25.4250000  10.7310000  39.1830000  27.8800000  12.7860000  32.4870000
  26.8960000  12.5660000  30.7230000  25.5080000  12.2150000  28.7010000
  23.7680000   9.8080000  40.4740000  27.8920000  13.1520000  29.8590000
  26.4870000  12.7660000  27.9390000  24.7080000  11.9090000  28.2890000
  27.6940000  13.2490000  28.5240000  28.7020000  13.4760000  30.2350000
  26.3660000  12.8310000  26.9990000  28.3630000  13.6410000  27.9740000
  25.0530000  17.3000000  62.6570000  24.0610000  16.7280000  63.4890000
  26.2840000  17.7880000  63.2610000  24.8740000  17.4020000  61.2690000
  24.2400000  16.6270000  64.8640000  23.2560000  16.4070000  63.1000000
  26.4400000  17.6680000  64.6530000  27.2650000  18.3450000  62.4310000
  25.8550000  17.9590000  60.4390000  24.0600000  17.0850000  60.8970000
  23.2440000  16.0410000  65.7270000  25.4640000  17.1030000  65.4630000
  27.2410000  17.9860000  65.0540000  28.0780000  18.6620000  62.8030000
  27.0850000  18.4470000  61.0430000  25.6980000  18.0780000  59.0470000
  23.4420000  15.9440000  67.0620000  22.4340000  15.7170000  65.3520000
  25.6280000  16.9780000  66.8850000  28.0770000  19.0190000  60.2110000
  26.6740000  18.6440000  58.2370000  24.8970000  17.7610000  58.6460000
  24.6490000  16.4270000  67.6470000  22.7730000  15.5520000  67.6120000
  26.4280000  17.2840000  67.2970000  28.8830000  19.3400000  60.6000000
  27.8990000  19.1200000  58.8360000  26.5100000  18.7690000  56.8150000
  24.7700000  16.3620000  68.5870000  28.8950000  19.7060000  57.9730000
  27.4890000  19.3200000  56.0530000  25.7110000  18.4630000  56.4030000
  28.6970000  19.8030000  56.6380000  29.7050000  20.0300000  58.3480000
  27.3680000  19.3850000  55.1130000  29.3650000  20.1940000  56.0880000
  25.7890000  24.9780000  62.6570000  24.7970000  24.4070000  63.4890000
  27.0200000  25.4660000  63.2610000  25.6100000  25.0800000  61.2690000
  24.9760000  24.3060000  64.8640000  23.9920000  24.0860000  63.1000000
  27.1760000  25.3470000  64.6530000  28.0010000  26.0240000  62.4310000
  26.5910000  25.6380000  60.4390000  24.7960000  24.7630000  60.8970000
  23.9800000  23.7200000  65.7270000  26.2000000  24.7820000  65.4630000
  27.9780000  25.6650000  65.0540000  28.8140000  26.3410000  62.8030000
  27.8220000  26.1260000  61.0430000  26.4340000  25.7570000  59.0470000
  24.1780000  23.6230000  67.0620000  23.1700000  23.3960000  65.3520000
  26.3640000  24.6560000  66.8850000  28.8140000  26.6970000  60.2110000
  27.4100000  26.3220000  58.2370000  25.6330000  25.4390000  58.6460000
  25.3850000  24.1050000  67.6470000  23.5090000  23.2310000  67.6120000
  27.1640000  24.9630000  67.2970000  29.6190000  27.0180000  60.6000000
  28.6350000  26.7980000  58.8360000  27.2460000  26.4480000  56.8150000
  25.5060000  24.0400000  68.5870000  29.6310000  27.3840000  57.9730000
  28.2250000  26.9990000  56.0530000  26.4470000  26.1410000  56.4030000
  29.4330000  27.4810000  56.6380000  30.4410000  27.7080000  58.3480000
  28.1040000  27.0640000  55.1130000  30.1010000  27.8730000  56.0880000
  26.3180000  16.2950000  18.8730000  27.3100000  16.8670000  18.0410000
  25.0870000  15.8070000  18.2680000  26.4970000  16.1930000  20.2600000
  27.1310000  16.9680000  16.6660000  28.1150000  17.1880000  18.4300000
  24.9310000  15.9270000  16.8770000  24.1060000  15.2500000  19.0990000
  25.5160000  15.6360000  21.0910000  27.3110000  16.5100000  20.6330000
  28.1270000  17.5540000  15.8030000  25.9060000  16.4920000  16.0670000
  24.1290000  15.6090000  16.4760000  23.2920000  14.9330000  18.7260000
  24.2850000  15.1480000  20.4860000  25.6720000  15.5160000  22.4820000
  27.9290000  17.6510000  14.4670000  28.9370000  17.8780000  16.1780000
  25.7430000  16.6170000  14.6440000  23.2930000  14.5760000  21.3190000
  24.6970000  14.9510000  23.2920000  26.4740000  15.8340000  22.8830000
  26.7220000  17.1680000  13.8830000  28.5980000  18.0430000  13.9180000
  24.9430000  16.3110000  14.2330000  22.4880000  14.2550000  20.9290000
  23.4720000  14.4750000  22.6930000  24.8600000  14.8260000  24.7150000
  26.6010000  17.2330000  12.9420000  22.4760000  13.8890000  23.5560000
  23.8810000  14.2750000  25.4770000  25.6600000  15.1320000  25.1270000
  22.6740000  13.7920000  24.8920000  21.6660000  13.5650000  23.1810000
  24.0030000  14.2100000  26.4170000  22.0060000  13.4000000  25.4410000
  26.8190000  19.5720000  32.9290000  27.8110000  20.1440000  32.0970000
  25.5880000  19.0840000  32.3250000  26.9980000  19.4700000  34.3170000
  27.6320000  20.2450000  30.7230000  28.6160000  20.4650000  32.4870000
  25.4320000  19.2030000  30.9330000  24.6070000  18.5270000  33.1560000
  26.0170000  18.9130000  35.1480000  27.8120000  19.7870000  34.6890000
  28.6280000  20.8300000  29.8590000  26.4080000  19.7690000  30.1240000
  24.6300000  18.8860000  30.5330000  23.7940000  18.2100000  32.7830000
  24.7860000  18.4250000  34.5430000  26.1740000  18.7930000  36.5390000
  28.4300000  20.9280000  28.5240000  29.4380000  21.1540000  30.2350000
  26.2440000  19.8940000  28.7010000  23.7950000  17.8530000  35.3750000
  25.1980000  18.2280000  37.3490000  26.9750000  19.1110000  36.9400000
  27.2230000  20.4450000  27.9390000  29.0990000  21.3190000  27.9740000
  25.4440000  19.5880000  28.2890000  22.9890000  17.5320000  34.9860000
  23.9730000  17.7520000  36.7500000  25.3620000  18.1030000  38.7720000
  27.1020000  20.5100000  26.9990000  22.9770000  17.1660000  37.6130000
  24.3830000  17.5520000  39.5330000  26.1610000  18.4090000  39.1830000
  23.1750000  17.0690000  38.9490000  22.1670000  16.8420000  37.2380000
  24.5040000  17.4870000  40.4740000  22.5070000  16.6770000  39.4980000
  25.2880000  21.7020000  48.6000000  24.2960000  21.1300000  49.4320000
  26.5190000  22.1900000  49.2040000  25.1080000  21.8040000  47.2130000
  24.4740000  21.0290000  50.8070000  23.4910000  20.8090000  49.0430000
  26.6750000  22.0700000  50.5960000  27.5000000  22.7470000  48.3740000
  26.0900000  22.3610000  46.3820000  24.2950000  21.4860000  46.8400000
  23.4780000  20.4430000  51.6700000  25.6990000  21.5050000  51.4060000
  27.4760000  22.3880000  50.9970000  28.3130000  23.0640000  48.7460000
  27.3200000  22.8490000  46.9860000  25.9330000  22.4800000  44.9900000
  23.6760000  20.3460000  53.0050000  22.6690000  20.1190000  51.2950000
  25.8630000  21.3800000  52.8280000  28.3120000  23.4200000  46.1540000
  26.9090000  23.0460000  44.1810000  25.1320000  22.1630000  44.5900000
  24.8840000  20.8280000  53.5900000  23.0080000  19.9540000  53.5550000
  26.6630000  21.6860000  53.2400000  29.1180000  23.7420000  46.5440000
  28.1340000  23.5210000  44.7790000  26.7450000  23.1710000  42.7580000
  25.0050000  20.7640000  54.5310000  29.1300000  24.1070000  43.9160000
  27.7240000  23.7220000  41.9960000  25.9450000  22.8640000  42.3460000
  28.9320000  24.2050000  42.5810000  29.9390000  24.4310000  44.2920000
  27.6030000  23.7870000  41.0560000  29.6000000  24.5960000  42.0310000
  25.0210000  22.8270000  20.4860000  24.0290000  22.2550000  21.3190000
  26.2520000  23.3140000  21.0910000  24.8420000  22.9280000  19.0990000
  24.2080000  22.1540000  22.6930000  23.2240000  21.9340000  20.9290000
  26.4090000  23.1950000  22.4820000  27.2330000  23.8720000  20.2600000
  25.8230000  23.4860000  18.2680000  24.0280000  22.6110000  18.7260000
  23.2120000  21.5680000  23.5560000  25.4330000  22.6300000  23.2920000
  27.2100000  23.5130000  22.8830000  28.0470000  24.1890000  20.6330000
  27.0540000  23.9740000  18.8730000  25.6670000  23.6050000  16.8770000
  23.4100000  21.4710000  24.8920000  22.4020000  21.2440000  23.1810000
  25.5960000  22.5050000  24.7150000  28.0460000  24.5450000  18.0410000
  26.6430000  24.1700000  16.0670000  24.8650000  23.2880000  16.4760000
  24.6180000  21.9530000  25.4770000  22.7420000  21.0790000  25.4410000
  26.3960000  22.8110000  25.1270000  28.8510000  24.8660000  18.4300000
  27.8670000  24.6460000  16.6660000  26.4790000  24.2960000  14.6440000
  24.7390000  21.8890000  26.4170000  28.8630000  25.2320000  15.8030000
  27.4580000  24.8470000  13.8830000  25.6790000  23.9890000  14.2330000
  28.6650000  25.3290000  14.4670000  29.6730000  25.5560000  16.1780000
  27.3370000  24.9120000  12.9420000  29.3340000  25.7210000  13.9180000
  27.5550000  27.2510000  32.9290000  28.5470000  27.8220000  32.0970000
  26.3240000  26.7630000  32.3250000  27.7350000  27.1490000  34.3170000
  28.3680000  27.9230000  30.7230000  29.3520000  28.1430000  32.4870000
  26.1680000  26.8820000  30.9330000  25.3430000  26.2050000  33.1560000
  26.7530000  26.5910000  35.1480000  28.5480000  27.4660000  34.6890000
  29.3640000  28.5090000  29.8590000  27.1440000  27.4470000  30.1240000
  25.3670000  26.5640000  30.5330000  24.5300000  25.8880000  32.7830000
  25.5230000  26.1030000  34.5430000  26.9100000  26.4720000  36.5390000
  29.1660000  28.6060000  28.5240000  30.1740000  28.8330000  30.2350000
  26.9800000  27.5730000  28.7010000  24.5310000  25.5320000  35.3750000
  25.9340000  25.9070000  37.3490000  27.7110000  26.7890000  36.9400000
  27.9590000  28.1240000  27.9390000  29.8350000  28.9980000  27.9740000
  26.1800000  27.2660000  28.2890000  23.7250000  25.2110000  34.9860000
  24.7090000  25.4310000  36.7500000  26.0980000  25.7810000  38.7720000
  27.8380000  28.1890000  26.9990000  23.7130000  24.8450000  37.6130000
  25.1190000  25.2300000  39.5330000  26.8980000  26.0880000  39.1830000
  23.9110000  24.7480000  38.9490000  22.9040000  24.5210000  37.2380000
  25.2400000  25.1650000  40.4740000  23.2430000  24.3560000  39.4980000
  26.0240000  29.3800000  48.6000000  25.0320000  28.8090000  49.4320000
  27.2550000  29.8680000  49.2040000  25.8440000  29.4820000  47.2130000
  25.2110000  28.7080000  50.8070000  24.2270000  28.4870000  49.0430000
  27.4110000  29.7490000  50.5960000  28.2360000  30.4250000  48.3740000
  26.8260000  30.0390000  46.3820000  25.0310000  29.1650000  46.8400000
  24.2150000  28.1220000  51.6700000  26.4350000  29.1830000  51.4060000
  28.2120000  30.0660000  50.9970000  29.0490000  30.7430000  48.7460000
  28.0560000  30.5270000  46.9860000  26.6690000  30.1590000  44.9900000
  24.4130000  28.0240000  53.0050000  23.4050000  27.7980000  51.2950000
  26.5990000  29.0580000  52.8280000  29.0480000  31.0990000  46.1540000
  27.6450000  30.7240000  44.1810000  25.8680000  29.8410000  44.5900000
  25.6200000  28.5070000  53.5900000  23.7440000  27.6330000  53.5550000
  27.3990000  29.3650000  53.2400000  29.8540000  31.4200000  46.5440000
  28.8700000  31.2000000  44.7790000  27.4810000  30.8490000  42.7580000
  25.7410000  28.4420000  54.5310000  29.8660000  31.7860000  43.9160000
  28.4600000  31.4010000  41.9960000  26.6810000  30.5430000  42.3460000
  29.6680000  31.8830000  42.5810000  30.6760000  32.1100000  44.2920000
  28.3390000  31.4650000  41.0560000  30.3360000  32.2750000  42.0310000
  28.5580000  33.8040000  61.0430000  29.5500000  34.3760000  60.2110000
  27.3270000  33.3160000  60.4390000  28.7370000  33.7020000  62.4310000
  29.3710000  34.4770000  58.8360000  30.3550000  34.6970000  60.6000000
  27.1700000  33.4360000  59.0470000  26.3460000  32.7590000  61.2690000
  27.7560000  33.1450000  63.2610000  29.5510000  34.0190000  62.8030000
  30.3670000  35.0630000  57.9730000  28.1460000  34.0010000  58.2370000
  26.3690000  33.1180000  58.6460000  25.5320000  32.4420000  60.8970000
  26.5250000  32.6570000  62.6570000  27.9120000  33.0260000  64.6530000
  30.1690000  35.1600000  56.6380000  31.1770000  35.3870000  58.3480000
  27.9830000  34.1260000  56.8150000  25.5330000  32.0850000  63.4890000
  26.9360000  32.4600000  65.4630000  28.7140000  33.3430000  65.0540000
  28.9620000  34.6770000  56.0530000  30.8370000  35.5520000  56.0880000
  27.1830000  33.8200000  56.4030000  24.7280000  31.7640000  63.1000000
  25.7120000  31.9840000  64.8640000  27.1000000  32.3350000  66.8850000
  28.8400000  34.7420000  55.1130000  24.7160000  31.3980000  65.7270000
  26.1210000  31.7840000  67.6470000  27.9000000  32.6410000  67.2970000
  24.9140000  31.3010000  67.0620000  23.9060000  31.0740000  65.3520000
  26.2420000  31.7190000  68.5870000  24.2450000  30.9100000  67.6120000
  28.2910000  34.9290000  32.9290000  29.2830000  35.5010000  32.0970000
  27.0600000  34.4410000  32.3250000  28.4710000  34.8270000  34.3170000
  29.1050000  35.6020000  30.7230000  30.0890000  35.8220000  32.4870000
  26.9040000  34.5610000  30.9330000  26.0790000  33.8840000  33.1560000
  27.4900000  34.2700000  35.1480000  29.2840000  35.1440000  34.6890000
  30.1010000  36.1880000  29.8590000  27.8800000  35.1260000  30.1240000
  26.1030000  34.2430000  30.5330000  25.2660000  33.5670000  32.7830000
  26.2590000  33.7820000  34.5430000  27.6460000  34.1500000  36.5390000
  29.9030000  36.2850000  28.5240000  30.9100000  36.5120000  30.2350000
  27.7160000  35.2510000  28.7010000  25.2670000  33.2100000  35.3750000
  26.6700000  33.5850000  37.3490000  28.4470000  34.4680000  36.9400000
  28.6950000  35.8020000  27.9390000  30.5710000  36.6770000  27.9740000
  26.9160000  34.9450000  28.2890000  24.4610000  32.8890000  34.9860000
  25.4450000  33.1090000  36.7500000  26.8340000  33.4600000  38.7720000
  28.5740000  35.8670000  26.9990000  24.4490000  32.5230000  37.6130000
  25.8550000  32.9090000  39.5330000  27.6340000  33.7660000  39.1830000
  24.6470000  32.4260000  38.9490000  23.6400000  32.1990000  37.2380000
  25.9760000  32.8440000  40.4740000  23.9790000  32.0350000  39.4980000
  28.7930000  38.2060000  46.9860000  29.7840000  38.7780000  46.1540000
  27.5620000  37.7180000  46.3820000  28.9720000  38.1040000  48.3740000
  29.6060000  38.8790000  44.7790000  30.5900000  39.0990000  46.5440000
  27.4050000  37.8370000  44.9900000  26.5810000  37.1610000  47.2130000
  27.9910000  37.5470000  49.2040000  29.7850000  38.4210000  48.7460000
  30.6020000  39.4650000  43.9160000  28.3810000  38.4030000  44.1810000
  26.6040000  37.5200000  44.5900000  25.7670000  36.8440000  46.8400000
  26.7600000  37.0590000  48.6000000  28.1470000  37.4270000  50.5960000
  30.4040000  39.5620000  42.5810000  31.4120000  39.7890000  44.2920000
  28.2170000  38.5280000  42.7580000  25.7680000  36.4870000  49.4320000
  27.1710000  36.8620000  51.4060000  28.9490000  37.7450000  50.9970000
  29.1960000  39.0790000  41.9960000  31.0720000  39.9530000  42.0310000
  27.4180000  38.2220000  42.3460000  24.9630000  36.1660000  49.0430000
  25.9470000  36.3860000  50.8070000  27.3350000  36.7370000  52.8280000
  29.0750000  39.1440000  41.0560000  24.9510000  35.8000000  51.6700000
  26.3560000  36.1860000  53.5900000  28.1350000  37.0430000  53.2400000
  25.1490000  35.7030000  53.0050000  24.1410000  35.4760000  51.2950000
  26.4770000  36.1210000  54.5310000  24.4800000  35.3110000  53.5550000
  29.2940000  41.4830000  61.0430000  30.2860000  42.0540000  60.2110000
  28.0630000  40.9950000  60.4390000  29.4730000  41.3810000  62.4310000
  30.1070000  42.1550000  58.8360000  31.0910000  42.3760000  60.6000000
  27.9070000  41.1140000  59.0470000  27.0820000  40.4380000  61.2690000
  28.4920000  40.8240000  63.2610000  30.2870000  41.6980000  62.8030000
  31.1030000  42.7410000  57.9730000  28.8830000  41.6800000  58.2370000
  27.1050000  40.7970000  58.6460000  26.2680000  40.1200000  60.8970000
  27.2610000  40.3360000  62.6570000  28.6480000  40.7040000  64.6530000
  30.9050000  42.8390000  56.6380000  31.9130000  43.0650000  58.3480000
  28.7190000  41.8050000  56.8150000  26.2690000  39.7640000  63.4890000
  27.6730000  40.1390000  65.4630000  29.4500000  41.0220000  65.0540000
  29.6980000  42.3560000  56.0530000  31.5740000  43.2300000  56.0880000
  27.9190000  41.4980000  56.4030000  25.4640000  39.4430000  63.1000000
  26.4480000  39.6630000  64.8640000  27.8360000  40.0140000  66.8850000
  29.5770000  42.4210000  55.1130000  25.4520000  39.0770000  65.7270000
  26.8570000  39.4630000  67.6470000  28.6360000  40.3200000  67.2970000
  25.6500000  38.9800000  67.0620000  24.6420000  38.7530000  65.3520000
  26.9790000  39.3980000  68.5870000  24.9820000  38.5880000  67.6120000
  28.5260000  39.3310000  18.8730000  29.5180000  39.9030000  18.0410000
  27.2950000  38.8430000  18.2680000  28.7060000  39.2290000  20.2600000
  29.3390000  40.0040000  16.6660000  30.3230000  40.2240000  18.4300000
  27.1390000  38.9620000  16.8770000  26.3140000  38.2860000  19.0990000
  27.7240000  38.6720000  21.0910000  29.5190000  39.5460000  20.6330000
  30.3350000  40.5890000  15.8030000  28.1150000  39.5280000  16.0670000
  26.3380000  38.6450000  16.4760000  25.5010000  37.9680000  18.7260000
  26.4940000  38.1840000  20.4860000  27.8810000  38.5520000  22.4820000
  30.1370000  40.6870000  14.4670000  31.1450000  40.9130000  16.1780000
  27.9510000  39.6530000  14.6440000  25.5020000  37.6120000  21.3190000
  26.9050000  37.9870000  23.2920000  28.6820000  38.8700000  22.8830000
  28.9300000  40.2040000  13.8830000  30.8060000  41.0780000  13.9180000
  27.1510000  39.3470000  14.2330000  24.6960000  37.2910000  20.9290000
  25.6800000  37.5110000  22.6930000  27.0690000  37.8620000  24.7150000
  28.8090000  40.2690000  12.9420000  24.6840000  36.9250000  23.5560000
  26.0900000  37.3110000  25.4770000  27.8690000  38.1680000  25.1270000
  24.8820000  36.8280000  24.8920000  23.8750000  36.6010000  23.1810000
  26.2110000  37.2460000  26.4170000  24.2140000  36.4360000  25.4410000
  26.9950000  41.4610000  34.5430000  26.0030000  40.8890000  35.3750000
  28.2260000  41.9490000  35.1480000  26.8150000  41.5620000  33.1560000
  26.1820000  40.7880000  36.7500000  25.1980000  40.5680000  34.9860000
  28.3820000  41.8290000  36.5390000  29.2070000  42.5060000  34.3170000
  27.7970000  42.1200000  32.3250000  26.0020000  41.2450000  32.7830000
  25.1860000  40.2020000  37.6130000  27.4060000  41.2640000  37.3490000
  29.1830000  42.1470000  36.9400000  30.0200000  42.8230000  34.6890000
  29.0270000  42.6080000  32.9290000  27.6400000  42.2390000  30.9330000
  25.3840000  40.1050000  38.9490000  24.3760000  39.8780000  37.2380000
  27.5700000  41.1390000  38.7720000  30.0190000  43.1790000  32.0970000
  28.6160000  42.8050000  30.1240000  26.8390000  41.9220000  30.5330000
  26.5910000  40.5870000  39.5330000  24.7150000  39.7130000  39.4980000
  28.3700000  41.4450000  39.1830000  30.8250000  43.5000000  32.4870000
  29.8410000  43.2800000  30.7230000  28.4520000  42.9300000  28.7010000
  26.7120000  40.5230000  40.4740000  30.8370000  43.8660000  29.8590000
  29.4310000  43.4810000  27.9390000  27.6520000  42.6230000  28.2890000
  30.6390000  43.9630000  28.5240000  31.6460000  44.1900000  30.2350000
  29.3100000  43.5460000  26.9990000  31.3070000  44.3550000  27.9740000
  27.4960000  44.7370000  48.6000000  26.5040000  44.1660000  49.4320000
  28.7270000  45.2250000  49.2040000  27.3170000  44.8390000  47.2130000
  26.6830000  44.0650000  50.8070000  25.6990000  43.8450000  49.0430000
  28.8830000  45.1060000  50.5960000  29.7080000  45.7830000  48.3740000
  28.2980000  45.3970000  46.3820000  26.5030000  44.5220000  46.8400000
  25.6870000  43.4790000  51.6700000  27.9070000  44.5410000  51.4060000
  29.6850000  45.4240000  50.9970000  30.5220000  46.1000000  48.7460000
  29.5290000  45.8850000  46.9860000  28.1410000  45.5160000  44.9900000
  25.8850000  43.3820000  53.0050000  24.8770000  43.1550000  51.2950000
  28.0710000  44.4150000  52.8280000  30.5210000  46.4560000  46.1540000
  29.1170000  46.0810000  44.1810000  27.3400000  45.1980000  44.5900000
  27.0920000  43.8640000  53.5900000  25.2160000  42.9900000  53.5550000
  28.8710000  44.7220000  53.2400000  31.3260000  46.7770000  46.5440000
  30.3420000  46.5570000  44.7790000  28.9540000  46.2070000  42.7580000
  27.2130000  43.7990000  54.5310000  31.3380000  47.1430000  43.9160000
  29.9330000  46.7580000  41.9960000  28.1540000  45.9000000  42.3460000
  31.1400000  47.2400000  42.5810000  32.1480000  47.4670000  44.2920000
  29.8110000  46.8230000  41.0560000  31.8080000  47.6320000  42.0310000
  27.9970000  48.0140000  62.6570000  27.0050000  47.4430000  63.4890000
  29.2280000  48.5020000  63.2610000  27.8180000  48.1160000  61.2690000
  27.1840000  47.3420000  64.8640000  26.2000000  47.1210000  63.1000000
  29.3850000  48.3830000  64.6530000  30.2090000  49.0590000  62.4310000
  28.7990000  48.6730000  60.4390000  27.0040000  47.7990000  60.8970000
  26.1880000  46.7560000  65.7270000  28.4090000  47.8170000  65.4630000
  30.1860000  48.7000000  65.0540000  31.0230000  49.3770000  62.8030000
  30.0300000  49.1610000  61.0430000  28.6430000  48.7930000  59.0470000
  26.3860000  46.6580000  67.0620000  25.3780000  46.4320000  65.3520000
  28.5720000  47.6920000  66.8850000  31.0220000  49.7330000  60.2110000
  29.6190000  49.3580000  58.2370000  27.8410000  48.4750000  58.6460000
  27.5940000  47.1410000  67.6470000  25.7180000  46.2670000  67.6120000
  29.3720000  47.9990000  67.2970000  31.8270000  50.0540000  60.6000000
  30.8430000  49.8340000  58.8360000  29.4550000  49.4830000  56.8150000
  27.7150000  47.0760000  68.5870000  31.8390000  50.4200000  57.9730000
  30.4340000  50.0350000  56.0530000  28.6550000  49.1770000  56.4030000
  31.6410000  50.5170000  56.6380000  32.6490000  50.7440000  58.3480000
  30.3130000  50.0990000  55.1130000  32.3100000  50.9090000  56.0880000
  27.7900000  31.6520000  18.8730000  28.7820000  32.2240000  18.0410000
  26.5590000  31.1640000  18.2680000  27.9690000  31.5500000  20.2600000
  28.6030000  32.3250000  16.6660000  29.5870000  32.5450000  18.4300000
  26.4030000  31.2840000  16.8770000  25.5780000  30.6070000  19.0990000
  26.9880000  30.9930000  21.0910000  28.7830000  31.8680000  20.6330000
  29.5990000  32.9110000  15.8030000  27.3790000  31.8490000  16.0670000
  25.6010000  30.9660000  16.4760000  24.7650000  30.2900000  18.7260000
  25.7570000  30.5050000  20.4860000  27.1450000  30.8740000  22.4820000
  29.4010000  33.0080000  14.4670000  30.4090000  33.2350000  16.1780000
  27.2150000  31.9740000  14.6440000  24.7660000  29.9340000  21.3190000
  26.1690000  30.3080000  23.2920000  27.9460000  31.1910000  22.8830000
  28.1940000  32.5250000  13.8830000  30.0700000  33.4000000  13.9180000
  26.4150000  31.6680000  14.2330000  23.9600000  29.6120000  20.9290000
  24.9440000  29.8320000  22.6930000  26.3330000  30.1830000  24.7150000
  28.0730000  32.5900000  12.9420000  23.9480000  29.2470000  23.5560000
  25.3540000  29.6320000  25.4770000  27.1320000  30.4900000  25.1270000
  24.1460000  29.1490000  24.8920000  23.1380000  28.9230000  23.1810000
  25.4750000  29.5670000  26.4170000  23.4780000  28.7580000  25.4410000
  32.0400000  42.5700000  18.6870000  33.0250000  42.5650000  17.6680000
  30.7960000  43.2990000  18.4550000  32.2110000  41.8890000  19.9000000
  32.8290000  43.2240000  16.4680000  33.8390000  42.0970000  17.8130000
  30.6260000  43.9750000  17.2310000  29.8200000  43.3040000  19.4590000
  31.2350000  41.8950000  20.9040000  33.0240000  41.4170000  20.0310000
  33.8130000  43.2070000  15.4300000  31.5980000  43.9480000  16.2410000
  29.8240000  44.4630000  17.0790000  29.0070000  43.7760000  19.3280000
  29.9910000  42.6240000  20.6720000  31.4050000  41.2180000  22.1280000
  33.6020000  43.8510000  14.2580000  34.6280000  42.7380000  15.5670000
  31.4260000  44.6080000  14.9870000  29.0070000  42.6290000  21.6910000
  30.4330000  41.2450000  23.1180000  32.2070000  40.7300000  22.2800000
  32.3840000  44.5650000  14.0290000  34.2680000  43.8270000  13.5820000
  30.6240000  45.0890000  14.8220000  28.1920000  43.0960000  21.5460000
  29.2020000  41.9690000  22.8920000  30.6050000  40.5850000  24.3720000
  32.2460000  45.0100000  13.2010000  28.2180000  41.9860000  23.9290000
  29.6470000  40.6280000  25.3300000  31.4070000  40.1040000  24.5380000
  28.4290000  41.3430000  25.1010000  27.4030000  42.4550000  23.7930000
  29.7850000  40.1830000  26.1580000  27.7630000  41.3660000  25.7770000
  32.0720000  37.0430000  60.8580000  33.0560000  37.0380000  59.8380000
  30.8280000  37.7720000  60.6260000  32.2420000  36.3630000  62.0710000
  32.8600000  37.6970000  58.6380000  33.8700000  36.5700000  59.9830000
  30.6570000  38.4490000  59.4010000  29.8520000  37.7770000  61.6290000
  31.2670000  36.3680000  63.0740000  33.0560000  35.8900000  62.2010000
  33.8450000  37.6800000  57.6010000  31.6300000  38.4210000  58.4120000
  29.8560000  38.9360000  59.2490000  29.0380000  38.2500000  61.4990000
  30.0220000  37.0970000  62.8420000  31.4370000  35.6910000  64.2990000
  33.6340000  38.3240000  56.4280000  34.6590000  37.2110000  57.7370000
  31.4580000  39.0810000  57.1580000  29.0380000  37.1020000  63.8620000
  30.4640000  35.7180000  65.2880000  32.2380000  35.2040000  64.4500000
  32.4160000  39.0380000  56.1990000  34.3000000  38.3010000  55.7520000
  30.6550000  39.5630000  56.9920000  28.2240000  37.5700000  63.7170000
  29.2340000  36.4430000  65.0620000  30.6360000  35.0590000  66.5420000
  32.2770000  39.4830000  55.3710000  28.2500000  36.4600000  66.0990000
  29.6790000  35.1020000  67.5010000  31.4390000  34.5770000  66.7080000
  28.4610000  35.8160000  67.2720000  27.4350000  36.9280000  65.9630000
  29.8170000  34.6560000  68.3290000  27.7940000  35.8390000  67.9480000
  28.5190000  27.2670000  20.6720000  27.5340000  27.2710000  21.6910000
  29.7630000  26.5370000  20.9040000  28.3480000  27.9470000  19.4590000
  27.7300000  26.6120000  22.8920000  26.7200000  27.7390000  21.5460000
  29.9330000  25.8610000  22.1280000  30.7390000  26.5320000  19.9000000
  29.3240000  27.9410000  18.4550000  27.5340000  28.4190000  19.3280000
  26.7460000  26.6290000  23.9290000  28.9610000  25.8880000  23.1180000
  30.7340000  25.3730000  22.2800000  31.5520000  26.0600000  20.0310000
  30.5680000  27.2120000  18.6870000  29.1530000  28.6180000  17.2310000
  26.9570000  25.9850000  25.1010000  25.9310000  27.0980000  23.7930000
  29.1320000  25.2280000  24.3720000  31.5520000  27.2070000  17.6680000
  30.1260000  28.5910000  16.2410000  28.3520000  29.1060000  17.0790000
  28.1750000  25.2710000  25.3300000  26.2900000  26.0090000  25.7770000
  29.9350000  24.7470000  24.5380000  32.3670000  26.7400000  17.8130000
  31.3570000  27.8670000  16.4680000  29.9540000  29.2510000  14.9870000
  28.3130000  24.8260000  26.1580000  32.3410000  27.8500000  15.4300000
  30.9120000  29.2080000  14.0290000  29.1520000  29.7320000  14.8220000
  32.1300000  28.4930000  14.2580000  33.1560000  27.3810000  15.5670000
  30.7730000  29.6530000  13.2010000  32.7960000  28.4700000  13.5820000
  31.0690000  30.4890000  32.7440000  32.0540000  30.4840000  31.7250000
  29.8250000  31.2180000  32.5120000  31.2400000  29.8090000  33.9570000
  31.8580000  31.1440000  30.5240000  32.8680000  30.0170000  31.8700000
  29.6550000  31.8950000  31.2880000  28.8490000  31.2230000  33.5160000
  30.2640000  29.8140000  34.9610000  32.0530000  29.3370000  34.0880000
  32.8420000  31.1270000  29.4870000  30.6270000  31.8680000  30.2980000
  28.8540000  32.3830000  31.1360000  28.0360000  31.6960000  33.3850000
  29.0200000  30.5430000  34.7290000  30.4340000  29.1370000  36.1850000
  32.6310000  31.7700000  28.3150000  33.6570000  30.6580000  29.6230000
  30.4550000  32.5280000  29.0440000  28.0360000  30.5480000  35.7480000
  29.4620000  29.1650000  37.1750000  31.2360000  28.6500000  36.3370000
  31.4130000  32.4850000  28.0860000  33.2980000  31.7470000  27.6390000
  29.6530000  33.0090000  28.8780000  27.2210000  31.0160000  35.6030000
  28.2310000  29.8890000  36.9480000  29.6340000  28.5050000  38.4290000
  31.2750000  32.9300000  27.2580000  27.2470000  29.9060000  37.9860000
  28.6760000  28.5480000  39.3870000  30.4360000  28.0240000  38.5940000
  27.4580000  29.2620000  39.1580000  26.4320000  30.3750000  37.8490000
  28.8140000  28.1030000  40.2150000  26.7920000  29.2860000  39.8340000
  30.6000000  21.6860000  60.8580000  31.5840000  21.6810000  59.8380000
  29.3550000  22.4150000  60.6260000  30.7700000  21.0060000  62.0710000
  31.3880000  22.3400000  58.6380000  32.3980000  21.2130000  59.9830000
  29.1850000  23.0920000  59.4010000  28.3800000  22.4200000  61.6290000
  29.7940000  21.0110000  63.0740000  31.5840000  20.5330000  62.2010000
  32.3720000  22.3230000  57.6010000  30.1580000  23.0640000  58.4120000
  28.3840000  23.5790000  59.2490000  27.5660000  22.8920000  61.4990000
  28.5500000  21.7400000  62.8420000  29.9650000  20.3340000  64.2990000
  32.1610000  22.9670000  56.4280000  33.1870000  21.8540000  57.7370000
  29.9860000  23.7240000  57.1580000  27.5660000  21.7450000  63.8620000
  28.9920000  20.3610000  65.2880000  30.7660000  19.8460000  64.4500000
  30.9430000  23.6810000  56.1990000  32.8280000  22.9430000  55.7520000
  29.1830000  24.2050000  56.9920000  26.7520000  22.2120000  63.7170000
  27.7620000  21.0850000  65.0620000  29.1640000  19.7010000  66.5420000
  30.8050000  24.1260000  55.3710000  26.7770000  21.1020000  66.0990000
  28.2060000  19.7440000  67.5010000  29.9670000  19.2200000  66.7080000
  26.9880000  20.4590000  67.2720000  25.9630000  21.5710000  65.9630000
  28.3450000  19.2990000  68.3290000  26.3220000  20.4820000  67.9480000
  27.0460000  11.9090000  20.6720000  26.0620000  11.9140000  21.6910000
  28.2910000  11.1800000  20.9040000  26.8760000  12.5890000  19.4590000
  26.2580000  11.2550000  22.8920000  25.2480000  12.3820000  21.5460000
  28.4610000  10.5030000  22.1280000  29.2660000  11.1750000  19.9000000
  27.8520000  12.5840000  18.4550000  26.0620000  13.0620000  19.3280000
  25.2740000  11.2720000  23.9290000  27.4880000  10.5310000  23.1180000
  29.2620000  10.0160000  22.2800000  30.0800000  10.7030000  20.0310000
  29.0960000  11.8550000  18.6870000  27.6810000  13.2610000  17.2310000
  25.4850000  10.6280000  25.1010000  24.4590000  11.7410000  23.7930000
  27.6600000   9.8710000  24.3720000  30.0800000  11.8500000  17.6680000
  28.6540000  13.2340000  16.2410000  26.8800000  13.7490000  17.0790000
  26.7030000   9.9140000  25.3300000  24.8180000  10.6520000  25.7770000
  28.4630000   9.3900000  24.5380000  30.8940000  11.3830000  17.8130000
  29.8840000  12.5090000  16.4680000  28.4820000  13.8940000  14.9870000
  26.8410000   9.4690000  26.1580000  30.8690000  12.4930000  15.4300000
  29.4400000  13.8510000  14.0290000  27.6790000  14.3750000  14.8220000
  30.6570000  13.1360000  14.2580000  31.6830000  12.0240000  15.5670000
  29.3010000  14.2960000  13.2010000  31.3240000  13.1130000  13.5820000
  29.5970000  15.1320000  32.7440000  30.5810000  15.1270000  31.7250000
  28.3530000  15.8610000  32.5120000  29.7680000  14.4520000  33.9570000
  30.3860000  15.7860000  30.5240000  31.3960000  14.6590000  31.8700000
  28.1820000  16.5380000  31.2880000  27.3770000  15.8660000  33.5160000
  28.7920000  14.4570000  34.9610000  30.5810000  13.9790000  34.0880000
  31.3700000  15.7690000  29.4870000  29.1550000  16.5110000  30.2980000
  27.3810000  17.0250000  31.1360000  26.5630000  16.3390000  33.3850000
  27.5480000  15.1860000  34.7290000  28.9620000  13.7800000  36.1850000
  31.1590000  16.4130000  28.3150000  32.1850000  15.3010000  29.6230000
  28.9830000  17.1700000  29.0440000  26.5630000  15.1910000  35.7480000
  27.9900000  13.8080000  37.1750000  29.7630000  13.2930000  36.3370000
  29.9410000  17.1270000  28.0860000  31.8250000  16.3900000  27.6390000
  28.1810000  17.6520000  28.8780000  25.7490000  15.6590000  35.6030000
  26.7590000  14.5320000  36.9480000  28.1610000  13.1480000  38.4290000
  29.8020000  17.5730000  27.2580000  25.7750000  14.5490000  37.9860000
  27.2040000  13.1910000  39.3870000  28.9640000  12.6660000  38.5940000
  25.9860000  13.9050000  39.1580000  24.9600000  15.0180000  37.8490000
  27.3420000  12.7460000  40.2150000  25.3190000  13.9280000  39.8340000
  28.0490000  18.4630000  48.7860000  27.0650000  18.4680000  49.8050000
  29.2930000  17.7340000  49.0180000  27.8780000  19.1430000  47.5720000
  27.2600000  17.8090000  51.0050000  26.2500000  18.9360000  49.6600000
  29.4640000  17.0570000  50.2420000  30.2690000  17.7290000  48.0140000
  28.8540000  19.1380000  46.5690000  27.0650000  19.6160000  47.4420000
  26.2760000  17.8250000  52.0430000  28.4910000  17.0840000  51.2310000
  30.2650000  16.5700000  50.3940000  31.0830000  17.2560000  48.1450000
  30.0980000  18.4090000  46.8010000  28.6840000  19.8150000  45.3440000
  26.4870000  17.1820000  53.2150000  25.4610000  18.2940000  51.9060000
  28.6630000  16.4240000  52.4850000  31.0830000  18.4040000  45.7820000
  29.6560000  19.7870000  44.3550000  27.8830000  20.3020000  45.1930000
  27.7050000  16.4680000  53.4440000  25.8210000  17.2050000  53.8910000
  29.4650000  15.9430000  52.6510000  31.8970000  17.9360000  45.9260000
  30.8870000  19.0630000  44.5810000  29.4840000  20.4470000  43.1010000
  27.8440000  16.0220000  54.2720000  31.8710000  19.0460000  43.5440000
  30.4420000  20.4040000  42.1420000  28.6820000  20.9280000  42.9350000
  31.6600000  19.6900000  42.3710000  32.6860000  18.5770000  43.6800000
  30.3040000  20.8490000  41.3140000  32.3270000  19.6670000  41.6950000
  28.7850000  26.1420000  48.7860000  27.8010000  26.1460000  49.8050000
  30.0290000  25.4120000  49.0180000  28.6150000  26.8220000  47.5720000
  27.9960000  25.4870000  51.0050000  26.9860000  26.6140000  49.6600000
  30.2000000  24.7360000  50.2420000  31.0050000  25.4070000  48.0140000
  29.5900000  26.8170000  46.5690000  27.8010000  27.2940000  47.4420000
  27.0120000  25.5040000  52.0430000  29.2270000  24.7630000  51.2310000
  31.0010000  24.2480000  50.3940000  31.8190000  24.9350000  48.1450000
  30.8340000  26.0870000  46.8010000  29.4200000  27.4930000  45.3440000
  27.2230000  24.8610000  53.2150000  26.1970000  25.9730000  51.9060000
  29.3990000  24.1030000  52.4850000  31.8190000  26.0820000  45.7820000
  30.3920000  27.4660000  44.3550000  28.6190000  27.9810000  45.1930000
  28.4410000  24.1460000  53.4440000  26.5570000  24.8840000  53.8910000
  30.2010000  23.6220000  52.6510000  32.6330000  25.6150000  45.9260000
  31.6230000  26.7420000  44.5810000  30.2210000  28.1260000  43.1010000
  28.5800000  23.7010000  54.2720000  32.6070000  26.7250000  43.5440000
  31.1780000  28.0830000  42.1420000  29.4180000  28.6070000  42.9350000
  32.3960000  27.3680000  42.3710000  33.4220000  26.2560000  43.6800000
  31.0400000  28.5280000  41.3140000  33.0630000  27.3450000  41.6950000
  27.7830000  19.5880000  20.6720000  26.7980000  19.5930000  21.6910000
  29.0270000  18.8590000  20.9040000  27.6120000  20.2680000  19.4590000
  26.9940000  18.9340000  22.8920000  25.9840000  20.0600000  21.5460000
  29.1970000  18.1820000  22.1280000  30.0020000  18.8540000  19.9000000
  28.5880000  20.2630000  18.4550000  26.7980000  20.7410000  19.3280000
  26.0100000  18.9500000  23.9290000  28.2250000  18.2090000  23.1180000
  29.9980000  17.6950000  22.2800000  30.8160000  18.3810000  20.0310000
  29.8320000  19.5340000  18.6870000  28.4170000  20.9400000  17.2310000
  26.2210000  18.3070000  25.1010000  25.1950000  19.4190000  23.7930000
  28.3960000  17.5490000  24.3720000  30.8160000  19.5290000  17.6680000
  29.3900000  20.9120000  16.2410000  27.6160000  21.4270000  17.0790000
  27.4390000  17.5920000  25.3300000  25.5540000  18.3300000  25.7770000
  29.1990000  17.0680000  24.5380000  31.6310000  19.0610000  17.8130000
  30.6210000  20.1880000  16.4680000  29.2180000  21.5720000  14.9870000
  27.5770000  17.1470000  26.1580000  31.6050000  20.1710000  15.4300000
  30.1760000  21.5290000  14.0290000  28.4150000  22.0530000  14.8220000
  31.3940000  20.8150000  14.2580000  32.4200000  19.7020000  15.5670000
  30.0370000  21.9740000  13.2010000  32.0600000  20.7920000  13.5820000
  31.3360000  29.3640000  60.8580000  32.3200000  29.3590000  59.8380000
  30.0920000  30.0930000  60.6260000  31.5060000  28.6840000  62.0710000
  32.1240000  30.0190000  58.6380000  33.1340000  28.8920000  59.9830000
  29.9210000  30.7700000  59.4010000  29.1160000  30.0990000  61.6290000
  30.5300000  28.6890000  63.0740000  32.3200000  28.2120000  62.2010000
  33.1090000  30.0020000  57.6010000  30.8940000  30.7430000  58.4120000
  29.1200000  31.2580000  59.2490000  28.3020000  30.5710000  61.4990000
  29.2860000  29.4180000  62.8420000  30.7010000  28.0130000  64.2990000
  32.8970000  30.6450000  56.4280000  33.9230000  29.5330000  57.7370000
  30.7220000  31.4030000  57.1580000  28.3020000  29.4230000  63.8620000
  29.7280000  28.0400000  65.2880000  31.5020000  27.5250000  64.4500000
  31.6800000  31.3600000  56.1990000  33.5640000  30.6220000  55.7520000
  29.9190000  31.8840000  56.9920000  27.4880000  29.8910000  63.7170000
  28.4980000  28.7640000  65.0620000  29.9000000  27.3800000  66.5420000
  31.5410000  31.8050000  55.3710000  27.5130000  28.7810000  66.0990000
  28.9420000  27.4230000  67.5010000  30.7030000  26.8990000  66.7080000
  27.7250000  28.1370000  67.2720000  26.6990000  29.2500000  65.9630000
  29.0810000  26.9780000  68.3290000  27.0580000  28.1610000  67.9480000
  29.3310000  16.2570000   4.6300000  30.3150000  16.2520000   3.6110000
  28.0870000  16.9860000   4.3980000  29.5010000  15.5770000   5.8430000
  30.1190000  16.9110000   2.4110000  31.1290000  15.7840000   3.7560000
  27.9160000  17.6630000   3.1740000  27.1110000  16.9910000   5.4020000
  28.5250000  15.5820000   6.8470000  30.3150000  15.1040000   5.9740000
  31.1040000  16.8940000   1.3730000  28.8890000  17.6360000   2.1840000
  27.1150000  18.1500000   3.0220000  26.2970000  17.4640000   5.2710000
  27.2810000  16.3110000   6.6150000  28.6960000  14.9050000   8.0710000
  30.8920000  17.5380000   0.2010000  31.9180000  16.4260000   1.5100000
  28.7170000  18.2950000   0.9310000  26.2970000  16.3160000   7.6340000
  27.7230000  14.9320000   9.0610000  29.4970000  14.4180000   8.2230000
  29.6740000  18.2520000  -0.0280000  31.5590000  17.5150000  -0.4750000
  27.9140000  18.7770000   0.7650000  25.4830000  16.7840000   7.4890000
  26.4930000  15.6570000   8.8350000  27.8950000  14.2730000  10.3150000
  29.5360000  18.6970000  -0.8560000  25.5080000  15.6740000   9.8720000
  26.9370000  14.3160000  11.2740000  28.6980000  13.7910000  10.4810000
  25.7200000  15.0300000  11.0440000  24.6940000  16.1420000   9.7360000
  27.0760000  13.8710000  12.1020000  25.0530000  15.0530000  11.7210000
  30.0670000  23.9350000   4.6300000  31.0510000  23.9310000   3.6110000
  28.8230000  24.6650000   4.3980000  30.2370000  23.2550000   5.8430000
  30.8550000  24.5900000   2.4110000  31.8650000  23.4630000   3.7560000
  28.6520000  25.3410000   3.1740000  27.8470000  24.6700000   5.4020000
  29.2620000  23.2610000   6.8470000  31.0510000  22.7830000   5.9740000
  31.8400000  24.5730000   1.3730000  29.6250000  25.3140000   2.1840000
  27.8510000  25.8290000   3.0220000  27.0330000  25.1420000   5.2710000
  28.0170000  23.9900000   6.6150000  29.4320000  22.5840000   8.0710000
  31.6280000  25.2170000   0.2010000  32.6540000  24.1040000   1.5100000
  29.4530000  25.9740000   0.9310000  27.0330000  23.9950000   7.6340000
  28.4590000  22.6110000   9.0610000  30.2330000  22.0960000   8.2230000
  30.4110000  25.9310000  -0.0280000  32.2950000  25.1930000  -0.4750000
  28.6500000  26.4550000   0.7650000  26.2190000  24.4620000   7.4890000
  27.2290000  23.3350000   8.8350000  28.6310000  21.9510000  10.3150000
  30.2720000  26.3760000  -0.8560000  26.2440000  23.3520000   9.8720000
  27.6740000  21.9940000  11.2740000  29.4340000  21.4700000  10.4810000
  26.4560000  22.7090000  11.0440000  25.4300000  23.8210000   9.7360000
  27.8120000  21.5490000  12.1020000  25.7890000  22.7320000  11.7210000
  29.5210000  33.8200000  48.7860000  28.5370000  33.8250000  49.8050000
  30.7650000  33.0910000  49.0180000  29.3510000  34.5000000  47.5720000
  28.7320000  33.1660000  51.0050000  27.7230000  34.2930000  49.6600000
  30.9360000  32.4140000  50.2420000  31.7410000  33.0860000  48.0140000
  30.3260000  34.4950000  46.5690000  28.5370000  34.9730000  47.4420000
  27.7480000  33.1830000  52.0430000  29.9630000  32.4420000  51.2310000
  31.7370000  31.9270000  50.3940000  32.5550000  32.6130000  48.1450000
  31.5710000  33.7660000  46.8010000  30.1560000  35.1720000  45.3440000
  27.9590000  32.5390000  53.2150000  26.9340000  33.6520000  51.9060000
  30.1350000  31.7820000  52.4850000  32.5550000  33.7610000  45.7820000
  31.1290000  35.1450000  44.3550000  29.3550000  35.6590000  45.1930000
  29.1770000  31.8250000  53.4440000  27.2930000  32.5620000  53.8910000
  30.9380000  31.3000000  52.6510000  33.3690000  33.2930000  45.9260000
  32.3590000  34.4200000  44.5810000  30.9570000  35.8050000  43.1010000
  29.3160000  31.3800000  54.2720000  33.3430000  34.4030000  43.5440000
  31.9140000  35.7610000  42.1420000  30.1540000  36.2860000  42.9350000
  33.1320000  35.0470000  42.3710000  34.1580000  33.9350000  43.6800000
  31.7760000  36.2070000  41.3140000  33.7990000  35.0240000  41.6950000
  29.2550000  34.9450000  20.6720000  28.2700000  34.9500000  21.6910000
  30.4990000  34.2160000  20.9040000  29.0840000  35.6250000  19.4590000
  28.4660000  34.2910000  22.8920000  27.4560000  35.4180000  21.5460000
  30.6690000  33.5390000  22.1280000  31.4750000  34.2110000  19.9000000
  30.0600000  35.6200000  18.4550000  28.2710000  36.0980000  19.3280000
  27.4820000  34.3080000  23.9290000  29.6970000  33.5660000  23.1180000
  31.4710000  33.0520000  22.2800000  32.2880000  33.7380000  20.0310000
  31.3040000  34.8910000  18.6870000  29.8900000  36.2970000  17.2310000
  27.6930000  33.6640000  25.1010000  26.6670000  34.7760000  23.7930000
  29.8690000  32.9070000  24.3720000  32.2880000  34.8860000  17.6680000
  30.8620000  36.2700000  16.2410000  29.0880000  36.7840000  17.0790000
  28.9110000  32.9500000  25.3300000  27.0270000  33.6870000  25.7770000
  30.6710000  32.4250000  24.5380000  33.1030000  34.4180000  17.8130000
  32.0930000  35.5450000  16.4680000  30.6900000  36.9290000  14.9870000
  29.0490000  32.5050000  26.1580000  33.0770000  35.5280000  15.4300000
  31.6480000  36.8860000  14.0290000  29.8880000  37.4110000  14.8220000
  32.8660000  36.1720000  14.2580000  33.8920000  35.0600000  15.5670000
  31.5100000  37.3310000  13.2010000  33.5320000  36.1490000  13.5820000
  31.8050000  38.1680000  32.7440000  32.7900000  38.1630000  31.7250000
  30.5610000  38.8970000  32.5120000  31.9760000  37.4880000  33.9570000
  32.5940000  38.8220000  30.5240000  33.6040000  37.6950000  31.8700000
  30.3910000  39.5740000  31.2880000  29.5850000  38.9020000  33.5160000
  31.0000000  37.4930000  34.9610000  32.7900000  37.0150000  34.0880000
  33.5780000  38.8050000  29.4870000  31.3630000  39.5460000  30.2980000
  29.5900000  40.0610000  31.1360000  28.7720000  39.3750000  33.3850000
  29.7560000  38.2220000  34.7290000  31.1710000  36.8160000  36.1850000
  33.3670000  39.4490000  28.3150000  34.3930000  38.3360000  29.6230000
  31.1920000  40.2060000  29.0440000  28.7720000  38.2270000  35.7480000
  30.1980000  36.8430000  37.1750000  31.9720000  36.3290000  36.3370000
  32.1490000  40.1630000  28.0860000  34.0340000  39.4260000  27.6390000
  30.3890000  40.6870000  28.8780000  27.9570000  38.6950000  35.6030000
  28.9670000  37.5680000  36.9480000  30.3700000  36.1830000  38.4290000
  32.0110000  40.6080000  27.2580000  27.9830000  37.5840000  37.9860000
  29.4120000  36.2260000  39.3870000  31.1720000  35.7020000  38.5940000
  28.1940000  36.9410000  39.1580000  27.1680000  38.0530000  37.8490000
  29.5510000  35.7810000  40.2150000  27.5280000  36.9640000  39.8340000
  32.8080000  44.7210000  60.8580000  33.7920000  44.7170000  59.8380000
  31.5640000  45.4510000  60.6260000  32.9780000  44.0410000  62.0710000
  33.5970000  45.3760000  58.6380000  34.6070000  44.2490000  59.9830000
  31.3930000  46.1270000  59.4010000  30.5880000  45.4560000  61.6290000
  32.0030000  44.0460000  63.0740000  33.7920000  43.5690000  62.2010000
  34.5810000  45.3590000  57.6010000  32.3660000  46.1000000  58.4120000
  30.5920000  46.6150000  59.2490000  29.7740000  45.9280000  61.4990000
  30.7590000  44.7760000  62.8420000  32.1730000  43.3700000  64.2990000
  34.3700000  46.0020000  56.4280000  35.3960000  44.8900000  57.7370000
  32.1940000  46.7600000  57.1580000  29.7740000  44.7810000  63.8620000
  31.2010000  43.3970000  65.2880000  32.9740000  42.8820000  64.4500000
  33.1520000  46.7170000  56.1990000  35.0360000  45.9790000  55.7520000
  31.3910000  47.2410000  56.9920000  28.9600000  45.2480000  63.7170000
  29.9700000  44.1210000  65.0620000  31.3720000  42.7370000  66.5420000
  33.0130000  47.1620000  55.3710000  28.9860000  44.1380000  66.0990000
  30.4150000  42.7800000  67.5010000  32.1750000  42.2560000  66.7080000
  29.1970000  43.4950000  67.2720000  28.1710000  44.6070000  65.9630000
  30.5530000  42.3350000  68.3290000  28.5300000  43.5180000  67.9480000
  30.2570000  41.4990000  48.7860000  29.2730000  41.5040000  49.8050000
  31.5010000  40.7700000  49.0180000  30.0870000  42.1790000  47.5720000
  29.4690000  40.8440000  51.0050000  28.4590000  41.9710000  49.6600000
  31.6720000  40.0930000  50.2420000  32.4770000  40.7640000  48.0140000
  31.0630000  42.1740000  46.5690000  29.2730000  42.6510000  47.4420000
  28.4840000  40.8610000  52.0430000  30.6990000  40.1200000  51.2310000
  32.4730000  39.6050000  50.3940000  33.2910000  40.2920000  48.1450000
  32.3070000  41.4450000  46.8010000  30.8920000  42.8500000  45.3440000
  28.6960000  40.2180000  53.2150000  27.6700000  41.3300000  51.9060000
  30.8710000  39.4600000  52.4850000  33.2910000  41.4400000  45.7820000
  31.8650000  42.8230000  44.3550000  30.0910000  43.3380000  45.1930000
  29.9130000  39.5030000  53.4440000  28.0290000  40.2410000  53.8910000
  31.6740000  38.9790000  52.6510000  34.1050000  40.9720000  45.9260000
  33.0950000  42.0990000  44.5810000  31.6930000  43.4830000  43.1010000
  30.0520000  39.0580000  54.2720000  34.0800000  42.0820000  43.5440000
  32.6510000  43.4400000  42.1420000  30.8900000  43.9640000  42.9350000
  33.8680000  42.7260000  42.3710000  34.8940000  41.6130000  43.6800000
  32.5120000  43.8850000  41.3140000  34.5350000  42.7020000  41.6950000
  30.3330000  22.8110000  32.7440000  31.3170000  22.8060000  31.7250000
  29.0890000  23.5400000  32.5120000  30.5040000  22.1300000  33.9570000
  31.1220000  23.4650000  30.5240000  32.1320000  22.3380000  31.8700000
  28.9190000  24.2160000  31.2880000  28.1130000  23.5450000  33.5160000
  29.5280000  22.1360000  34.9610000  31.3170000  21.6580000  34.0880000
  32.1060000  23.4480000  29.4870000  29.8910000  24.1890000  30.2980000
  28.1170000  24.7040000  31.1360000  27.3000000  24.0170000  33.3850000
  28.2840000  22.8650000  34.7290000  29.6980000  21.4590000  36.1850000
  31.8950000  24.0920000  28.3150000  32.9210000  22.9790000  29.6230000
  29.7190000  24.8490000  29.0440000  27.2990000  22.8700000  35.7480000
  28.7260000  21.4860000  37.1750000  30.5000000  20.9710000  36.3370000
  30.6770000  24.8060000  28.0860000  32.5610000  24.0680000  27.6390000
  28.9170000  25.3300000  28.8780000  26.4850000  23.3370000  35.6030000
  27.4950000  22.2100000  36.9480000  28.8980000  20.8260000  38.4290000
  30.5390000  25.2510000  27.2580000  26.5110000  22.2270000  37.9860000
  27.9400000  20.8690000  39.3870000  29.7000000  20.3450000  38.5940000
  26.7220000  21.5840000  39.1580000  25.6960000  22.6960000  37.8490000
  28.0780000  20.4240000  40.2150000  26.0560000  21.6070000  39.8340000
  32.5410000  45.8460000  32.7440000  33.5260000  45.8410000  31.7250000
  31.2970000  46.5760000  32.5120000  32.7120000  45.1660000  33.9570000
  33.3300000  46.5010000  30.5240000  34.3400000  45.3740000  31.8700000
  31.1270000  47.2520000  31.2880000  30.3220000  46.5810000  33.5160000
  31.7360000  45.1710000  34.9610000  33.5260000  44.6940000  34.0880000
  34.3140000  46.4840000  29.4870000  32.1000000  47.2250000  30.2980000
  30.3260000  47.7400000  31.1360000  29.5080000  47.0530000  33.3850000
  30.4920000  45.9010000  34.7290000  31.9070000  44.4950000  36.1850000
  34.1030000  47.1270000  28.3150000  35.1290000  46.0150000  29.6230000
  31.9280000  47.8850000  29.0440000  29.5080000  45.9050000  35.7480000
  30.9340000  44.5220000  37.1750000  32.7080000  44.0070000  36.3370000
  32.8850000  47.8420000  28.0860000  34.7700000  47.1040000  27.6390000
  31.1250000  48.3660000  28.8780000  28.6940000  46.3730000  35.6030000
  29.7030000  45.2460000  36.9480000  31.1060000  43.8620000  38.4290000
  32.7470000  48.2870000  27.2580000  28.7190000  45.2630000  37.9860000
  30.1480000  43.9050000  39.3870000  31.9090000  43.3810000  38.5940000
  28.9300000  44.6200000  39.1580000  27.9050000  45.7320000  37.8490000
  30.2870000  43.4600000  40.2150000  28.2640000  44.6430000  39.8340000
  30.9930000  49.1770000  48.7860000  30.0090000  49.1820000  49.8050000
  32.2380000  48.4480000  49.0180000  30.8230000  49.8570000  47.5720000
  30.2050000  48.5230000  51.0050000  29.1950000  49.6500000  49.6600000
  32.4080000  47.7720000  50.2420000  33.2130000  48.4430000  48.0140000
  31.7990000  49.8520000  46.5690000  30.0090000  50.3300000  47.4420000
  29.2210000  48.5400000  52.0430000  31.4350000  47.7990000  51.2310000
  33.2090000  47.2840000  50.3940000  34.0270000  47.9710000  48.1450000
  33.0430000  49.1230000  46.8010000  31.6280000  50.5290000  45.3440000
  29.4320000  47.8960000  53.2150000  28.4060000  49.0090000  51.9060000
  31.6070000  47.1390000  52.4850000  34.0270000  49.1180000  45.7820000
  32.6010000  50.5020000  44.3550000  30.8270000  51.0170000  45.1930000
  30.6500000  47.1820000  53.4440000  28.7650000  47.9200000  53.8910000
  32.4100000  46.6580000  52.6510000  34.8410000  48.6510000  45.9260000
  33.8310000  49.7780000  44.5810000  32.4290000  51.1620000  43.1010000
  30.7880000  46.7370000  54.2720000  34.8160000  49.7610000  43.5440000
  33.3870000  51.1190000  42.1420000  31.6260000  51.6430000  42.9350000
  34.6040000  50.4040000  42.3710000  35.6300000  49.2920000  43.6800000
  33.2480000  51.5640000  41.3140000  35.2710000  50.3810000  41.6950000
  33.5440000  52.4000000  60.8580000  34.5280000  52.3950000  59.8380000
  32.3000000  53.1290000  60.6260000  33.7150000  51.7200000  62.0710000
  34.3330000  53.0540000  58.6380000  35.3430000  51.9270000  59.9830000
  32.1290000  53.8060000  59.4010000  31.3240000  53.1340000  61.6290000
  32.7390000  51.7250000  63.0740000  34.5280000  51.2470000  62.2010000
  35.3170000  53.0380000  57.6010000  33.1020000  53.7790000  58.4120000
  31.3280000  54.2930000  59.2490000  30.5100000  53.6070000  61.4990000
  31.4950000  52.4540000  62.8420000  32.9090000  51.0480000  64.2990000
  35.1060000  53.6810000  56.4280000  36.1320000  52.5690000  57.7370000
  32.9300000  54.4390000  57.1580000  30.5100000  52.4590000  63.8620000
  31.9370000  51.0760000  65.2880000  33.7100000  50.5610000  64.4500000
  33.8880000  54.3960000  56.1990000  35.7720000  53.6580000  55.7520000
  32.1280000  54.9200000  56.9920000  29.6960000  52.9270000  63.7170000
  30.7060000  51.8000000  65.0620000  32.1080000  50.4160000  66.5420000
  33.7490000  54.8410000  55.3710000  29.7220000  51.8170000  66.0990000
  31.1510000  50.4590000  67.5010000  32.9110000  49.9350000  66.7080000
  29.9330000  51.1730000  67.2720000  28.9070000  52.2860000  65.9630000
  31.2890000  50.0140000  68.3290000  29.2660000  51.1960000  67.9480000
  28.5940000   8.5780000   4.6300000  29.5790000   8.5730000   3.6110000
  27.3500000   9.3070000   4.3980000  28.7650000   7.8980000   5.8430000
  29.3830000   9.2330000   2.4110000  30.3930000   8.1060000   3.7560000
  27.1800000   9.9840000   3.1740000  26.3750000   9.3130000   5.4020000
  27.7890000   7.9030000   6.8470000  29.5790000   7.4260000   5.9740000
  30.3670000   9.2160000   1.3730000  28.1530000   9.9570000   2.1840000
  26.3790000  10.4720000   3.0220000  25.5610000   9.7850000   5.2710000
  26.5450000   8.6320000   6.6150000  27.9600000   7.2270000   8.0710000
  30.1560000   9.8590000   0.2010000  31.1820000   8.7470000   1.5100000
  27.9810000  10.6170000   0.9310000  25.5610000   8.6370000   7.6340000
  26.9870000   7.2540000   9.0610000  28.7610000   6.7390000   8.2230000
  28.9380000  10.5740000  -0.0280000  30.8230000   9.8360000  -0.4750000
  27.1780000  11.0980000   0.7650000  24.7470000   9.1050000   7.4890000
  25.7560000   7.9780000   8.8350000  27.1590000   6.5940000  10.3150000
  28.8000000  11.0190000  -0.8560000  24.7720000   7.9950000   9.8720000
  26.2010000   6.6370000  11.2740000  27.9620000   6.1130000  10.4810000
  24.9830000   7.3510000  11.0440000  23.9580000   8.4640000   9.7360000
  26.3400000   6.1920000  12.1020000  24.3170000   7.3750000  11.7210000
  31.5390000  39.2930000   4.6300000  32.5230000  39.2880000   3.6110000
  30.2950000  40.0220000   4.3980000  31.7100000  38.6130000   5.8430000
  32.3280000  39.9470000   2.4110000  33.3380000  38.8200000   3.7560000
  30.1240000  40.6990000   3.1740000  29.3190000  40.0270000   5.4020000
  30.7340000  38.6180000   6.8470000  32.5230000  38.1400000   5.9740000
  33.3120000  39.9300000   1.3730000  31.0970000  40.6710000   2.1840000
  29.3230000  41.1860000   3.0220000  28.5050000  40.4990000   5.2710000
  29.4900000  39.3470000   6.6150000  30.9040000  37.9410000   8.0710000
  33.1010000  40.5740000   0.2010000  34.1270000  39.4610000   1.5100000
  30.9250000  41.3310000   0.9310000  28.5050000  39.3520000   7.6340000
  29.9320000  37.9680000   9.0610000  31.7050000  37.4530000   8.2230000
  31.8830000  41.2880000  -0.0280000  33.7670000  40.5500000  -0.4750000
  30.1230000  41.8120000   0.7650000  27.6910000  39.8190000   7.4890000
  28.7010000  38.6930000   8.8350000  30.1030000  37.3080000  10.3150000
  31.7440000  41.7330000  -0.8560000  27.7170000  38.7090000   9.8720000
  29.1460000  37.3510000  11.2740000  30.9060000  36.8270000  10.4810000
  27.9280000  38.0660000  11.0440000  26.9020000  39.1780000   9.7360000
  29.2840000  36.9060000  12.1020000  27.2610000  38.0890000  11.7210000
  30.8030000  31.6140000   4.6300000  31.7870000  31.6090000   3.6110000
  29.5590000  32.3430000   4.3980000  30.9730000  30.9340000   5.8430000
  31.5920000  32.2680000   2.4110000  32.6010000  31.1420000   3.7560000
  29.3880000  33.0200000   3.1740000  28.5830000  32.3480000   5.4020000
  29.9980000  30.9390000   6.8470000  31.7870000  30.4620000   5.9740000
  32.5760000  32.2520000   1.3730000  30.3610000  32.9930000   2.1840000
  28.5870000  33.5070000   3.0220000  27.7690000  32.8210000   5.2710000
  28.7540000  31.6680000   6.6150000  30.1680000  30.2620000   8.0710000
  32.3650000  32.8950000   0.2010000  33.3900000  31.7830000   1.5100000
  30.1890000  33.6530000   0.9310000  27.7690000  31.6730000   7.6340000
  29.1960000  30.2900000   9.0610000  30.9690000  29.7750000   8.2230000
  31.1470000  33.6100000  -0.0280000  33.0310000  32.8720000  -0.4750000
  29.3860000  34.1340000   0.7650000  26.9550000  32.1410000   7.4890000
  27.9650000  31.0140000   8.8350000  29.3670000  29.6300000  10.3150000
  31.0080000  34.0550000  -0.8560000  26.9810000  31.0310000   9.8720000
  28.4100000  29.6730000  11.2740000  30.1700000  29.1490000  10.4810000
  27.1920000  30.3870000  11.0440000  26.1660000  31.5000000   9.7360000
  28.5480000  29.2280000  12.1020000  26.5250000  30.4100000  11.7210000
  30.8270000  14.0230000  48.6000000  29.8350000  13.4510000  49.4320000
  32.0580000  14.5110000  49.2040000  30.6480000  14.1250000  47.2130000
  30.0140000  13.3500000  50.8070000  29.0300000  13.1300000  49.0430000
  32.2140000  14.3920000  50.5960000  33.0390000  15.0680000  48.3740000
  31.6290000  14.6820000  46.3820000  29.8340000  13.8080000  46.8400000
  29.0180000  12.7640000  51.6700000  31.2380000  13.8260000  51.4060000
  33.0160000  14.7090000  50.9970000  33.8520000  15.3850000  48.7460000
  32.8600000  15.1700000  46.9860000  31.4720000  14.8020000  44.9900000
  29.2160000  12.6670000  53.0050000  28.2080000  12.4400000  51.2950000
  31.4020000  13.7010000  52.8280000  33.8510000  15.7420000  46.1540000
  32.4480000  15.3670000  44.1810000  30.6710000  14.4840000  44.5900000
  30.4230000  13.1500000  53.5900000  28.5470000  12.2760000  53.5550000
  32.2020000  14.0070000  53.2400000  34.6570000  16.0630000  46.5440000
  33.6730000  15.8430000  44.7790000  32.2840000  15.4920000  42.7580000
  30.5440000  13.0850000  54.5310000  34.6690000  16.4290000  43.9160000
  33.2630000  16.0430000  41.9960000  31.4850000  15.1860000  42.3460000
  34.4710000  16.5260000  42.5810000  35.4790000  16.7530000  44.2920000
  33.1420000  16.1080000  41.0560000  35.1390000  16.9180000  42.0310000
  31.8570000   8.6170000  18.8730000  32.8490000   9.1880000  18.0410000
  30.6260000   8.1290000  18.2680000  32.0360000   8.5150000  20.2600000
  32.6700000   9.2890000  16.6660000  33.6540000   9.5090000  18.4300000
  30.4700000   8.2480000  16.8770000  29.6450000   7.5710000  19.0990000
  31.0550000   7.9570000  21.0910000  32.8500000   8.8320000  20.6330000
  33.6660000   9.8750000  15.8030000  31.4460000   8.8130000  16.0670000
  29.6680000   7.9300000  16.4760000  28.8320000   7.2540000  18.7260000
  29.8240000   7.4690000  20.4860000  31.2120000   7.8380000  22.4820000
  33.4680000   9.9720000  14.4670000  34.4760000  10.1990000  16.1780000
  31.2820000   8.9390000  14.6440000  28.8320000   6.8980000  21.3190000
  30.2360000   7.2730000  23.2920000  32.0130000   8.1550000  22.8830000
  32.2610000   9.4900000  13.8830000  34.1370000  10.3640000  13.9180000
  30.4820000   8.6320000  14.2330000  28.0270000   6.5770000  20.9290000
  29.0110000   6.7970000  22.6930000  30.4000000   7.1470000  24.7150000
  32.1400000   9.5550000  12.9420000  28.0150000   6.2110000  23.5560000
  29.4210000   6.5960000  25.4770000  31.1990000   7.4540000  25.1270000
  28.2130000   6.1140000  24.8920000  27.2050000   5.8870000  23.1810000
  29.5420000   6.5310000  26.4170000  27.5450000   5.7220000  25.4410000
  32.3580000  11.8930000  32.9290000  33.3500000  12.4650000  32.0970000
  31.1270000  11.4050000  32.3250000  32.5380000  11.7910000  34.3170000
  33.1710000  12.5660000  30.7230000  34.1550000  12.7860000  32.4870000
  30.9710000  11.5250000  30.9330000  30.1460000  10.8480000  33.1560000
  31.5560000  11.2340000  35.1480000  33.3510000  12.1090000  34.6890000
  34.1680000  13.1520000  29.8590000  31.9470000  12.0900000  30.1240000
  30.1700000  11.2070000  30.5330000  29.3330000  10.5310000  32.7830000
  30.3260000  10.7460000  34.5430000  31.7130000  11.1150000  36.5390000
  33.9700000  13.2490000  28.5240000  34.9770000  13.4760000  30.2350000
  31.7830000  12.2150000  28.7010000  29.3340000  10.1750000  35.3750000
  30.7370000  10.5490000  37.3490000  32.5140000  11.4320000  36.9400000
  32.7620000  12.7660000  27.9390000  34.6380000  13.6410000  27.9740000
  30.9830000  11.9090000  28.2890000  28.5280000   9.8530000  34.9860000
  29.5120000  10.0730000  36.7500000  30.9010000  10.4240000  38.7720000
  32.6410000  12.8310000  26.9990000  28.5160000   9.4880000  37.6130000
  29.9220000   9.8730000  39.5330000  31.7010000  10.7310000  39.1830000
  28.7140000   9.3900000  38.9490000  27.7070000   9.1640000  37.2380000
  30.0430000   9.8080000  40.4740000  28.0460000   8.9990000  39.4980000
  31.3280000  17.3000000  62.6570000  30.3360000  16.7280000  63.4890000
  32.5590000  17.7880000  63.2610000  31.1490000  17.4020000  61.2690000
  30.5150000  16.6270000  64.8640000  29.5310000  16.4070000  63.1000000
  32.7150000  17.6680000  64.6530000  33.5400000  18.3450000  62.4310000
  32.1300000  17.9590000  60.4390000  30.3350000  17.0850000  60.8970000
  29.5190000  16.0410000  65.7270000  31.7400000  17.1030000  65.4630000
  33.5170000  17.9860000  65.0540000  34.3540000  18.6620000  62.8030000
  33.3610000  18.4470000  61.0430000  31.9740000  18.0780000  59.0470000
  29.7170000  15.9440000  67.0620000  28.7090000  15.7170000  65.3520000
  31.9030000  16.9780000  66.8850000  34.3530000  19.0190000  60.2110000
  32.9490000  18.6440000  58.2370000  31.1720000  17.7610000  58.6460000
  30.9240000  16.4270000  67.6470000  29.0480000  15.5520000  67.6120000
  32.7030000  17.2840000  67.2970000  35.1580000  19.3400000  60.6000000
  34.1740000  19.1200000  58.8360000  32.7860000  18.7690000  56.8150000
  31.0450000  16.3620000  68.5870000  35.1700000  19.7060000  57.9730000
  33.7650000  19.3200000  56.0530000  31.9860000  18.4630000  56.4030000
  34.9720000  19.8030000  56.6380000  35.9800000  20.0300000  58.3480000
  33.6430000  19.3850000  55.1130000  35.6400000  20.1940000  56.0880000
  34.0970000  26.1260000  61.0430000  35.0890000  26.6970000  60.2110000
  32.8660000  25.6380000  60.4390000  34.2760000  26.0240000  62.4310000
  34.9100000  26.7980000  58.8360000  35.8940000  27.0180000  60.6000000
  32.7100000  25.7570000  59.0470000  31.8850000  25.0800000  61.2690000
  33.2950000  25.4660000  63.2610000  35.0900000  26.3410000  62.8030000
  35.9060000  27.3840000  57.9730000  33.6860000  26.3220000  58.2370000
  31.9080000  25.4390000  58.6460000  31.0710000  24.7630000  60.8970000
  32.0640000  24.9780000  62.6570000  33.4520000  25.3470000  64.6530000
  35.7080000  27.4810000  56.6380000  36.7160000  27.7080000  58.3480000
  33.5220000  26.4480000  56.8150000  31.0720000  24.4070000  63.4890000
  32.4760000  24.7820000  65.4630000  34.2530000  25.6650000  65.0540000
  34.5010000  26.9990000  56.0530000  36.3770000  27.8730000  56.0880000
  32.7220000  26.1410000  56.4030000  30.2670000  24.0860000  63.1000000
  31.2510000  24.3060000  64.8640000  32.6390000  24.6560000  66.8850000
  34.3800000  27.0640000  55.1130000  30.2550000  23.7200000  65.7270000
  31.6600000  24.1050000  67.6470000  33.4390000  24.9630000  67.2970000
  30.4530000  23.6230000  67.0620000  29.4450000  23.3960000  65.3520000
  31.7820000  24.0400000  68.5870000  29.7850000  23.2310000  67.6120000
  30.5610000  15.1480000  20.4860000  29.5690000  14.5760000  21.3190000
  31.7910000  15.6360000  21.0910000  30.3810000  15.2500000  19.0990000
  29.7470000  14.4750000  22.6930000  28.7630000  14.2550000  20.9290000
  31.9480000  15.5160000  22.4820000  32.7720000  16.1930000  20.2600000
  31.3620000  15.8070000  18.2680000  29.5680000  14.9330000  18.7260000
  28.7510000  13.8890000  23.5560000  30.9720000  14.9510000  23.2920000
  32.7490000  15.8340000  22.8830000  33.5860000  16.5100000  20.6330000
  32.5930000  16.2950000  18.8730000  31.2060000  15.9270000  16.8770000
  28.9490000  13.7920000  24.8920000  27.9410000  13.5650000  23.1810000
  31.1360000  14.8260000  24.7150000  33.5850000  16.8670000  18.0410000
  32.1820000  16.4920000  16.0670000  30.4040000  15.6090000  16.4760000
  30.1570000  14.2750000  25.4770000  28.2810000  13.4000000  25.4410000
  31.9350000  15.1320000  25.1270000  34.3900000  17.1880000  18.4300000
  33.4060000  16.9680000  16.6660000  32.0180000  16.6170000  14.6440000
  30.2780000  14.2100000  26.4170000  34.4020000  17.5540000  15.8030000
  32.9970000  17.1680000  13.8830000  31.2180000  16.3110000  14.2330000
  34.2040000  17.6510000  14.4670000  35.2120000  17.8780000  16.1780000
  32.8760000  17.2330000  12.9420000  34.8730000  18.0430000  13.9180000
  33.0940000  19.5720000  32.9290000  34.0860000  20.1440000  32.0970000
  31.8640000  19.0840000  32.3250000  33.2740000  19.4700000  34.3170000
  33.9080000  20.2450000  30.7230000  34.8920000  20.4650000  32.4870000
  31.7070000  19.2030000  30.9330000  30.8820000  18.5270000  33.1560000
  32.2930000  18.9130000  35.1480000  34.0870000  19.7870000  34.6890000
  34.9040000  20.8300000  29.8590000  32.6830000  19.7690000  30.1240000
  30.9060000  18.8860000  30.5330000  30.0690000  18.2100000  32.7830000
  31.0620000  18.4250000  34.5430000  32.4490000  18.7930000  36.5390000
  34.7060000  20.9280000  28.5240000  35.7130000  21.1540000  30.2350000
  32.5190000  19.8940000  28.7010000  30.0700000  17.8530000  35.3750000
  31.4730000  18.2280000  37.3490000  33.2500000  19.1110000  36.9400000
  33.4980000  20.4450000  27.9390000  35.3740000  21.3190000  27.9740000
  31.7190000  19.5880000  28.2890000  29.2650000  17.5320000  34.9860000
  30.2490000  17.7520000  36.7500000  31.6370000  18.1030000  38.7720000
  33.3770000  20.5100000  26.9990000  29.2530000  17.1660000  37.6130000
  30.6580000  17.5520000  39.5330000  32.4370000  18.4090000  39.1830000
  29.4500000  17.0690000  38.9490000  28.4430000  16.8420000  37.2380000
  30.7790000  17.4870000  40.4740000  28.7820000  16.6770000  39.4980000
  33.5960000  22.8490000  46.9860000  34.5880000  23.4200000  46.1540000
  32.3650000  22.3610000  46.3820000  33.7750000  22.7470000  48.3740000
  34.4090000  23.5210000  44.7790000  35.3930000  23.7420000  46.5440000
  32.2080000  22.4800000  44.9900000  31.3840000  21.8040000  47.2130000
  32.7940000  22.1900000  49.2040000  34.5890000  23.0640000  48.7460000
  35.4050000  24.1070000  43.9160000  33.1840000  23.0460000  44.1810000
  31.4070000  22.1630000  44.5900000  30.5700000  21.4860000  46.8400000
  31.5630000  21.7020000  48.6000000  32.9500000  22.0700000  50.5960000
  35.2070000  24.2050000  42.5810000  36.2150000  24.4310000  44.2920000
  33.0200000  23.1710000  42.7580000  30.5710000  21.1300000  49.4320000
  31.9740000  21.5050000  51.4060000  33.7520000  22.3880000  50.9970000
  33.9990000  23.7220000  41.9960000  35.8750000  24.5960000  42.0310000
  32.2210000  22.8640000  42.3460000  29.7660000  20.8090000  49.0430000
  30.7500000  21.0290000  50.8070000  32.1380000  21.3800000  52.8280000
  33.8780000  23.7870000  41.0560000  29.7540000  20.4430000  51.6700000
  31.1590000  20.8280000  53.5900000  32.9380000  21.6860000  53.2400000
  29.9520000  20.3460000  53.0050000  28.9440000  20.1190000  51.2950000
  31.2800000  20.7640000  54.5310000  29.2830000  19.9540000  53.5550000
  33.3290000  23.9740000  18.8730000  34.3210000  24.5450000  18.0410000
  32.0980000  23.4860000  18.2680000  33.5090000  23.8720000  20.2600000
  34.1420000  24.6460000  16.6660000  35.1260000  24.8660000  18.4300000
  31.9420000  23.6050000  16.8770000  31.1170000  22.9280000  19.0990000
  32.5270000  23.3140000  21.0910000  34.3220000  24.1890000  20.6330000
  35.1380000  25.2320000  15.8030000  32.9180000  24.1700000  16.0670000
  31.1410000  23.2880000  16.4760000  30.3040000  22.6110000  18.7260000
  31.2970000  22.8270000  20.4860000  32.6840000  23.1950000  22.4820000
  34.9410000  25.3290000  14.4670000  35.9480000  25.5560000  16.1780000
  32.7540000  24.2960000  14.6440000  30.3050000  22.2550000  21.3190000
  31.7080000  22.6300000  23.2920000  33.4850000  23.5130000  22.8830000
  33.7330000  24.8470000  13.8830000  35.6090000  25.7210000  13.9180000
  31.9540000  23.9890000  14.2330000  29.4990000  21.9340000  20.9290000
  30.4830000  22.1540000  22.6930000  31.8720000  22.5050000  24.7150000
  33.6120000  24.9120000  12.9420000  29.4870000  21.5680000  23.5560000
  30.8930000  21.9530000  25.4770000  32.6720000  22.8110000  25.1270000
  29.6850000  21.4710000  24.8920000  28.6780000  21.2440000  23.1810000
  31.0140000  21.8890000  26.4170000  29.0170000  21.0790000  25.4410000
  33.8300000  27.2510000  32.9290000  34.8220000  27.8220000  32.0970000
  32.6000000  26.7630000  32.3250000  34.0100000  27.1490000  34.3170000
  34.6440000  27.9230000  30.7230000  35.6280000  28.1430000  32.4870000
  32.4430000  26.8820000  30.9330000  31.6190000  26.2050000  33.1560000
  33.0290000  26.5910000  35.1480000  34.8230000  27.4660000  34.6890000
  35.6400000  28.5090000  29.8590000  33.4190000  27.4470000  30.1240000
  31.6420000  26.5640000  30.5330000  30.8050000  25.8880000  32.7830000
  31.7980000  26.1030000  34.5430000  33.1850000  26.4720000  36.5390000
  35.4420000  28.6060000  28.5240000  36.4500000  28.8330000  30.2350000
  33.2550000  27.5730000  28.7010000  30.8060000  25.5320000  35.3750000
  32.2090000  25.9070000  37.3490000  33.9870000  26.7890000  36.9400000
  34.2340000  28.1240000  27.9390000  36.1100000  28.9980000  27.9740000
  32.4560000  27.2660000  28.2890000  30.0010000  25.2110000  34.9860000
  30.9850000  25.4310000  36.7500000  32.3730000  25.7810000  38.7720000
  34.1130000  28.1890000  26.9990000  29.9890000  24.8450000  37.6130000
  31.3940000  25.2300000  39.5330000  33.1730000  26.0880000  39.1830000
  30.1870000  24.7480000  38.9490000  29.1790000  24.5210000  37.2380000
  31.5150000  25.1650000  40.4740000  29.5180000  24.3560000  39.4980000
  30.7950000  19.5500000   6.4300000  29.8030000  18.9780000   7.2620000
  32.0260000  20.0380000   7.0340000  30.6160000  19.6520000   5.0420000
  29.9820000  18.8770000   8.6370000  28.9980000  18.6570000   6.8720000
  32.1830000  19.9180000   8.4260000  33.0070000  20.5950000   6.2030000
  31.5970000  20.2090000   4.2110000  29.8020000  19.3340000   4.6700000
  28.9860000  18.2910000   9.5000000  31.2070000  19.3530000   9.2350000
  32.9840000  20.2360000   8.8260000  33.8210000  20.9120000   6.5760000
  32.8280000  20.6970000   4.8160000  31.4410000  20.3280000   2.8200000
  29.1840000  18.1940000  10.8350000  28.1760000  17.9670000   9.1240000
  31.3710000  19.2280000  10.6580000  33.8200000  21.2680000   3.9840000
  32.4170000  20.8940000   2.0100000  30.6390000  20.0110000   2.4190000
  30.3920000  18.6770000  11.4200000  28.5160000  17.8020000  11.3850000
  32.1700000  19.5340000  11.0700000  34.6250000  21.5900000   4.3730000
  33.6410000  21.3700000   2.6090000  32.2530000  21.0190000   0.5880000
  30.5130000  18.6120000  12.3600000  34.6370000  21.9550000   1.7460000
  33.2320000  21.5700000  -0.1740000  31.4530000  20.7130000   0.1760000
  34.4390000  22.0530000   0.4100000  35.4470000  22.2790000   2.1210000
  33.1110000  21.6350000  -1.1150000  35.1080000  22.4440000  -0.1390000
  32.2990000  29.3800000  48.6000000  31.3070000  28.8090000  49.4320000
  33.5300000  29.8680000  49.2040000  32.1200000  29.4820000  47.2130000
  31.4860000  28.7080000  50.8070000  30.5020000  28.4870000  49.0430000
  33.6860000  29.7490000  50.5960000  34.5110000  30.4250000  48.3740000
  33.1010000  30.0390000  46.3820000  31.3060000  29.1650000  46.8400000
  30.4900000  28.1220000  51.6700000  32.7100000  29.1830000  51.4060000
  34.4880000  30.0660000  50.9970000  35.3250000  30.7430000  48.7460000
  34.3320000  30.5270000  46.9860000  32.9450000  30.1590000  44.9900000
  30.6880000  28.0240000  53.0050000  29.6800000  27.7980000  51.2950000
  32.8740000  29.0580000  52.8280000  35.3240000  31.0990000  46.1540000
  33.9200000  30.7240000  44.1810000  32.1430000  29.8410000  44.5900000
  31.8950000  28.5070000  53.5900000  30.0190000  27.6330000  53.5550000
  33.6740000  29.3650000  53.2400000  36.1290000  31.4200000  46.5440000
  35.1450000  31.2000000  44.7790000  33.7570000  30.8490000  42.7580000
  32.0160000  28.4420000  54.5310000  36.1410000  31.7860000  43.9160000
  34.7360000  31.4010000  41.9960000  32.9570000  30.5430000  42.3460000
  35.9430000  31.8830000  42.5810000  36.9510000  32.1100000  44.2920000
  34.6140000  31.4650000  41.0560000  36.6110000  32.2750000  42.0310000
  34.8330000  33.8040000  61.0430000  35.8250000  34.3760000  60.2110000
  33.6020000  33.3160000  60.4390000  35.0120000  33.7020000  62.4310000
  35.6460000  34.4770000  58.8360000  36.6300000  34.6970000  60.6000000
  33.4460000  33.4360000  59.0470000  32.6210000  32.7590000  61.2690000
  34.0310000  33.1450000  63.2610000  35.8260000  34.0190000  62.8030000
  36.6420000  35.0630000  57.9730000  34.4220000  34.0010000  58.2370000
  32.6440000  33.1180000  58.6460000  31.8080000  32.4420000  60.8970000
  32.8000000  32.6570000  62.6570000  34.1880000  33.0260000  64.6530000
  36.4440000  35.1600000  56.6380000  37.4520000  35.3870000  58.3480000
  34.2580000  34.1260000  56.8150000  31.8090000  32.0850000  63.4890000
  33.2120000  32.4600000  65.4630000  34.9890000  33.3430000  65.0540000
  35.2370000  34.6770000  56.0530000  37.1130000  35.5520000  56.0880000
  33.4580000  33.8200000  56.4030000  31.0030000  31.7640000  63.1000000
  31.9870000  31.9840000  64.8640000  33.3760000  32.3350000  66.8850000
  35.1160000  34.7420000  55.1130000  30.9910000  31.3980000  65.7270000
  32.3970000  31.7840000  67.6470000  34.1750000  32.6410000  67.2970000
  31.1890000  31.3010000  67.0620000  30.1810000  31.0740000  65.3520000
  32.5180000  31.7190000  68.5870000  30.5210000  30.9100000  67.6120000
  32.0330000  30.5050000  20.4860000  31.0410000  29.9340000  21.3190000
  33.2640000  30.9930000  21.0910000  31.8530000  30.6070000  19.0990000
  31.2200000  29.8320000  22.6930000  30.2360000  29.6120000  20.9290000
  33.4200000  30.8740000  22.4820000  34.2450000  31.5500000  20.2600000
  32.8350000  31.1640000  18.2680000  31.0400000  30.2900000  18.7260000
  30.2240000  29.2470000  23.5560000  32.4440000  30.3080000  23.2920000
  34.2210000  31.1910000  22.8830000  35.0580000  31.8680000  20.6330000
  34.0650000  31.6520000  18.8730000  32.6780000  31.2840000  16.8770000
  30.4210000  29.1490000  24.8920000  29.4140000  28.9230000  23.1810000
  32.6080000  30.1830000  24.7150000  35.0570000  32.2240000  18.0410000
  33.6540000  31.8490000  16.0670000  31.8770000  30.9660000  16.4760000
  31.6290000  29.6320000  25.4770000  29.7530000  28.7580000  25.4410000
  33.4080000  30.4900000  25.1270000  35.8630000  32.5450000  18.4300000
  34.8790000  32.3250000  16.6660000  33.4900000  31.9740000  14.6440000
  31.7500000  29.5670000  26.4170000  35.8750000  32.9110000  15.8030000
  34.4690000  32.5250000  13.8830000  32.6900000  31.6680000  14.2330000
  35.6770000  33.0080000  14.4670000  36.6840000  33.2350000  16.1780000
  34.3480000  32.5900000  12.9420000  36.3450000  33.4000000  13.9180000
  32.5340000  33.7820000  34.5430000  31.5420000  33.2100000  35.3750000
  33.7650000  34.2700000  35.1480000  32.3550000  33.8840000  33.1560000
  31.7210000  33.1090000  36.7500000  30.7370000  32.8890000  34.9860000
  33.9210000  34.1500000  36.5390000  34.7460000  34.8270000  34.3170000
  33.3360000  34.4410000  32.3250000  31.5410000  33.5670000  32.7830000
  30.7250000  32.5230000  37.6130000  32.9450000  33.5850000  37.3490000
  34.7230000  34.4680000  36.9400000  35.5590000  35.1440000  34.6890000
  34.5670000  34.9290000  32.9290000  33.1790000  34.5610000  30.9330000
  30.9230000  32.4260000  38.9490000  29.9150000  32.1990000  37.2380000
  33.1090000  33.4600000  38.7720000  35.5590000  35.5010000  32.0970000
  34.1550000  35.1260000  30.1240000  32.3780000  34.2430000  30.5330000
  32.1300000  32.9090000  39.5330000  30.2540000  32.0350000  39.4980000
  33.9090000  33.7660000  39.1830000  36.3640000  35.8220000  32.4870000
  35.3800000  35.6020000  30.7230000  33.9910000  35.2510000  28.7010000
  32.2510000  32.8440000  40.4740000  36.3760000  36.1880000  29.8590000
  34.9700000  35.8020000  27.9390000  33.1920000  34.9450000  28.2890000
  36.1780000  36.2850000  28.5240000  37.1860000  36.5120000  30.2350000
  34.8490000  35.8670000  26.9990000  36.8460000  36.6770000  27.9740000
  33.0350000  37.0590000  48.6000000  32.0430000  36.4870000  49.4320000
  34.2660000  37.5470000  49.2040000  32.8560000  37.1610000  47.2130000
  32.2220000  36.3860000  50.8070000  31.2380000  36.1660000  49.0430000
  34.4230000  37.4270000  50.5960000  35.2470000  38.1040000  48.3740000
  33.8370000  37.7180000  46.3820000  32.0420000  36.8440000  46.8400000
  31.2260000  35.8000000  51.6700000  33.4470000  36.8620000  51.4060000
  35.2240000  37.7450000  50.9970000  36.0610000  38.4210000  48.7460000
  35.0680000  38.2060000  46.9860000  33.6810000  37.8370000  44.9900000
  31.4240000  35.7030000  53.0050000  30.4160000  35.4760000  51.2950000
  33.6100000  36.7370000  52.8280000  36.0600000  38.7780000  46.1540000
  34.6570000  38.4030000  44.1810000  32.8790000  37.5200000  44.5900000
  32.6310000  36.1860000  53.5900000  30.7560000  35.3110000  53.5550000
  34.4100000  37.0430000  53.2400000  36.8650000  39.0990000  46.5440000
  35.8810000  38.8790000  44.7790000  34.4930000  38.5280000  42.7580000
  32.7530000  36.1210000  54.5310000  36.8770000  39.4650000  43.9160000
  35.4720000  39.0790000  41.9960000  33.6930000  38.2220000  42.3460000
  36.6790000  39.5620000  42.5810000  37.6870000  39.7890000  44.2920000
  35.3510000  39.1440000  41.0560000  37.3480000  39.9530000  42.0310000
  35.5690000  41.4830000  61.0430000  36.5610000  42.0540000  60.2110000
  34.3380000  40.9950000  60.4390000  35.7490000  41.3810000  62.4310000
  36.3820000  42.1550000  58.8360000  37.3660000  42.3760000  60.6000000
  34.1820000  41.1140000  59.0470000  33.3570000  40.4380000  61.2690000
  34.7670000  40.8240000  63.2610000  36.5620000  41.6980000  62.8030000
  37.3780000  42.7410000  57.9730000  35.1580000  41.6800000  58.2370000
  33.3810000  40.7970000  58.6460000  32.5440000  40.1200000  60.8970000
  33.5370000  40.3360000  62.6570000  34.9240000  40.7040000  64.6530000
  37.1800000  42.8390000  56.6380000  38.1880000  43.0650000  58.3480000
  34.9940000  41.8050000  56.8150000  32.5450000  39.7640000  63.4890000
  33.9480000  40.1390000  65.4630000  35.7250000  41.0220000  65.0540000
  35.9730000  42.3560000  56.0530000  37.8490000  43.2300000  56.0880000
  34.1940000  41.4980000  56.4030000  31.7390000  39.4430000  63.1000000
  32.7230000  39.6630000  64.8640000  34.1120000  40.0140000  66.8850000
  35.8520000  42.4210000  55.1130000  31.7270000  39.0770000  65.7270000
  33.1330000  39.4630000  67.6470000  34.9110000  40.3200000  67.2970000
  31.9250000  38.9800000  67.0620000  30.9170000  38.7530000  65.3520000
  33.2540000  39.3980000  68.5870000  31.2570000  38.5880000  67.6120000
  33.5640000  28.3760000   4.8160000  34.5560000  28.9470000   3.9840000
  32.3330000  27.8880000   4.2110000  33.7430000  28.2740000   6.2030000
  34.3770000  29.0480000   2.6090000  35.3610000  29.2680000   4.3730000
  32.1770000  28.0070000   2.8200000  31.3520000  27.3300000   5.0420000
  32.7620000  27.7160000   7.0340000  34.5570000  28.5910000   6.5760000
  35.3730000  29.6340000   1.7460000  33.1530000  28.5720000   2.0100000
  31.3750000  27.6890000   2.4190000  30.5390000  27.0130000   4.6700000
  31.5310000  27.2280000   6.4300000  32.9190000  27.5970000   8.4260000
  35.1750000  29.7310000   0.4100000  36.1830000  29.9580000   2.1210000
  32.9890000  28.6980000   0.5880000  30.5400000  26.6570000   7.2620000
  31.9430000  27.0320000   9.2350000  33.7200000  27.9140000   8.8260000
  33.9680000  29.2490000  -0.1740000  35.8440000  30.1230000  -0.1390000
  32.1890000  28.3910000   0.1760000  29.7340000  26.3360000   6.8720000
  30.7180000  26.5560000   8.6370000  32.1070000  26.9060000  10.6580000
  33.8470000  29.3130000  -1.1150000  29.7220000  25.9700000   9.5000000
  31.1280000  26.3550000  11.4200000  32.9060000  27.2130000  11.0700000
  29.9200000  25.8730000  10.8350000  28.9120000  25.6460000   9.1240000
  31.2490000  26.2900000  12.3600000  29.2520000  25.4810000  11.3850000
  34.8010000  39.3310000  18.8730000  35.7930000  39.9030000  18.0410000
  33.5710000  38.8430000  18.2680000  34.9810000  39.2290000  20.2600000
  35.6150000  40.0040000  16.6660000  36.5990000  40.2240000  18.4300000
  33.4140000  38.9620000  16.8770000  32.5890000  38.2860000  19.0990000
  34.0000000  38.6720000  21.0910000  35.7940000  39.5460000  20.6330000
  36.6110000  40.5890000  15.8030000  34.3900000  39.5280000  16.0670000
  32.6130000  38.6450000  16.4760000  31.7760000  37.9680000  18.7260000
  32.7690000  38.1840000  20.4860000  34.1560000  38.5520000  22.4820000
  36.4130000  40.6870000  14.4670000  37.4210000  40.9130000  16.1780000
  34.2260000  39.6530000  14.6440000  31.7770000  37.6120000  21.3190000
  33.1800000  37.9870000  23.2920000  34.9570000  38.8700000  22.8830000
  35.2050000  40.2040000  13.8830000  37.0810000  41.0780000  13.9180000
  33.4270000  39.3470000  14.2330000  30.9720000  37.2910000  20.9290000
  31.9560000  37.5110000  22.6930000  33.3440000  37.8620000  24.7150000
  35.0840000  40.2690000  12.9420000  30.9600000  36.9250000  23.5560000
  32.3650000  37.3110000  25.4770000  34.1440000  38.1680000  25.1270000
  31.1580000  36.8280000  24.8920000  30.1500000  36.6010000  23.1810000
  32.4860000  37.2460000  26.4170000  30.4890000  36.4360000  25.4410000
  35.3030000  42.6080000  32.9290000  36.2950000  43.1790000  32.0970000
  34.0720000  42.1200000  32.3250000  35.4820000  42.5060000  34.3170000
  36.1160000  43.2800000  30.7230000  37.1000000  43.5000000  32.4870000
  33.9150000  42.2390000  30.9330000  33.0910000  41.5620000  33.1560000
  34.5010000  41.9490000  35.1480000  36.2960000  42.8230000  34.6890000
  37.1120000  43.8660000  29.8590000  34.8910000  42.8050000  30.1240000
  33.1140000  41.9220000  30.5330000  32.2770000  41.2450000  32.7830000
  33.2700000  41.4610000  34.5430000  34.6570000  41.8290000  36.5390000
  36.9140000  43.9630000  28.5240000  37.9220000  44.1900000  30.2350000
  34.7280000  42.9300000  28.7010000  32.2780000  40.8890000  35.3750000
  33.6810000  41.2640000  37.3490000  35.4590000  42.1470000  36.9400000
  35.7070000  43.4810000  27.9390000  37.5820000  44.3550000  27.9740000
  33.9280000  42.6230000  28.2890000  31.4730000  40.5680000  34.9860000
  32.4570000  40.7880000  36.7500000  33.8450000  41.1390000  38.7720000
  35.5850000  43.5460000  26.9990000  31.4610000  40.2020000  37.6130000
  32.8660000  40.5870000  39.5330000  34.6450000  41.4450000  39.1830000
  31.6590000  40.1050000  38.9490000  30.6510000  39.8780000  37.2380000
  32.9870000  40.5230000  40.4740000  30.9900000  39.7130000  39.4980000
  34.3000000  36.0540000   4.8160000  35.2920000  36.6260000   3.9840000
  33.0690000  35.5660000   4.2110000  34.4800000  35.9520000   6.2030000
  35.1130000  36.7270000   2.6090000  36.0970000  36.9470000   4.3730000
  32.9130000  35.6860000   2.8200000  32.0880000  35.0090000   5.0420000
  33.4980000  35.3950000   7.0340000  35.2930000  36.2690000   6.5760000
  36.1090000  37.3130000   1.7460000  33.8890000  36.2510000   2.0100000
  32.1120000  35.3680000   2.4190000  31.2750000  34.6920000   4.6700000
  32.2680000  34.9070000   6.4300000  33.6550000  35.2750000   8.4260000
  35.9110000  37.4100000   0.4100000  36.9190000  37.6370000   2.1210000
  33.7250000  36.3760000   0.5880000  31.2760000  34.3350000   7.2620000
  32.6790000  34.7100000   9.2350000  34.4560000  35.5930000   8.8260000
  34.7040000  36.9270000  -0.1740000  36.5800000  37.8020000  -0.1390000
  32.9250000  36.0700000   0.1760000  30.4700000  34.0140000   6.8720000
  31.4540000  34.2340000   8.6370000  32.8430000  34.5850000  10.6580000
  34.5830000  36.9920000  -1.1150000  30.4580000  33.6480000   9.5000000
  31.8640000  34.0340000  11.4200000  33.6430000  34.8910000  11.0700000
  30.6560000  33.5510000  10.8350000  29.6490000  33.3240000   9.1240000
  31.9850000  33.9690000  12.3600000  29.9880000  33.1590000  11.3850000
  35.8040000  45.8850000  46.9860000  36.7960000  46.4560000  46.1540000
  34.5730000  45.3970000  46.3820000  35.9830000  45.7830000  48.3740000
  36.6170000  46.5570000  44.7790000  37.6010000  46.7770000  46.5440000
  34.4170000  45.5160000  44.9900000  33.5920000  44.8390000  47.2130000
  35.0020000  45.2250000  49.2040000  36.7970000  46.1000000  48.7460000
  37.6130000  47.1430000  43.9160000  35.3930000  46.0810000  44.1810000
  33.6150000  45.1980000  44.5900000  32.7790000  44.5220000  46.8400000
  33.7710000  44.7370000  48.6000000  35.1590000  45.1060000  50.5960000
  37.4150000  47.2400000  42.5810000  38.4230000  47.4670000  44.2920000
  35.2290000  46.2070000  42.7580000  32.7790000  44.1660000  49.4320000
  34.1830000  44.5410000  51.4060000  35.9600000  45.4240000  50.9970000
  36.2080000  46.7580000  41.9960000  38.0840000  47.6320000  42.0310000
  34.4290000  45.9000000  42.3460000  31.9740000  43.8450000  49.0430000
  32.9580000  44.0650000  50.8070000  34.3470000  44.4150000  52.8280000
  36.0870000  46.8230000  41.0560000  31.9620000  43.4790000  51.6700000
  33.3680000  43.8640000  53.5900000  35.1460000  44.7220000  53.2400000
  32.1600000  43.3820000  53.0050000  31.1520000  43.1550000  51.2950000
  33.4890000  43.7990000  54.5310000  31.4920000  42.9900000  53.5550000
  34.2730000  48.0140000  62.6570000  33.2810000  47.4430000  63.4890000
  35.5030000  48.5020000  63.2610000  34.0930000  48.1160000  61.2690000
  33.4590000  47.3420000  64.8640000  32.4750000  47.1210000  63.1000000
  35.6600000  48.3830000  64.6530000  36.4850000  49.0590000  62.4310000
  35.0740000  48.6730000  60.4390000  33.2800000  47.7990000  60.8970000
  32.4630000  46.7560000  65.7270000  34.6840000  47.8170000  65.4630000
  36.4610000  48.7000000  65.0540000  37.2980000  49.3770000  62.8030000
  36.3050000  49.1610000  61.0430000  34.9180000  48.7930000  59.0470000
  32.6610000  46.6580000  67.0620000  31.6540000  46.4320000  65.3520000
  34.8480000  47.6920000  66.8850000  37.2970000  49.7330000  60.2110000
  35.8940000  49.3580000  58.2370000  34.1170000  48.4750000  58.6460000
  33.8690000  47.1410000  67.6470000  31.9930000  46.2670000  67.6120000
  35.6480000  47.9990000  67.2970000  38.1020000  50.0540000  60.6000000
  37.1180000  49.8340000  58.8360000  35.7300000  49.4830000  56.8150000
  33.9900000  47.0760000  68.5870000  38.1150000  50.4200000  57.9730000
  36.7090000  50.0350000  56.0530000  34.9300000  49.1770000  56.4030000
  37.9170000  50.5170000  56.6380000  38.9240000  50.7440000  58.3480000
  36.5880000  50.0990000  55.1130000  38.5850000  50.9090000  56.0880000
  29.3230000   4.1920000   6.4300000  28.3310000   3.6210000   7.2620000
  30.5540000   4.6800000   7.0340000  29.1440000   4.2940000   5.0420000
  28.5100000   3.5200000   8.6370000  27.5260000   3.3000000   6.8720000
  30.7100000   4.5610000   8.4260000  31.5350000   5.2380000   6.2030000
  30.1250000   4.8520000   4.2110000  28.3300000   3.9770000   4.6700000
  27.5140000   2.9340000   9.5000000  29.7340000   3.9960000   9.2350000
  31.5120000   4.8790000   8.8260000  32.3490000   5.5550000   6.5760000
  31.3560000   5.3400000   4.8160000  29.9680000   4.9710000   2.8200000
  27.7120000   2.8370000  10.8350000  26.7040000   2.6100000   9.1240000
  29.8980000   3.8700000  10.6580000  32.3480000   5.9110000   3.9840000
  30.9440000   5.5360000   2.0100000  29.1670000   4.6540000   2.4190000
  28.9190000   3.3190000  11.4200000  27.0430000   2.4450000  11.3850000
  30.6980000   4.1770000  11.0700000  33.1530000   6.2320000   4.3730000
  32.1690000   6.0120000   2.6090000  30.7810000   5.6620000   0.5880000
  29.0400000   3.2540000  12.3600000  33.1650000   6.5980000   1.7460000
  31.7600000   6.2130000  -0.1740000  29.9810000   5.3550000   0.1760000
  32.9670000   6.6950000   0.4100000  33.9750000   6.9220000   2.1210000
  31.6380000   6.2780000  -1.1150000  33.6350000   7.0870000  -0.1390000
  32.0920000  13.0180000   4.8160000  33.0840000  13.5900000   3.9840000
  30.8610000  12.5300000   4.2110000  32.2710000  12.9160000   6.2030000
  32.9050000  13.6910000   2.6090000  33.8890000  13.9110000   4.3730000
  30.7050000  12.6500000   2.8200000  29.8800000  11.9730000   5.0420000
  31.2900000  12.3590000   7.0340000  33.0850000  13.2340000   6.5760000
  33.9010000  14.2770000   1.7460000  31.6810000  13.2150000   2.0100000
  29.9030000  12.3320000   2.4190000  29.0660000  11.6560000   4.6700000
  30.0590000  11.8710000   6.4300000  31.4470000  12.2400000   8.4260000
  33.7030000  14.3740000   0.4100000  34.7110000  14.6010000   2.1210000
  31.5170000  13.3400000   0.5880000  29.0670000  11.3000000   7.2620000
  30.4710000  11.6740000   9.2350000  32.2480000  12.5570000   8.8260000
  32.4960000  13.8910000  -0.1740000  34.3720000  14.7660000  -0.1390000
  30.7170000  13.0340000   0.1760000  28.2620000  10.9780000   6.8720000
  29.2460000  11.1980000   8.6370000  30.6340000  11.5490000  10.6580000
  32.3750000  13.9560000  -1.1150000  28.2500000  10.6130000   9.5000000
  29.6550000  10.9980000  11.4200000  31.4340000  11.8550000  11.0700000
  28.4480000  10.5150000  10.8350000  27.4400000  10.2890000   9.1240000
  29.7770000  10.9330000  12.3600000  27.7800000  10.1240000  11.3850000
   6.9390000  42.5700000  18.6870000   7.9230000  42.5650000  17.6680000
   5.6950000  43.2990000  18.4550000   7.1100000  41.8890000  19.9000000
   7.7280000  43.2240000  16.4680000   8.7380000  42.0970000  17.8130000
   5.5240000  43.9750000  17.2310000   4.7190000  43.3040000  19.4590000
   6.1340000  41.8950000  20.9040000   7.9230000  41.4170000  20.0310000
   8.7120000  43.2070000  15.4300000   6.4970000  43.9480000  16.2410000
   4.7230000  44.4630000  17.0790000   3.9060000  43.7760000  19.3280000
   4.8900000  42.6240000  20.6720000   6.3040000  41.2180000  22.1280000
   8.5010000  43.8510000  14.2580000   9.5270000  42.7380000  15.5670000
   6.3250000  44.6080000  14.9870000   3.9050000  42.6290000  21.6910000
   5.3320000  41.2450000  23.1180000   7.1050000  40.7300000  22.2800000
   7.2830000  44.5650000  14.0290000   9.1670000  43.8270000  13.5820000
   5.5230000  45.0890000  14.8220000   3.0910000  43.0960000  21.5460000
   4.1010000  41.9690000  22.8920000   5.5040000  40.5850000  24.3720000
   7.1450000  45.0100000  13.2010000   3.1170000  41.9860000  23.9290000
   4.5460000  40.6280000  25.3300000   6.3060000  40.1040000  24.5380000
   3.3280000  41.3430000  25.1010000   2.3020000  42.4550000  23.7930000
   4.6840000  40.1830000  26.1580000   2.6610000  41.3660000  25.7770000
   7.4400000  45.8460000  32.7440000   8.4250000  45.8410000  31.7250000
   6.1960000  46.5760000  32.5120000   7.6110000  45.1660000  33.9570000
   8.2290000  46.5010000  30.5240000   9.2390000  45.3740000  31.8700000
   6.0260000  47.2520000  31.2880000   5.2200000  46.5810000  33.5160000
   6.6350000  45.1710000  34.9610000   8.4250000  44.6940000  34.0880000
   9.2130000  46.4840000  29.4870000   6.9980000  47.2250000  30.2980000
   5.2250000  47.7400000  31.1360000   4.4070000  47.0530000  33.3850000
   5.3910000  45.9010000  34.7290000   6.8060000  44.4950000  36.1850000
   9.0020000  47.1270000  28.3150000  10.0280000  46.0150000  29.6230000
   6.8270000  47.8850000  29.0440000   4.4070000  45.9050000  35.7480000
   5.8330000  44.5220000  37.1750000   7.6070000  44.0070000  36.3370000
   7.7840000  47.8420000  28.0860000   9.6690000  47.1040000  27.6390000
   6.0240000  48.3660000  28.8780000   3.5920000  46.3730000  35.6030000
   4.6020000  45.2460000  36.9480000   6.0050000  43.8620000  38.4290000
   7.6460000  48.2870000  27.2580000   3.6180000  45.2630000  37.9860000
   5.0470000  43.9050000  39.3870000   6.8070000  43.3810000  38.5940000
   3.8290000  44.6200000  39.1580000   2.8030000  45.7320000  37.8490000
   5.1860000  43.4600000  40.2150000   3.1630000  44.6430000  39.8340000
   8.4430000  52.4000000  60.8580000   9.4270000  52.3950000  59.8380000
   7.1990000  53.1290000  60.6260000   8.6130000  51.7200000  62.0710000
   9.2320000  53.0540000  58.6380000  10.2410000  51.9270000  59.9830000
   7.0280000  53.8060000  59.4010000   6.2230000  53.1340000  61.6290000
   7.6380000  51.7250000  63.0740000   9.4270000  51.2470000  62.2010000
  10.2160000  53.0380000  57.6010000   8.0010000  53.7790000  58.4120000
   6.2270000  54.2930000  59.2490000   5.4090000  53.6070000  61.4990000
   6.3940000  52.4540000  62.8420000   7.8080000  51.0480000  64.2990000
  10.0050000  53.6810000  56.4280000  11.0300000  52.5690000  57.7370000
   7.8290000  54.4390000  57.1580000   5.4090000  52.4590000  63.8620000
   6.8350000  51.0760000  65.2880000   8.6090000  50.5610000  64.4500000
   8.7870000  54.3960000  56.1990000  10.6710000  53.6580000  55.7520000
   7.0260000  54.9200000  56.9920000   4.5950000  52.9270000  63.7170000
   5.6050000  51.8000000  65.0620000   7.0070000  50.4160000  66.5420000
   8.6480000  54.8410000  55.3710000   4.6210000  51.8170000  66.0990000
   6.0500000  50.4590000  67.5010000   7.8100000  49.9350000  66.7080000
   4.8320000  51.1730000  67.2720000   3.8060000  52.2860000  65.9630000
   6.1880000  50.0140000  68.3290000   4.1650000  51.1960000  67.9480000
   3.9950000  11.8550000  18.6870000   4.9790000  11.8500000  17.6680000
   2.7500000  12.5840000  18.4550000   4.1650000  11.1750000  19.9000000
   4.7830000  12.5090000  16.4680000   5.7930000  11.3830000  17.8130000
   2.5800000  13.2610000  17.2310000   1.7750000  12.5890000  19.4590000
   3.1890000  11.1800000  20.9040000   4.9790000  10.7030000  20.0310000
   5.7670000  12.4930000  15.4300000   3.5530000  13.2340000  16.2410000
   1.7790000  13.7490000  17.0790000   0.9610000  13.0620000  19.3280000
   1.9450000  11.9090000  20.6720000   3.3600000  10.5030000  22.1280000
   5.5560000  13.1360000  14.2580000   6.5820000  12.0240000  15.5670000
   3.3810000  13.8940000  14.9870000   0.9610000  11.9140000  21.6910000
   2.3870000  10.5310000  23.1180000   4.1610000  10.0160000  22.2800000
   4.3380000  13.8510000  14.0290000   6.2230000  13.1130000  13.5820000
   2.5780000  14.3750000  14.8220000   0.1470000  12.3820000  21.5460000
   1.1570000  11.2550000  22.8920000   2.5590000   9.8710000  24.3720000
   4.2000000  14.2960000  13.2010000   0.1720000  11.2720000  23.9290000
   1.6010000   9.9140000  25.3300000   3.3620000   9.3900000  24.5380000
   0.3840000  10.6280000  25.1010000  -0.6420000  11.7410000  23.7930000
   1.7400000   9.4690000  26.1580000  -0.2830000  10.6520000  25.7770000
   2.9480000  18.4630000  48.7860000   1.9630000  18.4680000  49.8050000
   4.1920000  17.7340000  49.0180000   2.7770000  19.1430000  47.5720000
   2.1590000  17.8090000  51.0050000   1.1490000  18.9360000  49.6600000
   4.3620000  17.0570000  50.2420000   5.1680000  17.7290000  48.0140000
   3.7530000  19.1380000  46.5690000   1.9640000  19.6160000  47.4420000
   1.1750000  17.8250000  52.0430000   3.3900000  17.0840000  51.2310000
   5.1640000  16.5700000  50.3940000   5.9810000  17.2560000  48.1450000
   4.9970000  18.4090000  46.8010000   3.5830000  19.8150000  45.3440000
   1.3860000  17.1820000  53.2150000   0.3600000  18.2940000  51.9060000
   3.5620000  16.4240000  52.4850000   5.9810000  18.4040000  45.7820000
   4.5550000  19.7870000  44.3550000   2.7810000  20.3020000  45.1930000
   2.6040000  16.4680000  53.4440000   0.7200000  17.2050000  53.8910000
   4.3640000  15.9430000  52.6510000   6.7960000  17.9360000  45.9260000
   5.7860000  19.0630000  44.5810000   4.3830000  20.4470000  43.1010000
   2.7420000  16.0220000  54.2720000   6.7700000  19.0460000  43.5440000
   5.3410000  20.4040000  42.1420000   3.5810000  20.9280000  42.9350000
   6.5590000  19.6900000  42.3710000   7.5850000  18.5770000  43.6800000
   5.2030000  20.8490000  41.3140000   7.2250000  19.6670000  41.6950000
   5.4980000  21.6860000  60.8580000   6.4830000  21.6810000  59.8380000
   4.2540000  22.4150000  60.6260000   5.6690000  21.0060000  62.0710000
   6.2870000  22.3400000  58.6380000   7.2970000  21.2130000  59.9830000
   4.0840000  23.0920000  59.4010000   3.2780000  22.4200000  61.6290000
   4.6930000  21.0110000  63.0740000   6.4830000  20.5330000  62.2010000
   7.2710000  22.3230000  57.6010000   5.0560000  23.0640000  58.4120000
   3.2830000  23.5790000  59.2490000   2.4650000  22.8920000  61.4990000
   3.4490000  21.7400000  62.8420000   4.8640000  20.3340000  64.2990000
   7.0600000  22.9670000  56.4280000   8.0860000  21.8540000  57.7370000
   4.8850000  23.7240000  57.1580000   2.4650000  21.7450000  63.8620000
   3.8910000  20.3610000  65.2880000   5.6650000  19.8460000  64.4500000
   5.8420000  23.6810000  56.1990000   7.7270000  22.9430000  55.7520000
   4.0820000  24.2050000  56.9920000   1.6500000  22.2120000  63.7170000
   2.6600000  21.0850000  65.0620000   4.0630000  19.7010000  66.5420000
   5.7040000  24.1260000  55.3710000   1.6760000  21.1020000  66.0990000
   3.1050000  19.7440000  67.5010000   4.8650000  19.2200000  66.7080000
   1.8870000  20.4590000  67.2720000   0.8610000  21.5710000  65.9630000
   3.2440000  19.2990000  68.3290000   1.2210000  20.4820000  67.9480000
   3.6840000  26.1420000  48.7860000   2.7000000  26.1460000  49.8050000
   4.9280000  25.4120000  49.0180000   3.5130000  26.8220000  47.5720000
   2.8950000  25.4870000  51.0050000   1.8850000  26.6140000  49.6600000
   5.0980000  24.7360000  50.2420000   5.9040000  25.4070000  48.0140000
   4.4890000  26.8170000  46.5690000   2.7000000  27.2940000  47.4420000
   1.9110000  25.5040000  52.0430000   4.1260000  24.7630000  51.2310000
   5.9000000  24.2480000  50.3940000   6.7170000  24.9350000  48.1450000
   5.7330000  26.0870000  46.8010000   4.3190000  27.4930000  45.3440000
   2.1220000  24.8610000  53.2150000   1.0960000  25.9730000  51.9060000
   4.2980000  24.1030000  52.4850000   6.7180000  26.0820000  45.7820000
   5.2910000  27.4660000  44.3550000   3.5170000  27.9810000  45.1930000
   3.3400000  24.1460000  53.4440000   1.4560000  24.8840000  53.8910000
   5.1000000  23.6220000  52.6510000   7.5320000  25.6150000  45.9260000
   6.5220000  26.7420000  44.5810000   5.1190000  28.1260000  43.1010000
   3.4780000  23.7010000  54.2720000   7.5060000  26.7250000  43.5440000
   6.0770000  28.0830000  42.1420000   4.3170000  28.6070000  42.9350000
   7.2950000  27.3680000  42.3710000   8.3210000  26.2560000  43.6800000
   5.9390000  28.5280000  41.3140000   7.9610000  27.3450000  41.6950000
   4.7310000  19.5340000  18.6870000   5.7150000  19.5290000  17.6680000
   3.4870000  20.2630000  18.4550000   4.9010000  18.8540000  19.9000000
   5.5190000  20.1880000  16.4680000   6.5290000  19.0610000  17.8130000
   3.3160000  20.9400000  17.2310000   2.5110000  20.2680000  19.4590000
   3.9250000  18.8590000  20.9040000   5.7150000  18.3810000  20.0310000
   6.5040000  20.1710000  15.4300000   4.2890000  20.9120000  16.2410000
   2.5150000  21.4270000  17.0790000   1.6970000  20.7410000  19.3280000
   2.6810000  19.5880000  20.6720000   4.0960000  18.1820000  22.1280000
   6.2920000  20.8150000  14.2580000   7.3180000  19.7020000  15.5670000
   4.1170000  21.5720000  14.9870000   1.6970000  19.5930000  21.6910000
   3.1230000  18.2090000  23.1180000   4.8970000  17.6950000  22.2800000
   5.0750000  21.5290000  14.0290000   6.9590000  20.7920000  13.5820000
   3.3140000  22.0530000  14.8220000   0.8830000  20.0600000  21.5460000
   1.8930000  18.9340000  22.8920000   3.2950000  17.5490000  24.3720000
   4.9360000  21.9740000  13.2010000   0.9080000  18.9500000  23.9290000
   2.3370000  17.5920000  25.3300000   4.0980000  17.0680000  24.5380000
   1.1200000  18.3070000  25.1010000   0.0940000  19.4190000  23.7930000
   2.4760000  17.1470000  26.1580000   0.4530000  18.3300000  25.7770000
   5.2320000  22.8110000  32.7440000   6.2160000  22.8060000  31.7250000
   3.9880000  23.5400000  32.5120000   5.4030000  22.1300000  33.9570000
   6.0210000  23.4650000  30.5240000   7.0310000  22.3380000  31.8700000
   3.8170000  24.2160000  31.2880000   3.0120000  23.5450000  33.5160000
   4.4270000  22.1360000  34.9610000   6.2160000  21.6580000  34.0880000
   7.0050000  23.4480000  29.4870000   4.7900000  24.1890000  30.2980000
   3.0160000  24.7040000  31.1360000   2.1980000  24.0170000  33.3850000
   3.1830000  22.8650000  34.7290000   4.5970000  21.4590000  36.1850000
   6.7940000  24.0920000  28.3150000   7.8200000  22.9790000  29.6230000
   4.6180000  24.8490000  29.0440000   2.1980000  22.8700000  35.7480000
   3.6250000  21.4860000  37.1750000   5.3980000  20.9710000  36.3370000
   5.5760000  24.8060000  28.0860000   7.4600000  24.0680000  27.6390000
   3.8160000  25.3300000  28.8780000   1.3840000  23.3370000  35.6030000
   2.3940000  22.2100000  36.9480000   3.7960000  20.8260000  38.4290000
   5.4370000  25.2510000  27.2580000   1.4100000  22.2270000  37.9860000
   2.8390000  20.8690000  39.3870000   4.5990000  20.3450000  38.5940000
   1.6210000  21.5840000  39.1580000   0.5950000  22.6960000  37.8490000
   2.9770000  20.4240000  40.2150000   0.9540000  21.6070000  39.8340000
   6.2340000  29.3640000  60.8580000   7.2190000  29.3590000  59.8380000
   4.9900000  30.0930000  60.6260000   6.4050000  28.6840000  62.0710000
   7.0230000  30.0190000  58.6380000   8.0330000  28.8920000  59.9830000
   4.8200000  30.7700000  59.4010000   4.0150000  30.0990000  61.6290000
   5.4290000  28.6890000  63.0740000   7.2190000  28.2120000  62.2010000
   8.0070000  30.0020000  57.6010000   5.7920000  30.7430000  58.4120000
   4.0190000  31.2580000  59.2490000   3.2010000  30.5710000  61.4990000
   4.1850000  29.4180000  62.8420000   5.6000000  28.0130000  64.2990000
   7.7960000  30.6450000  56.4280000   8.8220000  29.5330000  57.7370000
   5.6210000  31.4030000  57.1580000   3.2010000  29.4230000  63.8620000
   4.6270000  28.0400000  65.2880000   6.4010000  27.5250000  64.4500000
   6.5780000  31.3600000  56.1990000   8.4630000  30.6220000  55.7520000
   4.8180000  31.8840000  56.9920000   2.3870000  29.8910000  63.7170000
   3.3960000  28.7640000  65.0620000   4.7990000  27.3800000  66.5420000
   6.4400000  31.8050000  55.3710000   2.4120000  28.7810000  66.0990000
   3.8410000  27.4230000  67.5010000   5.6020000  26.8990000  66.7080000
   2.6230000  28.1370000  67.2720000   1.5980000  29.2500000  65.9630000
   3.9800000  26.9780000  68.3290000   1.9570000  28.1610000  67.9480000
   5.8920000  49.1770000  48.7860000   4.9080000  49.1820000  49.8050000
   7.1360000  48.4480000  49.0180000   5.7220000  49.8570000  47.5720000
   5.1040000  48.5230000  51.0050000   4.0940000  49.6500000  49.6600000
   7.3070000  47.7720000  50.2420000   8.1120000  48.4430000  48.0140000
   6.6970000  49.8520000  46.5690000   4.9080000  50.3300000  47.4420000
   4.1190000  48.5400000  52.0430000   6.3340000  47.7990000  51.2310000
   8.1080000  47.2840000  50.3940000   8.9260000  47.9710000  48.1450000
   7.9420000  49.1230000  46.8010000   6.5270000  50.5290000  45.3440000
   4.3310000  47.8960000  53.2150000   3.3050000  49.0090000  51.9060000
   6.5060000  47.1390000  52.4850000   8.9260000  49.1180000  45.7820000
   7.5000000  50.5020000  44.3550000   5.7260000  51.0170000  45.1930000
   5.5480000  47.1820000  53.4440000   3.6640000  47.9200000  53.8910000
   7.3090000  46.6580000  52.6510000   9.7400000  48.6510000  45.9260000
   8.7300000  49.7780000  44.5810000   7.3280000  51.1620000  43.1010000
   5.6870000  46.7370000  54.2720000   9.7140000  49.7610000  43.5440000
   8.2850000  51.1190000  42.1420000   6.5250000  51.6430000  42.9350000
   9.5030000  50.4040000  42.3710000  10.5290000  49.2920000  43.6800000
   8.1470000  51.5640000  41.3140000  10.1700000  50.3810000  41.6950000
   6.9710000  37.0430000  60.8580000   7.9550000  37.0380000  59.8380000
   5.7260000  37.7720000  60.6260000   7.1410000  36.3630000  62.0710000
   7.7590000  37.6970000  58.6380000   8.7690000  36.5700000  59.9830000
   5.5560000  38.4490000  59.4010000   4.7510000  37.7770000  61.6290000
   6.1650000  36.3680000  63.0740000   7.9550000  35.8900000  62.2010000
   8.7440000  37.6800000  57.6010000   6.5290000  38.4210000  58.4120000
   4.7550000  38.9360000  59.2490000   3.9370000  38.2500000  61.4990000
   4.9210000  37.0970000  62.8420000   6.3360000  35.6910000  64.2990000
   8.5320000  38.3240000  56.4280000   9.5580000  37.2110000  57.7370000
   6.3570000  39.0810000  57.1580000   3.9370000  37.1020000  63.8620000
   5.3630000  35.7180000  65.2880000   7.1370000  35.2040000  64.4500000
   7.3140000  39.0380000  56.1990000   9.1990000  38.3010000  55.7520000
   5.5540000  39.5630000  56.9920000   3.1230000  37.5700000  63.7170000
   4.1330000  36.4430000  65.0620000   5.5350000  35.0590000  66.5420000
   7.1760000  39.4830000  55.3710000   3.1480000  36.4600000  66.0990000
   4.5770000  35.1020000  67.5010000   6.3380000  34.5770000  66.7080000
   3.3600000  35.8160000  67.2720000   2.3340000  36.9280000  65.9630000
   4.7160000  34.6560000  68.3290000   2.6930000  35.8390000  67.9480000
   4.4200000  33.8200000  48.7860000   3.4360000  33.8250000  49.8050000
   5.6640000  33.0910000  49.0180000   4.2490000  34.5000000  47.5720000
   3.6310000  33.1660000  51.0050000   2.6210000  34.2930000  49.6600000
   5.8350000  32.4140000  50.2420000   6.6400000  33.0860000  48.0140000
   5.2250000  34.4950000  46.5690000   3.4360000  34.9730000  47.4420000
   2.6470000  33.1830000  52.0430000   4.8620000  32.4420000  51.2310000
   6.6360000  31.9270000  50.3940000   7.4540000  32.6130000  48.1450000
   6.4690000  33.7660000  46.8010000   5.0550000  35.1720000  45.3440000
   2.8580000  32.5390000  53.2150000   1.8320000  33.6520000  51.9060000
   5.0340000  31.7820000  52.4850000   7.4540000  33.7610000  45.7820000
   6.0270000  35.1450000  44.3550000   4.2540000  35.6590000  45.1930000
   4.0760000  31.8250000  53.4440000   2.1920000  32.5620000  53.8910000
   5.8360000  31.3000000  52.6510000   8.2680000  33.2930000  45.9260000
   7.2580000  34.4200000  44.5810000   5.8560000  35.8050000  43.1010000
   4.2150000  31.3800000  54.2720000   8.2420000  34.4030000  43.5440000
   6.8130000  35.7610000  42.1420000   5.0530000  36.2860000  42.9350000
   8.0310000  35.0470000  42.3710000   9.0570000  33.9350000  43.6800000
   6.6750000  36.2070000  41.3140000   8.6980000  35.0240000  41.6950000
   6.7040000  38.1680000  32.7440000   7.6890000  38.1630000  31.7250000
   5.4600000  38.8970000  32.5120000   6.8750000  37.4880000  33.9570000
   7.4930000  38.8220000  30.5240000   8.5030000  37.6950000  31.8700000
   5.2900000  39.5740000  31.2880000   4.4840000  38.9020000  33.5160000
   5.8990000  37.4930000  34.9610000   7.6880000  37.0150000  34.0880000
   8.4770000  38.8050000  29.4870000   6.2620000  39.5460000  30.2980000
   4.4880000  40.0610000  31.1360000   3.6710000  39.3750000  33.3850000
   4.6550000  38.2220000  34.7290000   6.0690000  36.8160000  36.1850000
   8.2660000  39.4490000  28.3150000   9.2920000  38.3360000  29.6230000
   6.0900000  40.2060000  29.0440000   3.6710000  38.2270000  35.7480000
   5.0970000  36.8430000  37.1750000   6.8710000  36.3290000  36.3370000
   7.0480000  40.1630000  28.0860000   8.9320000  39.4260000  27.6390000
   5.2880000  40.6870000  28.8780000   2.8560000  38.6950000  35.6030000
   3.8660000  37.5680000  36.9480000   5.2690000  36.1830000  38.4290000
   6.9100000  40.6080000  27.2580000   2.8820000  37.5840000  37.9860000
   4.3110000  36.2260000  39.3870000   6.0710000  35.7020000  38.5940000
   3.0930000  36.9410000  39.1580000   2.0670000  38.0530000  37.8490000
   4.4490000  35.7810000  40.2150000   2.4270000  36.9640000  39.8340000
   1.4440000   8.6320000   6.6150000   0.4600000   8.6370000   7.6340000
   2.6880000   7.9030000   6.8470000   1.2730000   9.3130000   5.4020000
   0.6550000   7.9780000   8.8350000  -0.3550000   9.1050000   7.4890000
   2.8590000   7.2270000   8.0710000   3.6640000   7.8980000   5.8430000
   2.2490000   9.3070000   4.3980000   0.4600000   9.7850000   5.2710000
  -0.3290000   7.9950000   9.8720000   1.8860000   7.2540000   9.0610000
   3.6600000   6.7390000   8.2230000   4.4780000   7.4260000   5.9740000
   3.4930000   8.5780000   4.6300000   2.0790000   9.9840000   3.1740000
  -0.1180000   7.3510000  11.0440000  -1.1440000   8.4640000   9.7360000
   2.0580000   6.5940000  10.3150000   4.4780000   8.5730000   3.6110000
   3.0510000   9.9570000   2.1840000   1.2780000  10.4720000   3.0220000
   1.1000000   6.6370000  11.2740000  -0.7840000   7.3750000  11.7210000
   2.8600000   6.1130000  10.4810000   5.2920000   8.1060000   3.7560000
   4.2820000   9.2330000   2.4110000   2.8800000  10.6170000   0.9310000
   1.2390000   6.1920000  12.1020000   5.2660000   9.2160000   1.3730000
   3.8370000  10.5740000  -0.0280000   2.0770000  11.0980000   0.7650000
   5.0550000   9.8590000   0.2010000   6.0810000   8.7470000   1.5100000
   3.6990000  11.0190000  -0.8560000   5.7220000   9.8360000  -0.4750000
   4.4960000  15.1320000  32.7440000   5.4800000  15.1270000  31.7250000
   3.2520000  15.8610000  32.5120000   4.6660000  14.4520000  33.9570000
   5.2850000  15.7860000  30.5240000   6.2940000  14.6590000  31.8700000
   3.0810000  16.5380000  31.2880000   2.2760000  15.8660000  33.5160000
   3.6910000  14.4570000  34.9610000   5.4800000  13.9790000  34.0880000
   6.2690000  15.7690000  29.4870000   4.0540000  16.5110000  30.2980000
   2.2800000  17.0250000  31.1360000   1.4620000  16.3390000  33.3850000
   2.4470000  15.1860000  34.7290000   3.8610000  13.7800000  36.1850000
   6.0580000  16.4130000  28.3150000   7.0830000  15.3010000  29.6230000
   3.8820000  17.1700000  29.0440000   1.4620000  15.1910000  35.7480000
   2.8880000  13.8080000  37.1750000   4.6620000  13.2930000  36.3370000
   4.8400000  17.1270000  28.0860000   6.7240000  16.3900000  27.6390000
   3.0790000  17.6520000  28.8780000   0.6480000  15.6590000  35.6030000
   1.6580000  14.5320000  36.9480000   3.0600000  13.1480000  38.4290000
   4.7010000  17.5730000  27.2580000   0.6740000  14.5490000  37.9860000
   2.1030000  13.1910000  39.3870000   3.8630000  12.6660000  38.5940000
   0.8850000  13.9050000  39.1580000  -0.1410000  15.0180000  37.8490000
   2.2410000  12.7460000  40.2150000   0.2180000  13.9280000  39.8340000
   2.1800000  16.3110000   6.6150000   1.1960000  16.3160000   7.6340000
   3.4240000  15.5820000   6.8470000   2.0100000  16.9910000   5.4020000
   1.3910000  15.6570000   8.8350000   0.3810000  16.7840000   7.4890000
   3.5950000  14.9050000   8.0710000   4.4000000  15.5770000   5.8430000
   2.9850000  16.9860000   4.3980000   1.1960000  17.4640000   5.2710000
   0.4070000  15.6740000   9.8720000   2.6220000  14.9320000   9.0610000
   4.3960000  14.4180000   8.2230000   5.2140000  15.1040000   5.9740000
   4.2290000  16.2570000   4.6300000   2.8150000  17.6630000   3.1740000
   0.6180000  15.0300000  11.0440000  -0.4080000  16.1420000   9.7360000
   2.7940000  14.2730000  10.3150000   5.2140000  16.2520000   3.6110000
   3.7870000  17.6360000   2.1840000   2.0140000  18.1500000   3.0220000
   1.8360000  14.3160000  11.2740000  -0.0480000  15.0530000  11.7210000
   3.5970000  13.7910000  10.4810000   6.0280000  15.7840000   3.7560000
   5.0180000  16.9110000   2.4110000   3.6160000  18.2950000   0.9310000
   1.9750000  13.8710000  12.1020000   6.0020000  16.8940000   1.3730000
   4.5730000  18.2520000  -0.0280000   2.8130000  18.7770000   0.7650000
   5.7910000  17.5380000   0.2010000   6.8170000  16.4260000   1.5100000
   4.4350000  18.6970000  -0.8560000   6.4580000  17.5150000  -0.4750000
   4.3880000  39.3470000   6.6150000   3.4040000  39.3520000   7.6340000
   5.6330000  38.6180000   6.8470000   4.2180000  40.0270000   5.4020000
   3.6000000  38.6930000   8.8350000   2.5900000  39.8190000   7.4890000
   5.8030000  37.9410000   8.0710000   6.6080000  38.6130000   5.8430000
   5.1940000  40.0220000   4.3980000   3.4040000  40.4990000   5.2710000
   2.6160000  38.7090000   9.8720000   4.8300000  37.9680000   9.0610000
   6.6040000  37.4530000   8.2230000   7.4220000  38.1400000   5.9740000
   6.4380000  39.2930000   4.6300000   5.0230000  40.6990000   3.1740000
   2.8270000  38.0660000  11.0440000   1.8010000  39.1780000   9.7360000
   5.0020000  37.3080000  10.3150000   7.4220000  39.2880000   3.6110000
   5.9960000  40.6710000   2.1840000   4.2220000  41.1860000   3.0220000
   4.0450000  37.3510000  11.2740000   2.1600000  38.0890000  11.7210000
   5.8050000  36.8270000  10.4810000   8.2360000  38.8200000   3.7560000
   7.2260000  39.9470000   2.4110000   5.8240000  41.3310000   0.9310000
   4.1830000  36.9060000  12.1020000   8.2110000  39.9300000   1.3730000
   6.7820000  41.2880000  -0.0280000   5.0210000  41.8120000   0.7650000
   8.0000000  40.5740000   0.2010000   9.0250000  39.4610000   1.5100000
   6.6430000  41.7330000  -0.8560000   8.6660000  40.5500000  -0.4750000
   2.9160000  23.9900000   6.6150000   1.9320000  23.9950000   7.6340000
   4.1600000  23.2610000   6.8470000   2.7460000  24.6700000   5.4020000
   2.1280000  23.3350000   8.8350000   1.1180000  24.4620000   7.4890000
   4.3310000  22.5840000   8.0710000   5.1360000  23.2550000   5.8430000
   3.7210000  24.6650000   4.3980000   1.9320000  25.1420000   5.2710000
   1.1430000  23.3520000   9.8720000   3.3580000  22.6110000   9.0610000
   5.1320000  22.0960000   8.2230000   5.9500000  22.7830000   5.9740000
   4.9660000  23.9350000   4.6300000   3.5510000  25.3410000   3.1740000
   1.3540000  22.7090000  11.0440000   0.3290000  23.8210000   9.7360000
   3.5300000  21.9510000  10.3150000   5.9500000  23.9310000   3.6110000
   4.5240000  25.3140000   2.1840000   2.7500000  25.8290000   3.0220000
   2.5720000  21.9940000  11.2740000   0.6880000  22.7320000  11.7210000
   4.3330000  21.4700000  10.4810000   6.7640000  23.4630000   3.7560000
   5.7540000  24.5900000   2.4110000   4.3520000  25.9740000   0.9310000
   2.7110000  21.5490000  12.1020000   6.7380000  24.5730000   1.3730000
   5.3090000  25.9310000  -0.0280000   3.5490000  26.4550000   0.7650000
   6.5270000  25.2170000   0.2010000   7.5530000  24.1040000   1.5100000
   5.1710000  26.3760000  -0.8560000   7.1940000  25.1930000  -0.4750000
   5.4670000  27.2120000  18.6870000   6.4510000  27.2070000  17.6680000
   4.2230000  27.9410000  18.4550000   5.6370000  26.5320000  19.9000000
   6.2560000  27.8670000  16.4680000   7.2650000  26.7400000  17.8130000
   4.0520000  28.6180000  17.2310000   3.2470000  27.9470000  19.4590000
   4.6620000  26.5370000  20.9040000   6.4510000  26.0600000  20.0310000
   7.2400000  27.8500000  15.4300000   5.0250000  28.5910000  16.2410000
   3.2510000  29.1060000  17.0790000   2.4330000  28.4190000  19.3280000
   3.4180000  27.2670000  20.6720000   4.8320000  25.8610000  22.1280000
   7.0290000  28.4930000  14.2580000   8.0540000  27.3810000  15.5670000
   4.8530000  29.2510000  14.9870000   2.4330000  27.2710000  21.6910000
   3.8590000  25.8880000  23.1180000   5.6330000  25.3730000  22.2800000
   5.8110000  29.2080000  14.0290000   7.6950000  28.4700000  13.5820000
   4.0500000  29.7320000  14.8220000   1.6190000  27.7390000  21.5460000
   2.6290000  26.6120000  22.8920000   4.0310000  25.2280000  24.3720000
   5.6720000  29.6530000  13.2010000   1.6450000  26.6290000  23.9290000
   3.0740000  25.2710000  25.3300000   4.8340000  24.7470000  24.5380000
   1.8560000  25.9850000  25.1010000   0.8300000  27.0980000  23.7930000
   3.2120000  24.8260000  26.1580000   1.1890000  26.0090000  25.7770000
   5.9680000  30.4890000  32.7440000   6.9520000  30.4840000  31.7250000
   4.7240000  31.2180000  32.5120000   6.1390000  29.8090000  33.9570000
   6.7570000  31.1440000  30.5240000   7.7670000  30.0170000  31.8700000
   4.5540000  31.8950000  31.2880000   3.7480000  31.2230000  33.5160000
   5.1630000  29.8140000  34.9610000   6.9520000  29.3370000  34.0880000
   7.7410000  31.1270000  29.4870000   5.5260000  31.8680000  30.2980000
   3.7520000  32.3830000  31.1360000   2.9350000  31.6960000  33.3850000
   3.9190000  30.5430000  34.7290000   5.3330000  29.1370000  36.1850000
   7.5300000  31.7700000  28.3150000   8.5560000  30.6580000  29.6230000
   5.3540000  32.5280000  29.0440000   2.9340000  30.5480000  35.7480000
   4.3610000  29.1650000  37.1750000   6.1340000  28.6500000  36.3370000
   6.3120000  32.4850000  28.0860000   8.1960000  31.7470000  27.6390000
   4.5520000  33.0090000  28.8780000   2.1200000  31.0160000  35.6030000
   3.1300000  29.8890000  36.9480000   4.5330000  28.5050000  38.4290000
   6.1740000  32.9300000  27.2580000   2.1460000  29.9060000  37.9860000
   3.5750000  28.5480000  39.3870000   5.3350000  28.0240000  38.5940000
   2.3570000  29.2620000  39.1580000   1.3310000  30.3750000  37.8490000
   3.7130000  28.1030000  40.2150000   1.6910000  29.2860000  39.8340000
   6.2030000  34.8910000  18.6870000   7.1870000  34.8860000  17.6680000
   4.9590000  35.6200000  18.4550000   6.3730000  34.2110000  19.9000000
   6.9920000  35.5450000  16.4680000   8.0020000  34.4180000  17.8130000
   4.7880000  36.2970000  17.2310000   3.9830000  35.6250000  19.4590000
   5.3980000  34.2160000  20.9040000   7.1870000  33.7380000  20.0310000
   7.9760000  35.5280000  15.4300000   5.7610000  36.2700000  16.2410000
   3.9870000  36.7840000  17.0790000   3.1690000  36.0980000  19.3280000
   4.1540000  34.9450000  20.6720000   5.5680000  33.5390000  22.1280000
   7.7650000  36.1720000  14.2580000   8.7910000  35.0600000  15.5670000
   5.5890000  36.9290000  14.9870000   3.1690000  34.9500000  21.6910000
   4.5960000  33.5660000  23.1180000   6.3690000  33.0520000  22.2800000
   6.5470000  36.8860000  14.0290000   8.4310000  36.1490000  13.5820000
   4.7870000  37.4110000  14.8220000   2.3550000  35.4180000  21.5460000
   3.3650000  34.2910000  22.8920000   4.7670000  32.9070000  24.3720000
   6.4080000  37.3310000  13.2010000   2.3810000  34.3080000  23.9290000
   3.8100000  32.9500000  25.3300000   5.5700000  32.4250000  24.5380000
   2.5920000  33.6640000  25.1010000   1.5660000  34.7760000  23.7930000
   3.9480000  32.5050000  26.1580000   1.9250000  33.6870000  25.7770000
   7.7070000  44.7210000  60.8580000   8.6910000  44.7170000  59.8380000
   6.4630000  45.4510000  60.6260000   7.8770000  44.0410000  62.0710000
   8.4950000  45.3760000  58.6380000   9.5050000  44.2490000  59.9830000
   6.2920000  46.1270000  59.4010000   5.4870000  45.4560000  61.6290000
   6.9020000  44.0460000  63.0740000   8.6910000  43.5690000  62.2010000
   9.4800000  45.3590000  57.6010000   7.2650000  46.1000000  58.4120000
   5.4910000  46.6150000  59.2490000   4.6730000  45.9280000  61.4990000
   5.6570000  44.7760000  62.8420000   7.0720000  43.3700000  64.2990000
   9.2680000  46.0020000  56.4280000  10.2940000  44.8900000  57.7370000
   7.0930000  46.7600000  57.1580000   4.6730000  44.7810000  63.8620000
   6.0990000  43.3970000  65.2880000   7.8730000  42.8820000  64.4500000
   8.0510000  46.7170000  56.1990000   9.9350000  45.9790000  55.7520000
   6.2900000  47.2410000  56.9920000   3.8590000  45.2480000  63.7170000
   4.8690000  44.1210000  65.0620000   6.2710000  42.7370000  66.5420000
   7.9120000  47.1620000  55.3710000   3.8840000  44.1380000  66.0990000
   5.3140000  42.7800000  67.5010000   7.0740000  42.2560000  66.7080000
   4.0960000  43.4950000  67.2720000   3.0700000  44.6070000  65.9630000
   5.4520000  42.3350000  68.3290000   3.4290000  43.5180000  67.9480000
   5.1560000  41.4990000  48.7860000   4.1720000  41.5040000  49.8050000
   6.4000000  40.7700000  49.0180000   4.9860000  42.1790000  47.5720000
   4.3670000  40.8440000  51.0050000   3.3570000  41.9710000  49.6600000
   6.5710000  40.0930000  50.2420000   7.3760000  40.7640000  48.0140000
   5.9610000  42.1740000  46.5690000   4.1720000  42.6510000  47.4420000
   3.3830000  40.8610000  52.0430000   5.5980000  40.1200000  51.2310000
   7.3720000  39.6050000  50.3940000   8.1900000  40.2920000  48.1450000
   7.2050000  41.4450000  46.8010000   5.7910000  42.8500000  45.3440000
   3.5940000  40.2180000  53.2150000   2.5680000  41.3300000  51.9060000
   5.7700000  39.4600000  52.4850000   8.1900000  41.4400000  45.7820000
   6.7630000  42.8230000  44.3550000   4.9900000  43.3380000  45.1930000
   4.8120000  39.5030000  53.4440000   2.9280000  40.2410000  53.8910000
   6.5730000  38.9790000  52.6510000   9.0040000  40.9720000  45.9260000
   7.9940000  42.0990000  44.5810000   6.5920000  43.4830000  43.1010000
   4.9510000  39.0580000  54.2720000   8.9780000  42.0820000  43.5440000
   7.5490000  43.4400000  42.1420000   5.7890000  43.9640000  42.9350000
   8.7670000  42.7260000  42.3710000   9.7930000  41.6130000  43.6800000
   7.4110000  43.8850000  41.3140000   9.4340000  42.7020000  41.6950000
   3.6520000  31.6680000   6.6150000   2.6680000  31.6730000   7.6340000
   4.8960000  30.9390000   6.8470000   3.4820000  32.3480000   5.4020000
   2.8640000  31.0140000   8.8350000   1.8540000  32.1410000   7.4890000
   5.0670000  30.2620000   8.0710000   5.8720000  30.9340000   5.8430000
   4.4580000  32.3430000   4.3980000   2.6680000  32.8210000   5.2710000
   1.8790000  31.0310000   9.8720000   4.0940000  30.2900000   9.0610000
   5.8680000  29.7750000   8.2230000   6.6860000  30.4620000   5.9740000
   5.7020000  31.6140000   4.6300000   4.2870000  33.0200000   3.1740000
   2.0910000  30.3870000  11.0440000   1.0650000  31.5000000   9.7360000
   4.2660000  29.6300000  10.3150000   6.6860000  31.6090000   3.6110000
   5.2600000  32.9930000   2.1840000   3.4860000  33.5070000   3.0220000
   3.3080000  29.6730000  11.2740000   1.4240000  30.4100000  11.7210000
   5.0690000  29.1490000  10.4810000   7.5000000  31.1420000   3.7560000
   6.4900000  32.2680000   2.4110000   5.0880000  33.6530000   0.9310000
   3.4470000  29.2280000  12.1020000   7.4750000  32.2520000   1.3730000
   6.0460000  33.6100000  -0.0280000   4.2850000  34.1340000   0.7650000
   7.2630000  32.8950000   0.2010000   8.2890000  31.7830000   1.5100000
   5.9070000  34.0550000  -0.8560000   7.9300000  32.8720000  -0.4750000
